CGG polymer
95720
    1CGG    AL1    1  15.010  16.518  12.401  0.0604  0.1234 -0.1142
    1CGG    AL2    2  14.813  15.763  12.247 -0.0250  0.2731 -0.0583
    1CGG    AL3    3  14.780  16.059  12.270  0.4006 -0.1250 -0.1785
    1CGG    AL4    4  15.009  16.220  12.368  0.3592  0.3509  0.2064
    1CGG   AL41    5  15.086  15.639  12.335  0.4492 -0.1959 -0.0148
    1CGG   AL42    6  14.934  14.868  12.163 -0.3329  0.0482 -0.2064
    1CGG   AL43    7  14.900  15.163  12.198 -0.1340  0.4736  0.3727
    1CGG   AL44    8  15.120  15.341  12.300  0.1936  0.1175 -0.1220
    1CGG   AL81    9  15.190  14.742  12.230 -0.5272  0.4641 -0.0003
    1CGG   AL82   10  15.034  13.966  12.077 -0.3149  0.1678  0.0337
    1CGG   AL83   11  15.004  14.265  12.102  0.0394  0.5053 -0.3634
    1CGG   AL84   12  15.218  14.438  12.204 -0.5707 -0.6701  0.2624
    1CGG    SI5   13  14.883  15.728  12.567 -0.1707 -0.0291  0.1912
    1CGG    SI6   14  14.838  16.335  12.600  0.2487  0.1481 -0.2187
    1CGG    SI7   15  14.920  16.553  12.097 -0.0978 -0.1107  0.0499
    1CGG    SI8   16  14.962  15.946  12.036 -0.3860  0.0898 -0.4383
    1CGG    SI9   17  14.596  16.162  12.507  0.0258 -0.2560  0.1684
    1CGG   SI10   18  14.638  15.873  12.493 -0.0851  0.1024  0.5096
    1CGG   SI11   19  15.197  16.112  12.146  0.1276 -0.0939 -0.1650
    1CGG   SI12   20  15.163  16.408  12.152 -0.4387  0.1569 -0.0464
    1CGG   SI45   21  15.016  14.838  12.471 -0.7775  0.5041  0.1937
    1CGG   SI46   22  14.944  15.435  12.541 -0.2344 -0.0244  0.2213
    1CGG   SI47   23  15.006  15.655  12.019  0.0026  0.2754  0.1951
    1CGG   SI48   24  15.082  15.060  11.957  0.3970 -0.7058  0.1300
    1CGG   SI49   25  14.717  15.262  12.431  0.0017 -0.1016  0.4931
    1CGG   SI50   26  14.760  14.967  12.405 -0.0522 -0.2632 -0.1195
    1CGG   SI51   27  15.314  15.252  12.059  0.0841  0.6962  0.0453
    1CGG   SI52   28  15.274  15.539  12.102  0.1759 -0.2338  0.1926
    1CGG   SI85   29  15.116  13.941  12.382  0.2011  0.5105  0.2921
    1CGG   SI86   30  15.058  14.544  12.448  0.1393  0.0059  0.0813
    1CGG   SI87   31  15.124  14.768  11.921 -0.2853  0.0406  0.1665
    1CGG   SI88   32  15.175  14.159  11.862  0.0458  0.4892  0.2512
    1CGG   SI89   33  14.824  14.361  12.343 -0.3406  0.0085  0.2904
    1CGG   SI90   34  14.865  14.072  12.322 -0.4073  0.3983 -0.1123
    1CGG   SI91   35  15.404  14.332  11.969  0.0699 -0.2669  0.3061
    1CGG   SI92   36  15.370  14.629  11.997  0.3797  0.0109  0.1034
    2CGG    AL1   37  14.499  16.474  12.228 -0.0114 -0.1325  0.2666
    2CGG    AL2   38  14.334  15.725  12.064 -0.0522 -0.6407 -0.2264
    2CGG    AL3   39  14.303  16.012  12.090 -0.4432 -0.3113 -0.0399
    2CGG    AL4   40  14.518  16.197  12.192  0.4466  0.1068  0.1698
    2CGG   AL41   41  14.593  15.583  12.143 -0.3173  0.0480  0.5635
    2CGG   AL42   42  14.443  14.823  11.996 -0.3016 -0.1169  0.0948
    2CGG   AL43   43  14.410  15.113  12.027 -0.1096  0.0042 -0.2854
    2CGG   AL44   44  14.633  15.288  12.119 -0.1175  0.2210 -0.0300
    2CGG   AL81   45  14.705  14.700  12.058 -0.3986 -0.0809 -0.5005
    2CGG   AL82   46  14.550  13.918  11.911  0.2306  0.1408  0.1225
    2CGG   AL83   47  14.522  14.222  11.944 -0.0886  0.3331  0.0109
    2CGG   AL84   48  14.742  14.400  12.038  0.1925  0.0781  0.1152
    2CGG    SI5   49  14.419  15.694  12.382 -0.0384  0.0876 -0.3240
    2CGG    SI6   50  14.340  16.294  12.442 -0.2360  0.1988 -0.5214
    2CGG    SI7   51  14.411  16.500  11.911 -0.3092  0.1274  0.1665
    2CGG    SI8   52  14.480  15.911  11.858 -0.3893  0.5327 -0.5293
    2CGG    SI9   53  14.118  16.112  12.332  0.0709 -0.0508  0.0880
    2CGG   SI10   54  14.162  15.820  12.311  0.5644  0.1794 -0.1409
    2CGG   SI11   55  14.708  16.085  11.959 -0.5390  0.6303 -0.1520
    2CGG   SI12   56  14.680  16.379  11.987  0.1760 -0.0740  0.2051
    2CGG   SI45   57  14.534  14.796  12.302 -0.5179 -0.0384  0.2122
    2CGG   SI46   58  14.456  15.395  12.366  0.1707 -0.0531 -0.2867
    2CGG   SI47   59  14.524  15.613  11.833  0.2331 -0.2379  0.4785
    2CGG   SI48   60  14.585  15.018  11.787  0.0320  0.2390  0.0134
    2CGG   SI49   61  14.222  15.218  12.264 -0.0965  0.1268  0.1901
    2CGG   SI50   62  14.275  14.920  12.243 -0.1020 -0.2581 -0.2225
    2CGG   SI51   63  14.825  15.191  11.885  0.5912  0.1471 -0.3185
    2CGG   SI52   64  14.774  15.482  11.905  0.1965 -0.0043  0.3171
    2CGG   SI85   65  14.635  13.890  12.215 -0.1192  0.6349 -0.4402
    2CGG   SI86   66  14.569  14.501  12.283 -0.0116  0.0691  0.4438
    2CGG   SI87   67  14.624  14.722  11.749 -0.2605  0.0639 -0.0560
    2CGG   SI88   68  14.689  14.113  11.699  0.0473  0.2913 -0.4228
    2CGG   SI89   69  14.342  14.314  12.184  0.3148  0.0595 -0.1221
    2CGG   SI90   70  14.376  14.020  12.152  0.1849  0.5496 -0.1221
    2CGG   SI91   71  14.925  14.293  11.798  0.0770  0.2078 -0.1883
    2CGG   SI92   72  14.892  14.587  11.823  0.3028  0.0378 -0.1613
    3CGG    AL1   73  14.001  16.428  12.041 -0.3569 -0.3909  0.2471
    3CGG    AL2   74  13.858  15.667  11.892 -0.4536  0.0981 -0.2172
    3CGG    AL3   75  13.827  15.966  11.923  0.2433  0.1937 -0.4251
    3CGG    AL4   76  14.049  16.143  12.022 -0.3433 -0.0276 -0.2162
    3CGG   AL41   77  14.113  15.549  11.966 -0.0098 -0.2669  0.4336
    3CGG   AL42   78  13.965  14.778  11.828  0.5517 -0.2481 -0.1014
    3CGG   AL43   79  13.934  15.075  11.849 -0.2902 -0.1225 -0.2666
    3CGG   AL44   80  14.153  15.253  11.946 -0.6086  0.0110 -0.0064
    3CGG   AL81   81  14.225  14.651  11.898  0.1320  0.1316  0.0094
    3CGG   AL82   82  14.074  13.887  11.742  0.1805 -0.2005  0.1982
    3CGG   AL83   83  14.040  14.189  11.771 -0.7448  0.0406  0.7105
    3CGG   AL84   84  14.267  14.355  11.878  0.0788 -0.1436  0.1667
    3CGG    SI5   85  13.943  15.650  12.200 -0.1395 -0.3954  0.0173
    3CGG    SI6   86  13.871  16.241  12.265 -0.1482 -0.4019  0.3251
    3CGG    SI7   87  13.928  16.452  11.731 -0.1216  0.1171 -0.2052
    3CGG    SI8   88  14.001  15.863  11.678  0.0611 -0.2349  0.1065
    3CGG    SI9   89  13.639  16.061  12.161 -0.2380  0.0472  0.2219
    3CGG   SI10   90  13.685  15.774  12.142 -0.3658  0.1991  0.5078
    3CGG   SI11   91  14.232  16.041  11.780  0.1901  0.1031 -0.2503
    3CGG   SI12   92  14.188  16.332  11.805 -0.0984 -0.1803 -0.4925
    3CGG   SI45   93  14.056  14.748  12.142 -0.1131 -0.0812 -0.0477
    3CGG   SI46   94  13.971  15.365  12.189 -0.8581 -0.2099 -0.0788
    3CGG   SI47   95  14.035  15.575  11.653  0.1705 -0.0787  0.2696
    3CGG   SI48   96  14.108  14.973  11.611 -0.0570  0.3358  0.1075
    3CGG   SI49   97  13.758  15.180  12.088  0.3484 -0.0895 -0.5262
    3CGG   SI50   98  13.799  14.884  12.078  0.1361 -0.0504  0.4202
    3CGG   SI51   99  14.335  15.156  11.710  0.2287 -0.1679 -0.1199
    3CGG   SI52  100  14.293  15.447  11.728 -0.0845 -0.1974  0.1071
    3CGG   SI85  101  14.155  13.852  12.047  0.6451 -0.5367 -0.3531
    3CGG   SI86  102  14.089  14.456  12.120  0.4074  0.0950 -0.3923
    3CGG   SI87  103  14.148  14.677  11.583  0.1038 -0.0726 -0.6523
    3CGG   SI88  104  14.207  14.084  11.518 -0.6801 -0.3495  0.2086
    3CGG   SI89  105  13.859  14.281  12.006 -0.3169  0.0820  0.0277
    3CGG   SI90  106  13.907  13.993  11.980 -0.0202  0.2633  0.1671
    3CGG   SI91  107  14.438  14.248  11.638 -0.0542  0.3168 -0.3837
    3CGG   SI92  108  14.405  14.549  11.662  0.2408 -0.1926 -0.4428
    4CGG    AL1  109  13.511  16.370  11.866 -0.4147  0.3773  0.1718
    4CGG    AL2  110  13.371  15.623  11.735 -0.1337  0.0763  0.3955
    4CGG    AL3  111  13.332  15.922  11.752  0.5087 -0.1939  0.0729
    4CGG    AL4  112  13.561  16.088  11.852  0.3116  0.1862  0.1544
    4CGG   AL41  113  13.637  15.493  11.805  0.3443 -0.0397  0.2132
    4CGG   AL42  114  13.473  14.731  11.654  0.1994  0.1419 -0.1138
    4CGG   AL43  115  13.448  15.028  11.680 -0.4532  0.0476 -0.5349
    4CGG   AL44  116  13.670  15.207  11.781 -0.1778  0.3745 -0.2392
    4CGG   AL81  117  13.731  14.610  11.722 -0.0568  0.0268 -0.1538
    4CGG   AL82  118  13.579  13.842  11.573  0.0773 -0.1091 -0.1956
    4CGG   AL83  119  13.556  14.137  11.597 -0.0240 -0.3153  0.3148
    4CGG   AL84  120  13.782  14.317  11.697 -0.1689  0.0836 -0.4649
    4CGG    SI5  121  13.449  15.596  12.044 -0.0620 -0.3888 -0.3767
    4CGG    SI6  122  13.384  16.192  12.088  0.0786  0.1359  0.1912
    4CGG    SI7  123  13.455  16.398  11.547 -0.4932  0.0087  0.0111
    4CGG    SI8  124  13.511  15.809  11.521 -0.0025 -0.2555  0.0659
    4CGG    SI9  125  13.149  16.025  11.986  0.0733 -0.5037  0.2602
    4CGG   SI10  126  13.192  15.730  11.972  0.1826 -0.0374 -0.4017
    4CGG   SI11  127  13.739  15.988  11.611 -0.0854 -0.0129  0.1044
    4CGG   SI12  128  13.702  16.273  11.630 -0.4440  0.0702  0.0584
    4CGG   SI45  129  13.560  14.710  11.971 -0.1029  0.2395  0.1760
    4CGG   SI46  130  13.498  15.308  12.030  0.0090  0.2422  0.4076
    4CGG   SI47  131  13.550  15.520  11.492 -0.0179  0.3204 -0.0884
    4CGG   SI48  132  13.621  14.920  11.435  0.0651  0.1431 -0.0470
    4CGG   SI49  133  13.269  15.134  11.921  0.1978  0.3634  0.3152
    4CGG   SI50  134  13.309  14.839  11.903 -0.0460 -0.1594  0.1780
    4CGG   SI51  135  13.846  15.100  11.541 -0.9117 -0.2609 -0.1868
    4CGG   SI52  136  13.808  15.393  11.558  0.4174 -0.1676 -0.3577
    4CGG   SI85  137  13.676  13.820  11.881  0.2997  0.2260  0.8004
    4CGG   SI86  138  13.599  14.416  11.944  0.3574  0.4842 -0.0955
    4CGG   SI87  139  13.656  14.628  11.410 -0.2196 -0.1024  0.3260
    4CGG   SI88  140  13.729  14.031  11.365  0.7719 -0.2415  0.1787
    4CGG   SI89  141  13.369  14.235  11.844 -0.1410  0.4890  0.5915
    4CGG   SI90  142  13.406  13.941  11.816 -0.5334 -0.3595 -0.5204
    4CGG   SI91  143  13.954  14.215  11.456 -0.3485 -0.5871 -0.1681
    4CGG   SI92  144  13.907  14.512  11.479  0.1051  0.2438 -0.6456
    5CGG    AL1  145  13.056  16.350  11.694 -0.1526  0.0642 -0.4095
    5CGG    AL2  146  12.883  15.581  11.556 -0.0540 -0.1736 -0.5185
    5CGG    AL3  147  12.854  15.886  11.580  0.2474  0.2432  0.0401
    5CGG    AL4  148  13.083  16.060  11.671 -0.5398 -0.2891 -0.0911
    5CGG   AL41  149  13.146  15.455  11.625 -0.1913  0.4509 -0.0819
    5CGG   AL42  150  12.993  14.696  11.493 -0.1010 -0.0946  0.2251
    5CGG   AL43  151  12.959  14.997  11.509 -0.1476  0.0441 -0.1948
    5CGG   AL44  152  13.185  15.162  11.607 -0.4034 -0.5339  0.0447
    5CGG   AL81  153  13.254  14.561  11.550 -0.0048 -0.2047 -0.1977
    5CGG   AL82  154  13.099  13.801  11.405  0.1597  0.2143 -0.6342
    5CGG   AL83  155  13.067  14.091  11.440 -0.1384 -0.0083 -0.1108
    5CGG   AL84  156  13.294  14.267  11.529  0.1326 -0.1167 -0.0254
    5CGG    SI5  157  12.973  15.563  11.870  0.0953  0.3027  0.3121
    5CGG    SI6  158  12.908  16.168  11.916  0.1141 -0.0228 -0.1010
    5CGG    SI7  159  12.957  16.377  11.389 -0.1845 -0.2865 -0.7121
    5CGG    SI8  160  13.019  15.777  11.342  0.1158  0.0624 -0.2105
    5CGG    SI9  161  12.675  15.988  11.823  0.0262 -0.4403 -0.4081
    5CGG   SI10  162  12.715  15.696  11.799 -0.4890 -0.1059  0.2170
    5CGG   SI11  163  13.256  15.945  11.439  0.3073 -0.0172 -0.2350
    5CGG   SI12  164  13.229  16.239  11.445  0.2649 -0.3213  0.1533
    5CGG   SI45  165  13.088  14.665  11.801  0.1160 -0.2464  0.3341
    5CGG   SI46  166  13.016  15.273  11.852 -0.0841  0.4706  0.1603
    5CGG   SI47  167  13.076  15.485  11.316  0.0258  0.2040 -0.5643
    5CGG   SI48  168  13.135  14.886  11.271 -0.0207 -0.2629 -0.0088
    5CGG   SI49  169  12.787  15.091  11.757  0.3053  0.0779  0.1181
    5CGG   SI50  170  12.830  14.799  11.734  0.0648  0.4569  0.0920
    5CGG   SI51  171  13.368  15.062  11.367  0.1241  0.1171 -0.2313
    5CGG   SI52  172  13.331  15.357  11.388  0.2544  0.0566 -0.1796
    5CGG   SI85  173  13.183  13.768  11.710 -0.4173 -0.1557  0.1913
    5CGG   SI86  174  13.122  14.373  11.771  0.3940  0.0345 -0.0742
    5CGG   SI87  175  13.169  14.591  11.246  0.0437  0.0706  0.0166
    5CGG   SI88  176  13.237  13.988  11.191  0.3624 -0.6574 -0.1895
    5CGG   SI89  177  12.889  14.197  11.683 -0.1925 -0.0426  0.0763
    5CGG   SI90  178  12.926  13.904  11.657 -0.3612  0.4085 -0.1846
    5CGG   SI91  179  13.475  14.166  11.282  0.1044  0.0437  0.2099
    5CGG   SI92  180  13.427  14.456  11.310  0.0804 -0.2279  0.1064
    6CGG    AL1  181  12.553  16.303  11.532 -0.2276 -0.1858  0.1304
    6CGG    AL2  182  12.396  15.541  11.400 -0.4507  0.1611  0.2768
    6CGG    AL3  183  12.363  15.837  11.425  0.0047 -0.2969  0.1408
    6CGG    AL4  184  12.589  16.012  11.517  0.0915  0.1602  0.1659
    6CGG   AL41  185  12.659  15.415  11.462 -0.0911 -0.2826 -0.2499
    6CGG   AL42  186  12.501  14.652  11.333 -0.0583  0.0836  0.5733
    6CGG   AL43  187  12.469  14.950  11.349 -0.2371  0.0574  0.1780
    6CGG   AL44  188  12.701  15.117  11.445  0.2831  0.0021  0.1563
    6CGG   AL81  189  12.763  14.516  11.398 -0.0565 -0.1896 -0.4220
    6CGG   AL82  190  12.608  13.748  11.260 -0.2955  0.1276  0.1790
    6CGG   AL83  191  12.572  14.049  11.283 -0.0730 -0.0323  0.0910
    6CGG   AL84  192  12.804  14.220  11.372 -0.0145 -0.2622 -0.4619
    6CGG    SI5  193  12.485  15.514  11.706  0.2404 -0.0644  0.0941
    6CGG    SI6  194  12.417  16.122  11.760  0.5060 -0.3539 -0.4057
    6CGG    SI7  195  12.469  16.326  11.215  0.1950  0.3357  0.1240
    6CGG    SI8  196  12.541  15.731  11.184  0.2775  0.0873  0.1625
    6CGG    SI9  197  12.184  15.940  11.666 -0.3297 -0.0793 -0.1205
    6CGG   SI10  198  12.221  15.648  11.638 -0.2466 -0.2124  0.0270
    6CGG   SI11  199  12.766  15.913  11.275  0.0922 -0.4441  0.3112
    6CGG   SI12  200  12.724  16.203  11.294 -0.0409 -0.3452 -0.1373
    6CGG   SI45  201  12.592  14.625  11.646  0.2803  0.2562  0.4836
    6CGG   SI46  202  12.525  15.220  11.685 -0.1192  0.1261 -0.0687
    6CGG   SI47  203  12.576  15.432  11.158  0.5178 -0.2390  0.0506
    6CGG   SI48  204  12.642  14.839  11.109  0.3947 -0.3008  0.2591
    6CGG   SI49  205  12.293  15.046  11.587  0.4994  0.3197  0.1365
    6CGG   SI50  206  12.332  14.753  11.572  0.3835 -0.0188 -0.3155
    6CGG   SI51  207  12.877  15.019  11.204  0.1994  0.0868  0.2213
    6CGG   SI52  208  12.844  15.307  11.227 -0.3292  0.0345 -0.2459
    6CGG   SI85  209  12.700  13.726  11.565  0.0979 -0.0656  0.0968
    6CGG   SI86  210  12.635  14.324  11.617  0.5450 -0.3203 -0.4373
    6CGG   SI87  211  12.682  14.550  11.095  0.6402  0.0083 -0.0395
    6CGG   SI88  212  12.749  13.941  11.042  0.5523  0.1213  0.2124
    6CGG   SI89  213  12.393  14.148  11.530 -0.2791 -0.3542  0.5213
    6CGG   SI90  214  12.436  13.852  11.500 -0.1115  0.3187  0.1020
    6CGG   SI91  215  12.974  14.117  11.136  0.1674  0.2208  0.1948
    6CGG   SI92  216  12.935  14.416  11.161  0.0547  0.2884  0.3215
    7CGG    AL1  217  12.067  16.266  11.372 -0.5701 -0.1384 -0.1561
    7CGG    AL2  218  11.907  15.497  11.235  0.3225  0.2690 -0.1065
    7CGG    AL3  219  11.878  15.800  11.251  0.2424  0.2120  0.2173
    7CGG    AL4  220  12.113  15.961  11.350 -0.1684 -0.1007 -0.1761
    7CGG   AL41  221  12.167  15.367  11.296 -0.2766 -0.0709 -0.1646
    7CGG   AL42  222  12.020  14.603  11.163  0.2862  0.2586  0.5314
    7CGG   AL43  223  11.984  14.898  11.177  0.4585  0.5467  0.2613
    7CGG   AL44  224  12.205  15.069  11.278  0.2491 -0.2547 -0.1600
    7CGG   AL81  225  12.284  14.477  11.233  0.7469 -0.0074 -0.1900
    7CGG   AL82  226  12.118  13.700  11.092 -0.2179 -0.2648  0.0922
    7CGG   AL83  227  12.087  14.003  11.122 -0.1509  0.2817  0.2138
    7CGG   AL84  228  12.318  14.178  11.216  0.2968  0.4134 -0.1391
    7CGG    SI5  229  11.993  15.475  11.543 -0.3465  0.0643 -0.0928
    7CGG    SI6  230  11.928  16.067  11.583  0.5747 -0.2586  0.4150
    7CGG    SI7  231  11.997  16.286  11.056  0.3174  0.0010  0.2301
    7CGG    SI8  232  12.052  15.684  11.016 -0.5400 -0.0227  0.1882
    7CGG    SI9  233  11.699  15.899  11.488  0.1903  0.4023  0.1784
    7CGG   SI10  234  11.737  15.606  11.475  0.0737 -0.0647  0.0874
    7CGG   SI11  235  12.283  15.863  11.111  0.0549 -0.0082 -0.2718
    7CGG   SI12  236  12.248  16.154  11.129  0.1926 -0.1884  0.2271
    7CGG   SI45  237  12.106  14.584  11.476 -0.4556 -0.3381 -0.1570
    7CGG   SI46  238  12.036  15.178  11.517 -0.2261  0.2361 -0.3052
    7CGG   SI47  239  12.080  15.393  10.987  0.0694 -0.0564 -0.1843
    7CGG   SI48  240  12.148  14.793  10.933 -0.2295 -0.4164  0.2541
    7CGG   SI49  241  11.800  15.005  11.424 -0.3728  0.3433 -0.0199
    7CGG   SI50  242  11.848  14.718  11.397 -0.2079 -0.2867  0.0190
    7CGG   SI51  243  12.383  14.970  11.036 -0.2975 -0.3070 -0.3382
    7CGG   SI52  244  12.344  15.265  11.058 -0.0616 -0.2117  0.0142
    7CGG   SI85  245  12.209  13.681  11.400 -0.3776 -0.0357  0.2686
    7CGG   SI86  246  12.146  14.284  11.461  0.3177 -0.4667 -0.2911
    7CGG   SI87  247  12.202  14.496  10.920  0.2024 -0.8355  0.1846
    7CGG   SI88  248  12.259  13.898  10.887 -0.5576  0.0533  0.1314
    7CGG   SI89  249  11.911  14.103  11.364  0.1432  0.0388  0.2989
    7CGG   SI90  250  11.948  13.812  11.329 -0.2088  0.1768 -0.2038
    7CGG   SI91  251  12.492  14.073  10.978  0.7296  0.3398 -0.1567
    7CGG   SI92  252  12.460  14.370  11.000 -0.0120  0.2241 -0.0154
    8CGG    AL1  253  11.571  16.216  11.197 -0.2409  0.0521 -0.6087
    8CGG    AL2  254  11.422  15.455  11.059  0.3883 -0.0135  0.3777
    8CGG    AL3  255  11.385  15.754  11.082 -0.4148  0.2134 -0.1180
    8CGG    AL4  256  11.623  15.920  11.178  0.0005 -0.2835  0.3233
    8CGG   AL41  257  11.680  15.314  11.124  0.0097 -1.0837 -0.2307
    8CGG   AL42  258  11.520  14.558  10.993 -0.0693  0.1359 -0.0288
    8CGG   AL43  259  11.491  14.854  11.007 -0.1714  0.2428 -0.2097
    8CGG   AL44  260  11.711  15.021  11.112 -0.1957  0.1961 -0.3220
    8CGG   AL81  261  11.792  14.424  11.068  0.1466  0.1295  0.4375
    8CGG   AL82  262  11.620  13.662  10.922  0.2515 -0.1233 -0.0083
    8CGG   AL83  263  11.600  13.956  10.951 -0.2850  0.4795 -0.0270
    8CGG   AL84  264  11.829  14.133  11.053  0.2349  0.3744 -0.0134
    8CGG    SI5  265  11.509  15.428  11.363 -0.3243  0.2284  0.1528
    8CGG    SI6  266  11.443  16.028  11.420  0.0016 -0.1377  0.0429
    8CGG    SI7  267  11.495  16.244  10.887 -0.2289 -0.2431 -0.2286
    8CGG    SI8  268  11.557  15.645  10.843 -0.3301 -0.0991 -0.4753
    8CGG    SI9  269  11.213  15.853  11.325  0.2397 -0.6571  0.5667
    8CGG   SI10  270  11.252  15.555  11.296 -0.3146 -0.1907 -0.2403
    8CGG   SI11  271  11.803  15.813  10.941 -0.1354 -0.1994 -0.1046
    8CGG   SI12  272  11.753  16.115  10.957 -0.5742  0.4477 -0.2278
    8CGG   SI45  273  11.614  14.536  11.305 -0.1426  0.0555  0.4177
    8CGG   SI46  274  11.542  15.129  11.345  0.1527 -0.1542  0.1521
    8CGG   SI47  275  11.592  15.342  10.822  0.0249  0.1461 -0.0006
    8CGG   SI48  276  11.663  14.745  10.772 -0.3935  0.0147  0.2368
    8CGG   SI49  277  11.306  14.945  11.256  0.0690  0.0561 -0.2830
    8CGG   SI50  278  11.355  14.659  11.230  0.0193 -0.0115 -0.2696
    8CGG   SI51  279  11.892  14.923  10.870 -0.0281  0.0511 -0.2795
    8CGG   SI52  280  11.853  15.212  10.884  0.2992 -0.1790  0.1966
    8CGG   SI85  281  11.713  13.634  11.234 -0.1572  0.3382  0.5377
    8CGG   SI86  282  11.649  14.239  11.289 -0.2834 -0.2824 -0.1481
    8CGG   SI87  283  11.703  14.452  10.755  0.1946 -0.4317 -0.5857
    8CGG   SI88  284  11.771  13.855  10.706 -0.2091  0.0068 -0.1381
    8CGG   SI89  285  11.414  14.058  11.179 -0.1227  0.0674 -0.4411
    8CGG   SI90  286  11.453  13.766  11.170 -0.5164 -0.4558 -0.1502
    8CGG   SI91  287  12.010  14.029  10.813  0.5307 -0.3720 -0.1043
    8CGG   SI92  288  11.964  14.326  10.829 -0.0928  0.0526  0.0779
    9CGG    AL1  289  11.089  16.187  11.028 -0.2660  0.3042 -0.6028
    9CGG    AL2  290  10.927  15.402  10.904 -0.0121 -0.0263  0.1746
    9CGG    AL3  291  10.897  15.707  10.923  0.0813 -0.1496  0.1193
    9CGG    AL4  292  11.126  15.879  11.014  0.1347  0.0189  0.1099
    9CGG   AL41  293  11.198  15.269  10.969  0.0322 -0.2125 -0.0840
    9CGG   AL42  294  11.041  14.508  10.825  0.3162 -0.1737 -0.0922
    9CGG   AL43  295  11.012  14.801  10.855  0.3118 -0.0626  0.1445
    9CGG   AL44  296  11.227  14.981  10.947 -0.5019  0.0623  0.1451
    9CGG   AL81  297  11.300  14.381  10.890  0.0540 -0.1466  0.1092
    9CGG   AL82  298  11.140  13.622  10.751  0.3464 -0.1162 -0.0373
    9CGG   AL83  299  11.109  13.923  10.783 -0.1338 -0.5365  0.3366
    9CGG   AL84  300  11.345  14.087  10.871  0.0483 -0.0060  0.1956
    9CGG    SI5  301  11.021  15.385  11.213 -0.0144  0.3942 -0.0124
    9CGG    SI6  302  10.962  15.994  11.248 -0.0995  0.1569  0.0726
    9CGG    SI7  303  11.000  16.200  10.717 -0.0625 -0.2727  0.2405
    9CGG    SI8  304  11.071  15.596  10.683 -0.3443  0.1284  0.2761
    9CGG    SI9  305  10.720  15.821  11.164 -0.2235  0.3631 -0.0171
    9CGG   SI10  306  10.765  15.518  11.150 -0.0119  0.0774  0.1277
    9CGG   SI11  307  11.303  15.780  10.768 -0.2265  0.3987 -0.4840
    9CGG   SI12  308  11.263  16.068  10.796 -0.2881 -0.0441 -0.0941
    9CGG   SI45  309  11.138  14.490  11.137  0.1207 -0.1867  0.0056
    9CGG   SI46  310  11.053  15.088  11.188 -0.4681  0.0269 -0.0752
    9CGG   SI47  311  11.106  15.300  10.665  0.3795 -0.0183  0.2437
    9CGG   SI48  312  11.175  14.703  10.604 -0.1842  0.1321 -0.0727
    9CGG   SI49  313  10.830  14.918  11.089 -0.4357  0.1041  0.4909
    9CGG   SI50  314  10.873  14.621  11.075 -0.1829  0.3951 -0.2725
    9CGG   SI51  315  11.411  14.879  10.699 -0.1619 -0.1159 -0.2039
    9CGG   SI52  316  11.373  15.170  10.726 -0.0600  0.1283 -0.1671
    9CGG   SI85  317  11.235  13.597  11.058  0.2266 -0.3208  0.1853
    9CGG   SI86  318  11.164  14.198  11.115 -0.3102 -0.4620  0.5024
    9CGG   SI87  319  11.214  14.414  10.586  0.0783 -0.1302  0.3664
    9CGG   SI88  320  11.280  13.811  10.537  0.0159 -0.0695  0.4240
    9CGG   SI89  321  10.928  14.026  11.015 -0.2835 -0.5634  0.0397
    9CGG   SI90  322  10.970  13.731  10.994  0.5140 -0.0705  0.0060
    9CGG   SI91  323  11.519  13.983  10.633  0.0688  0.0573 -0.0994
    9CGG   SI92  324  11.476  14.285  10.654 -0.1955  0.0014 -0.1184
   10CGG    AL1  325  10.599  16.117  10.867  0.1357 -0.1629 -0.4192
   10CGG    AL2  326  10.439  15.361  10.740 -0.2280 -0.2011 -0.0205
   10CGG    AL3  327  10.415  15.657  10.772 -0.0344  0.0956  0.1732
   10CGG    AL4  328  10.637  15.831  10.853 -0.0883  0.0366  0.1970
   10CGG   AL41  329  10.703  15.233  10.802 -0.2008  0.1743 -0.4107
   10CGG   AL42  330  10.539  14.462  10.663 -0.1281  0.2875 -0.4585
   10CGG   AL43  331  10.520  14.764  10.689  0.1929 -0.1520  0.0075
   10CGG   AL44  332  10.746  14.934  10.775 -0.4351  0.3379  0.2017
   10CGG   AL81  333  10.813  14.343  10.732 -0.0250 -0.1545  0.0260
   10CGG   AL82  334  10.649  13.580  10.586  0.1497 -0.5306  0.1641
   10CGG   AL83  335  10.616  13.879  10.618 -0.3024  0.1824 -0.0717
   10CGG   AL84  336  10.842  14.046  10.710 -0.1526  0.1304  0.3909
   10CGG    SI5  337  10.537  15.342  11.046 -0.0444 -0.0734  0.1081
   10CGG    SI6  338  10.460  15.932  11.094 -0.1806 -0.0769  0.0710
   10CGG    SI7  339  10.517  16.145  10.563  0.1874 -0.5264  0.0743
   10CGG    SI8  340  10.577  15.551  10.523 -0.6276  0.1613 -0.1839
   10CGG    SI9  341  10.224  15.751  11.013 -0.1763 -0.1864 -0.2989
   10CGG   SI10  342  10.276  15.469  10.988  0.5777  0.5546  0.0591
   10CGG   SI11  343  10.817  15.726  10.614  0.0161  0.2958 -0.7114
   10CGG   SI12  344  10.775  16.014  10.622 -0.0197  0.0477  0.1785
   10CGG   SI45  345  10.643  14.447  10.974  0.1141  0.3859  0.3326
   10CGG   SI46  346  10.573  15.042  11.020  0.2838 -0.2257  0.0992
   10CGG   SI47  347  10.615  15.256  10.492 -0.0684 -0.1724 -0.2550
   10CGG   SI48  348  10.688  14.657  10.450  0.1714 -0.3578 -0.1736
   10CGG   SI49  349  10.339  14.867  10.927 -0.5577 -0.3514  0.1323
   10CGG   SI50  350  10.378  14.572  10.907 -0.1076  0.4139 -0.1017
   10CGG   SI51  351  10.920  14.834  10.538  0.3072  0.0712  0.1811
   10CGG   SI52  352  10.876  15.128  10.555 -0.1401  0.0785  0.4580
   10CGG   SI85  353  10.742  13.554  10.888 -0.1077 -0.6785 -0.0003
   10CGG   SI86  354  10.672  14.152  10.951  0.0276  0.2364  0.1339
   10CGG   SI87  355  10.727  14.367  10.424  0.5157  0.2547 -0.0268
   10CGG   SI88  356  10.789  13.773  10.372  0.3541 -0.2023  0.2323
   10CGG   SI89  357  10.436  13.971  10.856 -0.4017 -0.1212 -0.2027
   10CGG   SI90  358  10.474  13.682  10.830  0.1273 -0.2374  0.2923
   10CGG   SI91  359  11.024  13.946  10.468  0.0887  0.2675 -0.1975
   10CGG   SI92  360  10.990  14.236  10.493 -0.2257 -0.2380  0.4309
   11CGG    AL1  361  10.115  16.083  10.721 -0.2446  0.0581 -0.0870
   11CGG    AL2  362   9.951  15.313  10.588  0.0818 -0.3897  0.0585
   11CGG    AL3  363   9.912  15.616  10.611 -0.7036  0.3495 -0.2852
   11CGG    AL4  364  10.147  15.790  10.703 -0.2990  0.0491  0.1575
   11CGG   AL41  365  10.221  15.177  10.646 -0.1344 -0.0783 -0.0875
   11CGG   AL42  366  10.052  14.433  10.503 -0.1990  0.1942 -0.0583
   11CGG   AL43  367  10.022  14.723  10.527 -0.4563 -0.0510  0.0213
   11CGG   AL44  368  10.250  14.893  10.619 -0.5505  0.2958 -0.3642
   11CGG   AL81  369  10.315  14.291  10.563  0.1341 -0.1863  0.6055
   11CGG   AL82  370  10.161  13.536  10.425 -0.0505  0.2945 -0.3786
   11CGG   AL83  371  10.129  13.833  10.449  0.0621 -0.0566  0.4750
   11CGG   AL84  372  10.358  13.998  10.552 -0.3135 -0.0232  0.3971
   11CGG    SI5  373  10.050  15.300  10.895  0.4412 -0.1135 -0.3210
   11CGG    SI6  374   9.969  15.896  10.940 -0.5328  0.1767  0.0623
   11CGG    SI7  375  10.027  16.115  10.413  0.0423  0.2076  0.3712
   11CGG    SI8  376  10.091  15.502  10.367 -0.3166 -0.3677 -0.2039
   11CGG    SI9  377   9.737  15.718  10.853 -0.0052 -0.1044 -0.0399
   11CGG   SI10  378   9.785  15.421  10.831 -0.0374 -0.4069  0.3098
   11CGG   SI11  379  10.325  15.682  10.464  0.5332 -0.1395 -0.1158
   11CGG   SI12  380  10.289  15.978  10.475  0.4005 -0.0890  0.3252
   11CGG   SI45  381  10.151  14.404  10.811  0.1083 -0.1590 -0.1122
   11CGG   SI46  382  10.084  14.998  10.864 -0.1197 -0.1720  0.0107
   11CGG   SI47  383  10.125  15.216  10.341 -0.5094  1.0000  0.0827
   11CGG   SI48  384  10.193  14.620  10.282 -0.0661 -0.1048 -0.0645
   11CGG   SI49  385   9.846  14.825  10.767  0.3304 -0.8021  0.2719
   11CGG   SI50  386   9.890  14.536  10.745 -0.0865 -0.0296 -0.7815
   11CGG   SI51  387  10.432  14.793  10.380  0.0009 -0.4123  0.4708
   11CGG   SI52  388  10.387  15.082  10.402  0.2835  0.3484  0.2223
   11CGG   SI85  389  10.251  13.513  10.734 -0.2336  0.1543  0.0801
   11CGG   SI86  390  10.177  14.101  10.789 -0.2165  0.2707  0.0656
   11CGG   SI87  391  10.230  14.327  10.256  0.2369 -0.0352 -0.0770
   11CGG   SI88  392  10.302  13.730  10.208 -0.2790  0.4944  0.1398
   11CGG   SI89  393   9.943  13.930  10.689  0.0669  0.5107  0.4613
   11CGG   SI90  394   9.990  13.642  10.666  0.0521  0.0331 -0.0682
   11CGG   SI91  395  10.533  13.906  10.307 -0.0541  0.3270 -0.0994
   11CGG   SI92  396  10.499  14.196  10.328  0.4922  0.2965  0.2198
   12CGG    AL1  397   9.629  16.041  10.561 -0.0135  0.0471  0.1761
   12CGG    AL2  398   9.461  15.271  10.420 -0.0380 -0.2189  0.0647
   12CGG    AL3  399   9.435  15.575  10.443 -0.5129 -0.1610 -0.0502
   12CGG    AL4  400   9.663  15.747  10.540 -0.0834  0.5868  0.1933
   12CGG   AL41  401   9.728  15.141  10.487  0.3326 -0.0237 -0.1883
   12CGG   AL42  402   9.559  14.386  10.336  0.2878  0.3103 -0.4318
   12CGG   AL43  403   9.536  14.673  10.354 -0.0526  0.1678  0.0771
   12CGG   AL44  404   9.753  14.852  10.456 -0.3784  0.0538 -0.0797
   12CGG   AL81  405   9.816  14.259  10.406  0.2250  0.1998 -0.0308
   12CGG   AL82  406   9.665  13.493  10.262  0.1204  0.1994 -0.5613
   12CGG   AL83  407   9.632  13.784  10.287 -0.0300 -0.0552 -0.5838
   12CGG   AL84  408   9.859  13.958  10.382  0.2279 -0.3635 -0.3683
   12CGG    SI5  409   9.549  15.248  10.725 -0.0978 -0.6129 -0.2341
   12CGG    SI6  410   9.484  15.850  10.778 -0.1986  0.0580 -0.2377
   12CGG    SI7  411   9.530  16.057  10.260 -0.0340  0.0261  0.0473
   12CGG    SI8  412   9.599  15.463  10.195  0.0243 -0.3687  0.0601
   12CGG    SI9  413   9.253  15.679  10.680  0.3292  0.1832  0.4857
   12CGG   SI10  414   9.289  15.386  10.660  0.2338  0.1168  0.2513
   12CGG   SI11  415   9.835  15.638  10.298 -0.4277 -0.3756  0.4853
   12CGG   SI12  416   9.792  15.932  10.311 -0.2715  0.1057 -0.3511
   12CGG   SI45  417   9.646  14.358  10.654  0.0920  0.2907  0.2920
   12CGG   SI46  418   9.586  14.951  10.704 -0.2321 -0.0232 -0.0498
   12CGG   SI47  419   9.628  15.172  10.178 -0.2717  0.4099 -0.0265
   12CGG   SI48  420   9.706  14.569  10.112  0.1327 -0.2537  0.2313
   12CGG   SI49  421   9.358  14.780  10.593  0.1078 -0.0784  0.1215
   12CGG   SI50  422   9.390  14.486  10.578  0.1983 -0.3376  0.5103
   12CGG   SI51  423   9.931  14.752  10.218  0.3342  0.1833 -0.4341
   12CGG   SI52  424   9.889  15.043  10.238 -0.0417 -0.2828  0.1967
   12CGG   SI85  425   9.762  13.451  10.579  0.0490 -0.6584  0.1410
   12CGG   SI86  426   9.682  14.067  10.624  0.0382  0.0322 -0.0586
   12CGG   SI87  427   9.734  14.280  10.094 -0.1655  0.8341 -0.1827
   12CGG   SI88  428   9.807  13.682  10.043  0.0656 -0.0664 -0.2430
   12CGG   SI89  429   9.454  13.893  10.519 -0.2395  0.1519  0.0851
   12CGG   SI90  430   9.497  13.596  10.511  0.2086 -0.0530  0.3396
   12CGG   SI91  431  10.040  13.857  10.143  0.0413  0.2448 -0.4889
   12CGG   SI92  432   9.991  14.150  10.161  0.1400 -0.2287  0.1101
   13CGG    AL1  433   9.132  16.003  10.384 -0.1498 -0.0790 -0.3588
   13CGG    AL2  434   8.977  15.237  10.244  0.2385 -0.1182  0.5043
   13CGG    AL3  435   8.946  15.542  10.273 -0.2017 -0.0363  0.1916
   13CGG    AL4  436   9.174  15.707  10.375 -0.2319 -0.1108  0.3958
   13CGG   AL41  437   9.236  15.103  10.314  0.0970  0.0643  0.5610
   13CGG   AL42  438   9.066  14.335  10.170 -0.4241  0.1884 -0.1775
   13CGG   AL43  439   9.034  14.637  10.204  0.2639  0.0583 -0.0440
   13CGG   AL44  440   9.271  14.808  10.292  0.3646 -0.0512 -0.0225
   13CGG   AL81  441   9.335  14.209  10.235 -0.1618  0.1793  0.2783
   13CGG   AL82  442   9.182  13.439  10.095  0.1977 -0.2321 -0.3578
   13CGG   AL83  443   9.151  13.748  10.125 -0.0849  0.2826  0.2796
   13CGG   AL84  444   9.373  13.917  10.218 -0.1001 -0.0577  0.7281
   13CGG    SI5  445   9.065  15.219  10.550 -0.1892  0.2959 -0.0213
   13CGG    SI6  446   8.995  15.816  10.607 -0.0519  0.2737 -0.2154
   13CGG    SI7  447   9.060  16.026  10.072  0.1209  0.1539  0.1480
   13CGG    SI8  448   9.116  15.431  10.030 -0.2165 -0.2757  0.0814
   13CGG    SI9  449   8.766  15.636  10.514  0.1806  0.0976  0.3052
   13CGG   SI10  450   8.809  15.345  10.489 -0.5414  0.7457  0.2587
   13CGG   SI11  451   9.344  15.596  10.134 -0.0512 -0.5454 -0.5313
   13CGG   SI12  452   9.308  15.895  10.153 -0.5951  0.6655  0.0792
   13CGG   SI45  453   9.166  14.316  10.482 -0.3526 -0.0957 -0.4099
   13CGG   SI46  454   9.102  14.918  10.538 -0.0215 -0.0346  0.4504
   13CGG   SI47  455   9.152  15.134  10.004 -0.2293  0.3217 -0.0852
   13CGG   SI48  456   9.217  14.530   9.955 -0.0629  0.0911 -0.7137
   13CGG   SI49  457   8.867  14.743  10.446 -0.2922  0.0681  0.1561
   13CGG   SI50  458   8.906  14.446  10.424 -0.2756  0.0695 -0.2284
   13CGG   SI51  459   9.445  14.707  10.046  0.3560 -0.0052 -0.0079
   13CGG   SI52  460   9.406  15.000  10.063 -0.3685 -0.1022 -0.5728
   13CGG   SI85  461   9.280  13.423  10.399  0.0014  0.0026  0.1790
   13CGG   SI86  462   9.201  14.025  10.463 -0.2255  0.1631  0.6559
   13CGG   SI87  463   9.249  14.239   9.931  0.3224  0.5995  0.3997
   13CGG   SI88  464   9.325  13.639   9.884  0.6861 -0.4831 -0.4380
   13CGG   SI89  465   8.971  13.842  10.363 -0.4420 -0.4577 -0.1113
   13CGG   SI90  466   9.014  13.551  10.342 -0.4943 -0.0307  0.2493
   13CGG   SI91  467   9.551  13.815   9.975  0.0399 -0.1553  0.2590
   13CGG   SI92  468   9.510  14.104  10.000 -0.1816 -0.2226  0.1802
   14CGG    AL1  469   8.649  15.955  10.221  0.5825 -0.0590  0.0421
   14CGG    AL2  470   8.487  15.188  10.086  0.0367 -0.1478 -0.3326
   14CGG    AL3  471   8.451  15.487  10.112 -0.1984 -0.0167 -0.1665
   14CGG    AL4  472   8.679  15.651  10.201 -0.1641 -0.1694  0.2196
   14CGG   AL41  473   8.743  15.059  10.150 -0.2777 -0.1454  0.5416
   14CGG   AL42  474   8.578  14.289  10.013 -0.0799  0.3033  0.1724
   14CGG   AL43  475   8.552  14.596  10.034  0.2461  0.0540 -0.6236
   14CGG   AL44  476   8.780  14.769  10.130 -0.3091 -0.1187  0.1402
   14CGG   AL81  477   8.845  14.155  10.079 -0.3302 -0.0278  0.9048
   14CGG   AL82  478   8.685  13.403   9.942  0.5933 -0.1177  0.2561
   14CGG   AL83  479   8.654  13.693   9.963  0.1099 -0.0811 -0.1125
   14CGG   AL84  480   8.882  13.866  10.057  0.1405 -0.3224  0.3699
   14CGG    SI5  481   8.574  15.165  10.389  0.1159  0.0659 -0.3249
   14CGG    SI6  482   8.509  15.765  10.444 -0.3531 -0.1598 -0.0526
   14CGG    SI7  483   8.562  15.989   9.921  0.5708  0.0455  0.1738
   14CGG    SI8  484   8.621  15.384   9.871 -0.0258 -0.3856  0.4384
   14CGG    SI9  485   8.277  15.592  10.351 -0.1321 -0.1204 -0.2546
   14CGG   SI10  486   8.312  15.294  10.328  0.2490 -0.3644  0.2770
   14CGG   SI11  487   8.864  15.558   9.961 -0.0415 -0.0862 -0.0235
   14CGG   SI12  488   8.819  15.855   9.979 -0.1566  0.2957  0.2453
   14CGG   SI45  489   8.676  14.272  10.320 -0.0894  0.2261 -0.4226
   14CGG   SI46  490   8.607  14.869  10.375 -0.0481 -0.0499  0.2683
   14CGG   SI47  491   8.654  15.091   9.842 -0.0413 -0.2048  0.0055
   14CGG   SI48  492   8.719  14.480   9.793  0.0242 -0.3305 -0.3585
   14CGG   SI49  493   8.368  14.697  10.284 -0.5110  0.1796 -0.0692
   14CGG   SI50  494   8.416  14.408  10.260  0.1295  0.6277  0.0827
   14CGG   SI51  495   8.954  14.652   9.896  0.4971 -0.1268 -0.0225
   14CGG   SI52  496   8.915  14.957   9.908 -0.1786  0.3215 -0.1093
   14CGG   SI85  497   8.783  13.382  10.245 -0.3760  0.0708 -0.2032
   14CGG   SI86  498   8.716  13.974  10.302  0.0473 -0.4905  0.5222
   14CGG   SI87  499   8.750  14.185   9.768 -0.2315 -0.3994 -0.3101
   14CGG   SI88  500   8.825  13.591   9.720  0.1066  0.4061 -0.0628
   14CGG   SI89  501   8.479  13.796  10.209  0.0020 -0.2795  0.7643
   14CGG   SI90  502   8.515  13.500  10.185  0.0215 -0.1282 -0.0029
   14CGG   SI91  503   9.064  13.764   9.815 -0.0036 -0.1272  0.0182
   14CGG   SI92  504   9.015  14.061   9.829  0.2728  0.3111 -0.0088
   15CGG    AL1  505   8.150  15.912  10.068  0.2685 -0.1153  0.0272
   15CGG    AL2  506   7.992  15.143   9.931  0.1704  0.2071  0.2107
   15CGG    AL3  507   7.964  15.448   9.946  0.3526 -0.0226  0.0416
   15CGG    AL4  508   8.188  15.623  10.042  0.1700  0.0635  0.3697
   15CGG   AL41  509   8.256  15.021   9.990 -0.4484 -0.0586 -0.2865
   15CGG   AL42  510   8.092  14.258   9.856  0.0545 -0.0112 -0.1772
   15CGG   AL43  511   8.071  14.558   9.882 -0.2393  0.1043  0.0180
   15CGG   AL44  512   8.298  14.731   9.977  0.2881 -0.1006  0.4982
   15CGG   AL81  513   8.347  14.124   9.927 -0.0390  0.5146  0.1189
   15CGG   AL82  514   8.194  13.360   9.780  0.4182  0.1901  0.0050
   15CGG   AL83  515   8.165  13.654   9.812 -0.0103 -0.1555  0.5003
   15CGG   AL84  516   8.393  13.837   9.901 -0.0042 -0.1198  0.4997
   15CGG    SI5  517   8.086  15.129  10.236 -0.1808 -0.0481 -0.4784
   15CGG    SI6  518   8.014  15.725  10.292  0.1068  0.1617  0.6296
   15CGG    SI7  519   8.066  15.933   9.761 -0.2464  0.4483 -0.1680
   15CGG    SI8  520   8.134  15.338   9.706  0.3800  0.3319 -0.5312
   15CGG    SI9  521   7.787  15.551  10.187 -0.1413 -0.0326  0.1212
   15CGG   SI10  522   7.826  15.254  10.175  0.3092 -0.5164  0.0627
   15CGG   SI11  523   8.364  15.510   9.803  0.1409 -0.3388  0.0756
   15CGG   SI12  524   8.328  15.813   9.825  0.1917 -0.1062 -0.0428
   15CGG   SI45  525   8.189  14.230  10.174  0.2435 -0.1657  0.4241
   15CGG   SI46  526   8.121  14.834  10.219  0.0697 -0.5885 -0.1822
   15CGG   SI47  527   8.170  15.046   9.682  0.0367 -0.0963  0.0267
   15CGG   SI48  528   8.230  14.449   9.632 -0.2726  0.4002  0.2255
   15CGG   SI49  529   7.891  14.659  10.126  0.1313  0.1339 -0.5655
   15CGG   SI50  530   7.931  14.369  10.100  0.2491 -0.2558  0.4209
   15CGG   SI51  531   8.470  14.622   9.725 -0.3944  0.0243  0.3038
   15CGG   SI52  532   8.429  14.918   9.748 -0.0982 -0.0070 -0.1938
   15CGG   SI85  533   8.292  13.341  10.085 -0.1682  0.2210  0.3718
   15CGG   SI86  534   8.220  13.930  10.151  0.0848  0.1752  0.3226
   15CGG   SI87  535   8.270  14.156   9.616 -0.0107  0.2580 -0.1529
   15CGG   SI88  536   8.334  13.546   9.566  0.1064 -0.1147  0.2861
   15CGG   SI89  537   7.989  13.753  10.045  0.1110  0.0796  0.6722
   15CGG   SI90  538   8.029  13.460  10.028  0.1470 -0.2361 -0.5854
   15CGG   SI91  539   8.558  13.732   9.660 -0.2816 -0.0878 -0.3623
   15CGG   SI92  540   8.531  14.023   9.689  0.3287  0.2563 -0.2253
   16CGG    AL1  541   7.665  15.877   9.896  0.6082  0.3425  0.1487
   16CGG    AL2  542   7.505  15.106   9.777  0.0041  0.4361  0.2272
   16CGG    AL3  543   7.470  15.409   9.793 -0.4752 -0.0124 -0.2572
   16CGG    AL4  544   7.704  15.570   9.883  0.1781  0.0869 -0.0309
   16CGG   AL41  545   7.764  14.976   9.839 -0.5228 -0.0112  0.0203
   16CGG   AL42  546   7.598  14.211   9.697 -0.3927 -0.1356  0.3882
   16CGG   AL43  547   7.575  14.513   9.717  0.2430 -0.2110  0.0533
   16CGG   AL44  548   7.809  14.680   9.819  0.4446 -0.0130 -0.0463
   16CGG   AL81  549   7.874  14.080   9.760  0.3782  0.2536  0.0638
   16CGG   AL82  550   7.712  13.317   9.613  0.1844 -0.0010  0.1306
   16CGG   AL83  551   7.684  13.610   9.634  0.4266 -0.2568  0.2840
   16CGG   AL84  552   7.909  13.780   9.732 -0.2577  0.3718  0.1331
   16CGG    SI5  553   7.595  15.082  10.077 -0.3586  0.0402 -0.0066
   16CGG    SI6  554   7.532  15.683  10.122  0.0667 -0.0577 -0.4011
   16CGG    SI7  555   7.581  15.882   9.585  0.0523  0.0028 -0.1586
   16CGG    SI8  556   7.641  15.294   9.552  0.0906  0.1991 -0.1831
   16CGG    SI9  557   7.302  15.507  10.042 -0.2159  0.0168 -0.1604
   16CGG   SI10  558   7.339  15.212  10.015  0.1297 -0.1504  0.1516
   16CGG   SI11  559   7.877  15.464   9.641  0.3123  0.0294  0.0318
   16CGG   SI12  560   7.839  15.757   9.658  0.1056  0.4717  0.0823
   16CGG   SI45  561   7.698  14.189  10.001  0.1355  0.2395 -0.0845
   16CGG   SI46  562   7.631  14.781  10.059  0.0463 -0.0132 -0.4162
   16CGG   SI47  563   7.677  15.005   9.532  0.2862 -0.0782  0.1010
   16CGG   SI48  564   7.743  14.401   9.475 -0.4832 -0.0341 -0.0492
   16CGG   SI49  565   7.395  14.605   9.962 -0.0950 -0.3059 -0.1662
   16CGG   SI50  566   7.435  14.316   9.935 -0.2439  0.0886 -0.0585
   16CGG   SI51  567   7.978  14.585   9.569  0.3982  0.3990 -0.3049
   16CGG   SI52  568   7.938  14.874   9.595  0.3280  0.2326  0.1122
   16CGG   SI85  569   7.799  13.277   9.919 -0.2781 -0.0741  0.0470
   16CGG   SI86  570   7.737  13.888   9.978 -0.1003 -0.8699 -0.1372
   16CGG   SI87  571   7.777  14.108   9.452 -0.1513 -0.4031  0.4594
   16CGG   SI88  572   7.853  13.508   9.388 -0.1142  0.0945  0.4799
   16CGG   SI89  573   7.503  13.713   9.882  0.1858  0.0372  0.4262
   16CGG   SI90  574   7.544  13.417   9.850 -0.5347  0.4761 -0.4764
   16CGG   SI91  575   8.080  13.680   9.492  0.2906  0.0715 -0.3750
   16CGG   SI92  576   8.040  13.970   9.511  0.1205 -0.1205  0.1487
   17CGG    AL1  577   7.183  15.824   9.736  0.4248 -0.2402  0.2211
   17CGG    AL2  578   7.020  15.059   9.616 -0.1489 -0.2792  0.2352
   17CGG    AL3  579   6.992  15.365   9.638  0.5509  0.3408  0.3081
   17CGG    AL4  580   7.216  15.530   9.732 -0.2995  0.3809  0.2599
   17CGG   AL41  581   7.276  14.936   9.670  0.0470  0.0282  0.0090
   17CGG   AL42  582   7.117  14.160   9.536  0.4932  0.0209 -0.2730
   17CGG   AL43  583   7.084  14.467   9.560  0.1524 -0.0961 -0.8110
   17CGG   AL44  584   7.316  14.639   9.650  0.4559  0.3071 -0.6796
   17CGG   AL81  585   7.383  14.034   9.598  0.1271  0.0905  0.0662
   17CGG   AL82  586   7.229  13.272   9.445  0.3384 -0.6952 -0.1711
   17CGG   AL83  587   7.186  13.565   9.479  0.0680 -0.4792  0.2142
   17CGG   AL84  588   7.418  13.737   9.581 -0.0938 -0.0735 -0.2201
   17CGG    SI5  589   7.111  15.045   9.923 -0.2932  0.1649  0.3109
   17CGG    SI6  590   7.048  15.645   9.970  0.1124 -0.6036 -0.0542
   17CGG    SI7  591   7.094  15.851   9.432 -0.0456 -0.2389  0.5562
   17CGG    SI8  592   7.146  15.252   9.393 -0.1674 -0.0596  0.2201
   17CGG    SI9  593   6.810  15.473   9.882 -0.1605  0.2816  0.3512
   17CGG   SI10  594   6.853  15.173   9.856  0.0767  0.1088 -0.1276
   17CGG   SI11  595   7.383  15.421   9.482  0.0439  0.0544  0.0534
   17CGG   SI12  596   7.352  15.716   9.497  0.1756 -0.1083 -0.0672
   17CGG   SI45  597   7.205  14.139   9.842 -0.1832 -0.1471  0.5035
   17CGG   SI46  598   7.146  14.754   9.895 -0.4229  0.2716 -0.0187
   17CGG   SI47  599   7.189  14.961   9.368 -0.0381  0.1401 -0.0734
   17CGG   SI48  600   7.255  14.354   9.319  0.0907 -0.3238 -0.3895
   17CGG   SI49  601   6.912  14.571   9.807  0.2977  0.0946  0.1320
   17CGG   SI50  602   6.948  14.275   9.778 -0.2239 -0.0224 -0.3822
   17CGG   SI51  603   7.487  14.536   9.408  0.0650 -0.3843  0.3415
   17CGG   SI52  604   7.454  14.836   9.435  0.1054 -0.0599 -0.2359
   17CGG   SI85  605   7.330  13.244   9.755 -0.0202 -0.0780  0.0549
   17CGG   SI86  606   7.247  13.842   9.826  0.0497  0.2739 -0.0943
   17CGG   SI87  607   7.297  14.060   9.290 -0.4708  0.1305  0.0515
   17CGG   SI88  608   7.356  13.477   9.231 -0.0708 -0.0494 -0.1807
   17CGG   SI89  609   7.016  13.661   9.720 -0.2704 -0.1332 -0.2190
   17CGG   SI90  610   7.060  13.368   9.698  0.0023  0.3850 -0.2926
   17CGG   SI91  611   7.596  13.640   9.330  0.0591 -0.0175 -0.4390
   17CGG   SI92  612   7.556  13.929   9.363  0.0027 -0.1820  0.0645
   18CGG    AL1  613   6.684  15.784   9.584  0.6202 -0.2743 -0.4583
   18CGG    AL2  614   6.520  15.018   9.452 -0.5450 -0.0405 -0.3239
   18CGG    AL3  615   6.490  15.316   9.480  0.3047 -0.0735 -0.1639
   18CGG    AL4  616   6.725  15.491   9.573  0.1496  0.1308  0.0064
   18CGG   AL41  617   6.789  14.892   9.511  0.1174 -0.3086  0.3184
   18CGG   AL42  618   6.631  14.124   9.378 -0.0331  0.1497  0.1821
   18CGG   AL43  619   6.597  14.414   9.405  0.6942  0.1414  0.1329
   18CGG   AL44  620   6.820  14.595   9.495  0.1348 -0.2631  0.0619
   18CGG   AL81  621   6.892  13.988   9.432  0.0697 -0.0953 -0.1680
   18CGG   AL82  622   6.733  13.224   9.283 -0.0221 -0.2550  0.1711
   18CGG   AL83  623   6.696  13.521   9.313 -0.2577  0.6189 -1.0498
   18CGG   AL84  624   6.927  13.692   9.409 -0.1859 -0.0110 -0.2337
   18CGG    SI5  625   6.622  14.993   9.759  0.2887  0.2234  0.5504
   18CGG    SI6  626   6.554  15.604   9.805  0.1981  0.2161 -0.0465
   18CGG    SI7  627   6.595  15.802   9.279  0.6282 -0.2775 -0.0208
   18CGG    SI8  628   6.653  15.209   9.232  0.3057 -0.0055 -0.5408
   18CGG    SI9  629   6.320  15.413   9.729  0.2059  0.0692 -0.0485
   18CGG   SI10  630   6.358  15.127   9.700  0.3041  0.1476 -0.0716
   18CGG   SI11  631   6.891  15.384   9.328  0.3921 -0.4800  0.2558
   18CGG   SI12  632   6.855  15.674   9.342  0.7160  0.0479  0.1667
   18CGG   SI45  633   6.726  14.092   9.689 -0.0979 -0.0243  0.1895
   18CGG   SI46  634   6.655  14.703   9.740  0.0421  0.9563 -0.0873
   18CGG   SI47  635   6.693  14.911   9.207  0.0560 -0.3251 -0.0774
   18CGG   SI48  636   6.766  14.319   9.160 -0.5036 -0.1014  0.3789
   18CGG   SI49  637   6.419  14.515   9.645  0.0230 -0.3977  0.0985
   18CGG   SI50  638   6.466  14.221   9.627 -0.0571 -0.0595  0.2883
   18CGG   SI51  639   7.000  14.491   9.254  0.4152 -0.2714 -0.4408
   18CGG   SI52  640   6.957  14.785   9.269  0.0674 -0.1921 -0.5841
   18CGG   SI85  641   6.832  13.203   9.586  0.2367  0.2993 -0.3001
   18CGG   SI86  642   6.761  13.793   9.658  0.2877 -0.5742  0.3885
   18CGG   SI87  643   6.804  14.023   9.126  0.0705 -0.1222 -0.0546
   18CGG   SI88  644   6.867  13.427   9.068  0.3228  0.1882  0.5234
   18CGG   SI89  645   6.528  13.624   9.556 -0.1303 -0.0162 -0.1301
   18CGG   SI90  646   6.573  13.329   9.535 -0.1865  0.3750 -0.3308
   18CGG   SI91  647   7.100  13.599   9.166  0.0213  0.5928  0.1539
   18CGG   SI92  648   7.065  13.888   9.194  0.1331  0.1331  0.2932
   19CGG    AL1  649   6.194  15.743   9.449  0.1348 -0.1832 -0.1788
   19CGG    AL2  650   6.029  14.981   9.297  0.1576 -0.0238 -0.3021
   19CGG    AL3  651   5.998  15.274   9.327  0.2471 -0.1822  0.1481
   19CGG    AL4  652   6.221  15.442   9.416  0.2583 -0.2755 -0.1759
   19CGG   AL41  653   6.300  14.843   9.361  0.2390 -0.0614 -0.4088
   19CGG   AL42  654   6.139  14.084   9.220  0.3205 -0.0399  0.1027
   19CGG   AL43  655   6.104  14.381   9.256  0.0252  0.4441  0.1443
   19CGG   AL44  656   6.335  14.555   9.333 -0.1088  0.1295  0.0950
   19CGG   AL81  657   6.403  13.949   9.281 -0.0266  0.0991  0.6231
   19CGG   AL82  658   6.252  13.191   9.128  0.2816  0.6899  0.2059
   19CGG   AL83  659   6.209  13.485   9.155 -0.1151  0.5018  0.0018
   19CGG   AL84  660   6.437  13.659   9.250 -0.0001  0.2381 -0.0495
   19CGG    SI5  661   6.128  14.954   9.606 -0.4922 -0.0225 -0.2658
   19CGG    SI6  662   6.063  15.542   9.672 -0.4536 -0.3252 -0.1183
   19CGG    SI7  663   6.104  15.768   9.134 -0.2418  0.1181  0.1834
   19CGG    SI8  664   6.161  15.173   9.079  0.1673 -0.0317  0.3510
   19CGG    SI9  665   5.824  15.360   9.580 -0.1590  0.1828  0.0518
   19CGG   SI10  666   5.865  15.076   9.551 -0.1458 -0.1808  0.2993
   19CGG   SI11  667   6.400  15.346   9.171 -0.0729 -0.6187  0.1048
   19CGG   SI12  668   6.358  15.629   9.197  0.4430 -0.1682 -0.4961
   19CGG   SI45  669   6.233  14.051   9.526  0.3983 -0.0505 -0.0214
   19CGG   SI46  670   6.163  14.656   9.587  0.1768 -0.0598 -0.3907
   19CGG   SI47  671   6.206  14.879   9.055  0.1543 -0.1174 -0.5400
   19CGG   SI48  672   6.269  14.277   9.010 -0.1481  0.1796  0.2702
   19CGG   SI49  673   5.928  14.475   9.501 -0.1056 -0.1076  0.2416
   19CGG   SI50  674   5.979  14.183   9.471  0.9463  0.1740  0.3317
   19CGG   SI51  675   6.502  14.449   9.097 -0.3256 -0.0736  0.0880
   19CGG   SI52  676   6.468  14.746   9.112 -0.3888 -0.0013  0.0015
   19CGG   SI85  677   6.346  13.158   9.432 -0.4988  0.1453 -0.4146
   19CGG   SI86  678   6.265  13.755   9.499  0.0678 -0.1256 -0.1416
   19CGG   SI87  679   6.310  13.983   8.977 -0.7155 -0.0831  0.3991
   19CGG   SI88  680   6.375  13.389   8.913 -0.1452  0.3840  0.2333
   19CGG   SI89  681   6.032  13.582   9.397 -0.1394 -0.1618  0.2022
   19CGG   SI90  682   6.086  13.290   9.378  0.0639  0.0094  0.0320
   19CGG   SI91  683   6.609  13.561   9.008  0.1024 -0.3985  0.3245
   19CGG   SI92  684   6.572  13.856   9.033 -0.2182 -0.2843  0.3583
   20CGG    AL1  685   5.703  15.686   9.311  0.0376  0.3824  0.1761
   20CGG    AL2  686   5.544  14.924   9.155  0.0960  0.0672  0.0160
   20CGG    AL3  687   5.497  15.221   9.182  0.1393 -0.1516 -0.2283
   20CGG    AL4  688   5.731  15.391   9.275 -0.3321  0.2306  0.0740
   20CGG   AL41  689   5.802  14.803   9.208  0.4077  0.1048  0.0076
   20CGG   AL42  690   5.652  14.041   9.066  0.1229  0.1639 -0.2564
   20CGG   AL43  691   5.608  14.341   9.111  0.4217 -0.4399  0.5972
   20CGG   AL44  692   5.847  14.511   9.191 -0.4053 -0.0525  0.0242
   20CGG   AL81  693   5.910  13.911   9.116  0.0848  0.1535  0.0450
   20CGG   AL82  694   5.761  13.150   8.967  0.0763  0.1970  0.0745
   20CGG   AL83  695   5.712  13.439   8.995 -0.4871  0.5686 -0.3581
   20CGG   AL84  696   5.944  13.609   9.088 -0.2216 -0.0171 -0.2801
   20CGG    SI5  697   5.638  14.897   9.460  0.1404  0.2117  0.1188
   20CGG    SI6  698   5.565  15.492   9.526 -0.2181  0.0303  0.3713
   20CGG    SI7  699   5.592  15.721   9.016 -0.1852  0.5267  0.0313
   20CGG    SI8  700   5.653  15.125   8.931 -0.1731 -0.0217  0.0818
   20CGG    SI9  701   5.342  15.312   9.445 -0.1941  0.3312 -0.6173
   20CGG   SI10  702   5.376  15.025   9.408  0.0288 -0.2880 -0.4367
   20CGG   SI11  703   5.898  15.300   9.021  0.3929 -0.2676  0.1502
   20CGG   SI12  704   5.861  15.599   9.045  0.4187 -0.1642 -0.3262
   20CGG   SI45  705   5.747  14.012   9.370  0.4677 -0.2668 -0.4081
   20CGG   SI46  706   5.675  14.612   9.430  0.3010  0.0128 -0.1278
   20CGG   SI47  707   5.714  14.835   8.905 -0.4053 -0.0773 -0.3413
   20CGG   SI48  708   5.780  14.240   8.854 -0.6009 -0.0918  0.0739
   20CGG   SI49  709   5.442  14.427   9.367  0.3322 -0.4985  0.6987
   20CGG   SI50  710   5.485  14.141   9.322 -0.1001  0.6812 -0.6054
   20CGG   SI51  711   6.014  14.411   8.946 -0.0163 -0.4331  0.1778
   20CGG   SI52  712   5.976  14.705   8.966  0.2387  0.2432 -0.2025
   20CGG   SI85  713   5.855  13.117   9.271 -0.1666 -0.1943 -0.1450
   20CGG   SI86  714   5.778  13.713   9.332  0.0025 -0.3954  0.2434
   20CGG   SI87  715   5.818  13.952   8.809  0.0269  0.2048 -0.3872
   20CGG   SI88  716   5.883  13.341   8.738  0.0200  0.2365 -0.2903
   20CGG   SI89  717   5.549  13.534   9.242  0.2292  0.1394 -0.0851
   20CGG   SI90  718   5.582  13.238   9.210  0.2073  0.4845 -0.4754
   20CGG   SI91  719   6.122  13.511   8.851 -0.1685  0.3328 -0.2955
   20CGG   SI92  720   6.073  13.807   8.872  0.1261  0.0808  0.1922
   21CGG    AL1  721  15.304  13.847  12.142  0.2494  0.1851  0.1521
   21CGG    AL2  722  15.158  13.078  11.990  0.7367  0.4753 -0.4653
   21CGG    AL3  723  15.120  13.368  12.024 -0.1037  0.0100 -0.0040
   21CGG    AL4  724  15.342  13.547  12.115 -0.1018  0.5613 -0.3762
   21CGG   AL41  725  15.410  12.955  12.054 -0.0201 -0.0464  0.1189
   21CGG   AL42  726  15.264  12.189  11.888 -0.1254 -0.2887 -0.1473
   21CGG   AL43  727  15.228  12.492  11.932 -0.0902  0.6535 -0.3554
   21CGG   AL44  728  15.457  12.661  12.017 -0.0419  0.3283 -0.1604
   21CGG   AL81  729  15.523  12.069  11.953 -0.1142  0.1118 -0.0411
   21CGG   AL82  730  15.375  11.286  11.795 -0.5643  0.0761  0.4891
   21CGG   AL83  731  15.343  11.589  11.826  0.0122  0.3105  0.3330
   21CGG   AL84  732  15.569  11.766  11.925  0.4712  0.1910  0.1106
   21CGG    SI5  733  15.234  13.041  12.299  0.1515  0.5754 -0.4321
   21CGG    SI6  734  15.172  13.651  12.366 -0.1363  0.2430 -0.1738
   21CGG    SI7  735  15.213  13.873  11.831 -0.1628 -0.2213  0.0928
   21CGG    SI8  736  15.290  13.269  11.775 -0.3569  0.0233  0.0732
   21CGG    SI9  737  14.944  13.463  12.264 -0.1759 -0.1494  0.2823
   21CGG   SI10  738  14.981  13.171  12.240 -0.0535 -0.1885  0.2724
   21CGG   SI11  739  15.522  13.452  11.875  0.0027 -0.0366 -0.0726
   21CGG   SI12  740  15.476  13.749  11.902 -0.0198  0.3710 -0.4256
   21CGG   SI45  741  15.357  12.163  12.196 -0.0464  0.3466  0.1924
   21CGG   SI46  742  15.281  12.753  12.269 -0.6516 -0.1486  0.2776
   21CGG   SI47  743  15.337  12.982  11.740  0.4653 -0.3250 -0.0520
   21CGG   SI48  744  15.396  12.393  11.681  0.4334  0.4065  0.1887
   21CGG   SI49  745  15.051  12.587  12.172 -0.0495  0.7010  0.0322
   21CGG   SI50  746  15.096  12.289  12.136 -0.1836  0.4064 -0.2486
   21CGG   SI51  747  15.631  12.564  11.776 -0.8026 -0.1500  0.3572
   21CGG   SI52  748  15.587  12.856  11.808 -0.1501  0.1211  0.5131
   21CGG   SI85  749  15.467  11.264  12.101  0.2316  0.4367  0.0023
   21CGG   SI86  750  15.399  11.864  12.170  0.0761  0.0989 -0.3263
   21CGG   SI87  751  15.442  12.102  11.643  0.1228  0.1964 -0.1934
   21CGG   SI88  752  15.518  11.486  11.582 -0.1070  0.1771 -0.2263
   21CGG   SI89  753  15.163  11.685  12.069 -0.1106  0.0190  0.1374
   21CGG   SI90  754  15.205  11.392  12.038 -0.1287  0.2692 -0.1069
   21CGG   SI91  755  15.742  11.668  11.686 -0.1768 -0.1950 -0.1180
   21CGG   SI92  756  15.690  11.960  11.714 -0.2234 -0.1571  0.3673
   22CGG    AL1  757  14.813  13.790  11.977  0.3862  0.0400 -0.2343
   22CGG    AL2  758  14.662  13.032  11.820 -0.0638 -0.2804  0.3509
   22CGG    AL3  759  14.631  13.322  11.865 -0.1590 -0.2244 -0.2854
   22CGG    AL4  760  14.857  13.494  11.954 -0.0984 -0.0489 -0.0071
   22CGG   AL41  761  14.927  12.898  11.888 -0.2996  0.3780  0.6140
   22CGG   AL42  762  14.776  12.143  11.726  0.1644  0.3984  0.6139
   22CGG   AL43  763  14.738  12.436  11.766  0.2728  0.0099  0.1340
   22CGG   AL44  764  14.963  12.603  11.862  0.6512 -0.1745 -0.3752
   22CGG   AL81  765  15.035  12.006  11.792 -0.1232  0.4254  0.4327
   22CGG   AL82  766  14.877  11.247  11.638 -0.3515 -0.3225 -0.3157
   22CGG   AL83  767  14.839  11.548  11.667 -0.5841 -0.0653 -0.2427
   22CGG   AL84  768  15.080  11.715  11.760 -0.2094 -0.2317 -0.4492
   22CGG    SI5  769  14.756  12.998  12.127  0.1909  0.3978  0.0324
   22CGG    SI6  770  14.678  13.590  12.195 -0.1193  0.2388  0.1647
   22CGG    SI7  771  14.730  13.816  11.668 -0.1880 -0.1264  0.1151
   22CGG    SI8  772  14.801  13.224  11.607  0.7518 -0.0146 -0.0263
   22CGG    SI9  773  14.447  13.423  12.100  0.1870  0.0608 -0.0010
   22CGG   SI10  774  14.488  13.124  12.074 -0.1159 -0.2965  0.1760
   22CGG   SI11  775  15.034  13.400  11.714 -0.3437 -0.1204  0.0458
   22CGG   SI12  776  14.984  13.691  11.736  0.4225 -0.2987 -0.0776
   22CGG   SI45  777  14.865  12.111  12.030 -0.0241 -0.1725 -0.0321
   22CGG   SI46  778  14.791  12.708  12.103 -0.1564 -0.1112  0.1871
   22CGG   SI47  779  14.840  12.929  11.574 -0.2177 -0.1328 -0.2312
   22CGG   SI48  780  14.911  12.336  11.521 -0.4974 -0.1870  0.0187
   22CGG   SI49  781  14.560  12.524  12.003  0.2971 -0.2828  0.1470
   22CGG   SI50  782  14.599  12.232  11.979  0.1661  0.1162  0.3266
   22CGG   SI51  783  15.137  12.517  11.625 -0.1072  0.0683  0.2754
   22CGG   SI52  784  15.094  12.806  11.646 -0.0051 -0.4701  0.0295
   22CGG   SI85  785  14.971  11.213  11.942 -0.2231 -0.2869  0.0862
   22CGG   SI86  786  14.908  11.813  12.004  0.3080 -0.3543  0.1451
   22CGG   SI87  787  14.953  12.036  11.481 -0.2989 -0.2297 -0.1662
   22CGG   SI88  788  15.012  11.445  11.421 -0.1199 -0.4543  0.2548
   22CGG   SI89  789  14.675  11.642  11.911 -0.2256  0.2475 -0.1095
   22CGG   SI90  790  14.714  11.345  11.888 -0.3229  0.4335  0.0803
   22CGG   SI91  791  15.260  11.614  11.517  0.1502  0.3223 -0.1092
   22CGG   SI92  792  15.217  11.906  11.544  0.0387 -0.2077  0.3151
   23CGG    AL1  793  14.325  13.752  11.802 -0.1474 -0.1329 -0.4731
   23CGG    AL2  794  14.172  12.987  11.654 -0.2081 -0.1431  0.2745
   23CGG    AL3  795  14.141  13.277  11.688 -0.0625  0.2828  0.2308
   23CGG    AL4  796  14.363  13.457  11.786  0.3329  0.1319 -0.0351
   23CGG   AL41  797  14.444  12.861  11.723  0.2111  0.1251 -0.0651
   23CGG   AL42  798  14.287  12.084  11.565  0.3147  0.1320  0.3194
   23CGG   AL43  799  14.251  12.384  11.592  0.1410  0.0964  0.6162
   23CGG   AL44  800  14.474  12.559  11.690  0.0604  0.4482  0.1876
   23CGG   AL81  801  14.554  11.964  11.629 -0.1542 -0.2783  0.1309
   23CGG   AL82  802  14.398  11.200  11.472  0.2088  0.1597  0.0737
   23CGG   AL83  803  14.366  11.508  11.503  0.1752  0.0207 -0.1103
   23CGG   AL84  804  14.592  11.684  11.601  0.5694  0.6147 -0.2670
   23CGG    SI5  805  14.268  12.956  11.968 -0.0558  0.2845  0.2866
   23CGG    SI6  806  14.192  13.561  12.028 -0.1006 -0.4380  0.0458
   23CGG    SI7  807  14.253  13.792  11.500  0.3727  0.1671  0.7331
   23CGG    SI8  808  14.316  13.184  11.443 -0.4793 -0.2030  0.3244
   23CGG    SI9  809  13.961  13.391  11.929  0.3258  0.2782  0.3028
   23CGG   SI10  810  13.998  13.085  11.901 -0.4138 -0.5663 -0.6334
   23CGG   SI11  811  14.544  13.358  11.549 -0.3811 -0.0135  0.3033
   23CGG   SI12  812  14.505  13.649  11.573  0.2544 -0.3497 -0.0237
   23CGG   SI45  813  14.374  12.058  11.876  0.0563 -0.3849 -0.6933
   23CGG   SI46  814  14.306  12.661  11.942  0.1373 -0.2796 -0.1912
   23CGG   SI47  815  14.358  12.892  11.410 -0.1994  0.4076 -0.8617
   23CGG   SI48  816  14.426  12.283  11.351  0.3620  0.3022 -0.1597
   23CGG   SI49  817  14.074  12.477  11.837 -0.2574 -0.4531  0.3898
   23CGG   SI50  818  14.115  12.189  11.805  0.0497  0.0500  0.3323
   23CGG   SI51  819  14.652  12.465  11.453  0.0771  0.0850 -0.3622
   23CGG   SI52  820  14.619  12.757  11.478  0.2479 -0.0699 -0.0507
   23CGG   SI85  821  14.491  11.169  11.786  0.5237 -0.1924  0.1728
   23CGG   SI86  822  14.417  11.769  11.847 -0.1261 -0.0666 -0.2689
   23CGG   SI87  823  14.465  11.984  11.325  0.3097 -0.2126  0.2733
   23CGG   SI88  824  14.530  11.397  11.259 -0.0603 -0.0310 -0.3726
   23CGG   SI89  825  14.183  11.597  11.748 -0.0664 -0.4465  0.2102
   23CGG   SI90  826  14.232  11.300  11.724 -0.3261  0.0206  0.0277
   23CGG   SI91  827  14.760  11.577  11.353  0.0689 -0.0899 -0.1471
   23CGG   SI92  828  14.729  11.867  11.383 -0.3510 -0.1455 -0.0129
   24CGG    AL1  829  13.850  13.719  11.636 -0.3779 -0.5409  0.3124
   24CGG    AL2  830  13.689  12.942  11.488  0.0461 -0.0417 -0.0516
   24CGG    AL3  831  13.659  13.247  11.519 -0.0268 -0.4624  0.0526
   24CGG    AL4  832  13.877  13.421  11.611  0.0397 -0.0108  0.3173
   24CGG   AL41  833  13.951  12.805  11.557 -0.3091  0.4399  0.0452
   24CGG   AL42  834  13.784  12.057  11.401 -0.2433  0.4972  0.2722
   24CGG   AL43  835  13.752  12.351  11.435  0.0048 -0.1775 -0.2171
   24CGG   AL44  836  13.986  12.519  11.530 -0.4092 -0.1183  0.0195
   24CGG   AL81  837  14.049  11.915  11.459 -0.3777 -0.4839  0.1441
   24CGG   AL82  838  13.908  11.153  11.321  0.5295  0.4269  0.3782
   24CGG   AL83  839  13.865  11.446  11.345  0.1066  0.3877 -0.3920
   24CGG   AL84  840  14.094  11.618  11.439 -0.1426 -0.3545  0.3386
   24CGG    SI5  841  13.778  12.917  11.796  0.0163  0.1797 -0.0677
   24CGG    SI6  842  13.704  13.524  11.848 -0.1376 -0.0412 -0.3520
   24CGG    SI7  843  13.758  13.742  11.330 -0.0380  0.2546  0.2266
   24CGG    SI8  844  13.831  13.141  11.269 -0.0727  0.4610  0.1344
   24CGG    SI9  845  13.471  13.343  11.759 -0.5836 -0.0350  0.3128
   24CGG   SI10  846  13.516  13.048  11.726  0.6049  0.0517 -0.0593
   24CGG   SI11  847  14.064  13.315  11.377  0.1001  0.0280 -0.2057
   24CGG   SI12  848  14.018  13.611  11.393  0.0547 -0.0196  0.1500
   24CGG   SI45  849  13.881  12.021  11.705 -0.0217 -0.4561  0.0906
   24CGG   SI46  850  13.812  12.615  11.778 -0.4423 -0.2672 -0.5531
   24CGG   SI47  851  13.868  12.842  11.251  0.1838 -0.5547 -0.2639
   24CGG   SI48  852  13.921  12.247  11.183  0.0667 -0.0380 -0.1122
   24CGG   SI49  853  13.578  12.442  11.678  0.4488  0.1547 -0.0172
   24CGG   SI50  854  13.619  12.145  11.650 -0.4514 -0.2670  0.0843
   24CGG   SI51  855  14.162  12.415  11.281 -0.4662 -0.1104  0.3429
   24CGG   SI52  856  14.132  12.711  11.318  0.2943 -0.1566  0.2402
   24CGG   SI85  857  14.000  11.120  11.622 -0.1663  0.3110  0.2801
   24CGG   SI86  858  13.925  11.728  11.683  0.6793 -0.0273 -0.2785
   24CGG   SI87  859  13.960  11.950  11.156  0.1280 -0.1519  0.2553
   24CGG   SI88  860  14.030  11.348  11.099 -0.3342 -0.3638 -0.1573
   24CGG   SI89  861  13.690  11.545  11.586 -0.0400 -0.3422  0.0874
   24CGG   SI90  862  13.732  11.244  11.558  0.1246 -0.0811 -0.2316
   24CGG   SI91  863  14.269  11.522  11.189 -0.3666 -0.0865 -0.5912
   24CGG   SI92  864  14.225  11.815  11.215  0.3077  0.1055 -0.4276
   25CGG    AL1  865  13.363  13.669  11.472 -0.2110 -0.1796 -0.4787
   25CGG    AL2  866  13.201  12.898  11.335  0.4374  0.1400  0.2517
   25CGG    AL3  867  13.167  13.202  11.365 -0.2928  0.1893  0.0943
   25CGG    AL4  868  13.396  13.376  11.450  0.3303  0.1644  0.2535
   25CGG   AL41  869  13.461  12.778  11.392 -0.2953 -0.0803  0.1265
   25CGG   AL42  870  13.300  12.011  11.235  0.0332 -0.2199  0.1471
   25CGG   AL43  871  13.271  12.308  11.266  0.1965 -0.3738  0.1360
   25CGG   AL44  872  13.500  12.478  11.366 -0.2529  0.0183 -0.4387
   25CGG   AL81  873  13.555  11.883  11.303 -0.3455 -0.1315 -0.0179
   25CGG   AL82  874  13.406  11.116  11.152 -0.1831  0.3878  0.0827
   25CGG   AL83  875  13.380  11.412  11.187  0.1535 -0.0453  0.7407
   25CGG   AL84  876  13.592  11.593  11.281 -0.5535  0.0320  0.2085
   25CGG    SI5  877  13.292  12.875  11.638 -0.1667  0.1629  0.0131
   25CGG    SI6  878  13.222  13.483  11.689  0.0137  0.0871 -0.2624
   25CGG    SI7  879  13.260  13.698  11.171 -0.7972 -0.2063  0.1881
   25CGG    SI8  880  13.338  13.098  11.123 -0.4852 -0.1226  0.4262
   25CGG    SI9  881  12.985  13.297  11.601  0.0580 -0.0727 -0.3005
   25CGG   SI10  882  13.034  13.001  11.576  0.4571 -0.0113 -0.3287
   25CGG   SI11  883  13.570  13.272  11.211 -0.1093 -0.0012 -0.2337
   25CGG   SI12  884  13.528  13.565  11.230 -0.0950 -0.3921  0.0639
   25CGG   SI45  885  13.391  11.987  11.547  0.1800 -0.3131  0.0963
   25CGG   SI46  886  13.331  12.581  11.606 -0.0191  0.3854  0.0388
   25CGG   SI47  887  13.378  12.809  11.085 -0.2182  0.1377 -0.0239
   25CGG   SI48  888  13.445  12.202  11.024 -0.0126  0.0285  0.7696
   25CGG   SI49  889  13.098  12.414  11.512 -0.4153  0.1352 -0.2526
   25CGG   SI50  890  13.130  12.116  11.481 -0.0589  0.3078  0.0865
   25CGG   SI51  891  13.671  12.388  11.119  0.1065  0.0369 -0.1204
   25CGG   SI52  892  13.638  12.678  11.152 -0.2145  0.0732 -0.2530
   25CGG   SI85  893  13.505  11.086  11.465  0.0123 -0.2767  0.1465
   25CGG   SI86  894  13.432  11.691  11.530 -0.0015  0.1089 -0.3205
   25CGG   SI87  895  13.478  11.904  10.994  0.0087  0.2136  0.0462
   25CGG   SI88  896  13.548  11.307  10.936 -0.2408 -0.0892 -0.3783
   25CGG   SI89  897  13.201  11.515  11.433 -0.2484  0.1052 -0.3150
   25CGG   SI90  898  13.245  11.220  11.406  0.2751  0.0711  0.8212
   25CGG   SI91  899  13.776  11.482  11.039 -0.1364  0.3113  0.2147
   25CGG   SI92  900  13.736  11.777  11.061 -0.5988  0.0766  0.1524
   26CGG    AL1  901  12.869  13.629  11.317 -0.1583  0.5524 -0.3772
   26CGG    AL2  902  12.705  12.858  11.168 -0.0522 -0.0289 -0.2196
   26CGG    AL3  903  12.673  13.148  11.201 -0.2946  0.3007 -0.3769
   26CGG    AL4  904  12.906  13.320  11.292  0.2114  0.2344  0.2012
   26CGG   AL41  905  12.964  12.723  11.231 -0.3953 -0.4826  0.0100
   26CGG   AL42  906  12.817  11.969  11.078 -0.2037 -0.2075  0.2389
   26CGG   AL43  907  12.790  12.261  11.109 -0.2370  0.3672 -0.4520
   26CGG   AL44  908  13.008  12.434  11.207 -0.0275 -0.4482  0.0457
   26CGG   AL81  909  13.075  11.832  11.138 -0.4690 -0.0149  0.2642
   26CGG   AL82  910  12.923  11.076  10.998  0.5598  0.1752 -0.1654
   26CGG   AL83  911  12.895  11.365  11.026  0.2372  0.4189 -0.2177
   26CGG   AL84  912  13.117  11.542  11.118  0.4671  0.0529  0.4482
   26CGG    SI5  913  12.804  12.825  11.474 -0.0805  0.1360 -0.3275
   26CGG    SI6  914  12.735  13.428  11.527  0.2180  0.2584  0.0502
   26CGG    SI7  915  12.780  13.648  11.012  0.3079  0.1712  0.3586
   26CGG    SI8  916  12.851  13.053  10.952 -0.3782 -0.3874  0.2855
   26CGG    SI9  917  12.498  13.246  11.444 -0.0098 -0.0895  0.4405
   26CGG   SI10  918  12.537  12.955  11.415  0.1182 -0.1814 -0.0136
   26CGG   SI11  919  13.082  13.224  11.052  0.1574  0.0097  0.0583
   26CGG   SI12  920  13.039  13.518  11.073 -0.2260  0.0596 -0.2664
   26CGG   SI45  921  12.911  11.939  11.381 -0.4923 -0.1790  0.1038
   26CGG   SI46  922  12.840  12.536  11.455  0.3561  0.4486 -0.1885
   26CGG   SI47  923  12.883  12.763  10.929 -0.1553  0.2267 -0.0687
   26CGG   SI48  924  12.961  12.160  10.866  0.2518  0.2182  0.1018
   26CGG   SI49  925  12.611  12.359  11.351 -0.1549  0.1066  0.0031
   26CGG   SI50  926  12.651  12.064  11.322  0.2724  0.0207 -0.6859
   26CGG   SI51  927  13.191  12.343  10.960  0.1715 -0.0747 -0.1102
   26CGG   SI52  928  13.141  12.630  10.992  0.2205  0.3750  0.3703
   26CGG   SI85  929  13.011  11.044  11.307 -0.0278 -0.0637 -0.0756
   26CGG   SI86  930  12.951  11.648  11.363 -0.3547 -0.0212 -0.0377
   26CGG   SI87  931  12.991  11.872  10.831  0.4722 -0.0991 -0.0666
   26CGG   SI88  932  13.059  11.260  10.781  0.2051  0.2636 -0.1222
   26CGG   SI89  933  12.719  11.469  11.266 -0.1950  0.1138 -0.0630
   26CGG   SI90  934  12.754  11.176  11.247 -0.0758  0.1962  0.0334
   26CGG   SI91  935  13.295  11.429  10.881  0.1288  0.2202  0.1904
   26CGG   SI92  936  13.247  11.726  10.895 -0.1984  0.0799 -0.2768
   27CGG    AL1  937  12.381  13.572  11.158  0.0726 -0.4772  0.3210
   27CGG    AL2  938  12.219  12.808  11.014  0.4026 -0.4483  0.5023
   27CGG    AL3  939  12.187  13.113  11.041 -0.4243  0.0600 -0.4058
   27CGG    AL4  940  12.415  13.282  11.135 -0.2241 -0.2560 -0.1519
   27CGG   AL41  941  12.485  12.681  11.072  0.1846  0.0024  0.1665
   27CGG   AL42  942  12.325  11.927  10.916  0.2525 -0.1393  0.3845
   27CGG   AL43  943  12.288  12.229  10.944 -0.3882 -0.2366  0.0131
   27CGG   AL44  944  12.526  12.391  11.039  0.3143 -0.0535 -0.1846
   27CGG   AL81  945  12.594  11.799  10.979 -0.0764  0.5047  0.3071
   27CGG   AL82  946  12.442  11.037  10.834  0.0517  0.0462  0.2486
   27CGG   AL83  947  12.405  11.331  10.859  0.2314  0.1885 -0.4040
   27CGG   AL84  948  12.629  11.501  10.960 -0.2428  0.1679 -0.0046
   27CGG    SI5  949  12.310  12.787  11.315 -0.0517 -0.1912 -0.5933
   27CGG    SI6  950  12.246  13.389  11.379  0.4247 -0.0217 -0.6411
   27CGG    SI7  951  12.292  13.602  10.852 -0.0219 -0.1083  0.4006
   27CGG    SI8  952  12.360  13.000  10.798 -0.3074 -0.7133 -0.0927
   27CGG    SI9  953  12.006  13.208  11.283 -0.1945 -0.0164 -0.2244
   27CGG   SI10  954  12.053  12.913  11.254  0.2946  0.6910 -0.2462
   27CGG   SI11  955  12.596  13.177  10.891  0.4297 -0.3673 -0.1105
   27CGG   SI12  956  12.546  13.477  10.915 -0.7946  0.4034  0.0793
   27CGG   SI45  957  12.423  11.906  11.223  0.2150  0.2743 -0.1400
   27CGG   SI46  958  12.355  12.493  11.291 -0.0070  0.1271 -0.3063
   27CGG   SI47  959  12.400  12.714  10.766  0.4463  0.2797 -0.0491
   27CGG   SI48  960  12.469  12.128  10.703  0.1635  0.1125 -0.4586
   27CGG   SI49  961  12.123  12.320  11.192  0.3606 -0.1709 -0.5516
   27CGG   SI50  962  12.160  12.025  11.159 -0.3046 -0.1356 -0.2985
   27CGG   SI51  963  12.705  12.301  10.805  0.0249  0.0357 -0.1582
   27CGG   SI52  964  12.662  12.591  10.828  0.0055 -0.4412 -0.5771
   27CGG   SI85  965  12.530  11.007  11.142  0.8053  0.5245 -0.4024
   27CGG   SI86  966  12.464  11.605  11.198 -0.2064  0.0014  0.2834
   27CGG   SI87  967  12.508  11.834  10.675 -0.3006  0.2030  0.1168
   27CGG   SI88  968  12.585  11.236  10.614  0.3443  0.4152  0.5686
   27CGG   SI89  969  12.224  11.432  11.099 -0.1878  0.2689 -0.0498
   27CGG   SI90  970  12.267  11.138  11.076  0.1631  0.0516 -0.4646
   27CGG   SI91  971  12.814  11.404  10.718  0.5022  0.6022  0.1249
   27CGG   SI92  972  12.768  11.701  10.740 -0.1302  0.1027 -0.2008
   28CGG    AL1  973  11.889  13.529  10.997  0.3385  0.0201  0.3868
   28CGG    AL2  974  11.726  12.772  10.842  0.3353 -0.7188 -0.9941
   28CGG    AL3  975  11.694  13.077  10.868  0.1665  0.1863  0.0801
   28CGG    AL4  976  11.926  13.234  10.967  0.4537  0.0147 -0.0616
   28CGG   AL41  977  11.989  12.646  10.900  0.0851  0.5558 -0.2580
   28CGG   AL42  978  11.841  11.878  10.752 -0.3844  0.1905 -0.2784
   28CGG   AL43  979  11.804  12.169  10.779  0.1699  0.0511 -0.3150
   28CGG   AL44  980  12.030  12.340  10.879  0.0542 -0.3111  0.0117
   28CGG   AL81  981  12.107  11.750  10.813  0.0673  0.1941  0.0795
   28CGG   AL82  982  11.948  10.997  10.653 -0.2460  0.3193 -0.0999
   28CGG   AL83  983  11.919  11.284  10.689 -0.5095 -0.0527  0.1121
   28CGG   AL84  984  12.137  11.463  10.784 -0.3736 -0.5460 -0.4970
   28CGG    SI5  985  11.817  12.745  11.151  0.0833 -0.4242 -0.3024
   28CGG    SI6  986  11.747  13.343  11.219  0.0020  0.3509  0.3213
   28CGG    SI7  987  11.803  13.566  10.688 -0.1647  0.6765 -0.6339
   28CGG    SI8  988  11.861  12.962  10.630 -0.0213 -0.0322  0.6309
   28CGG    SI9  989  11.519  13.171  11.111 -0.1971 -0.2211  0.0315
   28CGG   SI10  990  11.557  12.881  11.084 -0.1113  0.5713 -0.0931
   28CGG   SI11  991  12.100  13.136  10.733  0.1827 -0.3646 -0.3578
   28CGG   SI12  992  12.062  13.429  10.749  0.1457 -0.0092 -0.2244
   28CGG   SI45  993  11.931  11.850  11.060 -0.0060  0.0974  0.0288
   28CGG   SI46  994  11.864  12.449  11.124 -0.1118  0.0538 -0.3486
   28CGG   SI47  995  11.897  12.673  10.594 -0.3006 -0.2936 -0.6107
   28CGG   SI48  996  11.976  12.079  10.542 -0.1696 -0.1792 -0.3157
   28CGG   SI49  997  11.627  12.271  11.023 -0.0555  0.5057 -0.0225
   28CGG   SI50  998  11.671  11.976  10.995 -0.2434 -0.3310 -0.1887
   28CGG   SI51  999  12.209  12.257  10.634  0.5916  0.1857 -0.1001
   28CGG   SI52 1000  12.163  12.547  10.662  0.4510  0.4775  0.1727
   28CGG   SI85 1001  12.034  10.968  10.965 -0.0428  0.3952 -0.3534
   28CGG   SI86 1002  11.964  11.564  11.034  0.0822  0.0368  0.2083
   28CGG   SI87 1003  12.022  11.787  10.504 -0.1257 -0.1841 -0.0440
   28CGG   SI88 1004  12.093  11.189  10.439  0.1709  0.2651  0.1854
   28CGG   SI89 1005  11.736  11.380  10.930  0.0618 -0.0723 -0.1848
   28CGG   SI90 1006  11.777  11.095  10.899 -0.4043 -0.3616 -0.3371
   28CGG   SI91 1007  12.321  11.357  10.551  0.2607  0.3321  0.2449
   28CGG   SI92 1008  12.288  11.649  10.571  0.6092 -0.4198  0.6754
   29CGG    AL1 1009  11.401  13.482  10.817  0.5250  0.0394 -0.1718
   29CGG    AL2 1010  11.243  12.729  10.675  0.2220  0.1216  0.3151
   29CGG    AL3 1011  11.216  13.023  10.698  0.3080 -0.2833 -0.9252
   29CGG    AL4 1012  11.437  13.200  10.795 -0.1583  0.0109 -0.1030
   29CGG   AL41 1013  11.508  12.597  10.741  0.3183  0.0523  0.1759
   29CGG   AL42 1014  11.347  11.841  10.582 -0.2427 -0.2930 -0.0440
   29CGG   AL43 1015  11.307  12.135  10.613 -0.1140  0.1123 -0.8898
   29CGG   AL44 1016  11.540  12.309  10.712  0.2147 -0.1291 -0.0925
   29CGG   AL81 1017  11.614  11.699  10.644 -0.2332 -0.2725 -0.1333
   29CGG   AL82 1018  11.463  10.949  10.491 -0.1448  0.1793  0.0449
   29CGG   AL83 1019  11.431  11.244  10.517 -0.2113 -0.0786 -0.4815
   29CGG   AL84 1020  11.650  11.417  10.620 -0.0537 -0.0557 -0.1281
   29CGG    SI5 1021  11.334  12.709  10.982 -0.3365  0.2168 -0.1235
   29CGG    SI6 1022  11.269  13.308  11.039 -0.3503  0.0259 -0.3097
   29CGG    SI7 1023  11.316  13.517  10.511 -0.2409 -0.4683 -0.2483
   29CGG    SI8 1024  11.387  12.915  10.457 -0.2132 -0.3559 -0.0712
   29CGG    SI9 1025  11.036  13.122  10.943 -0.3529 -0.6952  0.5391
   29CGG   SI10 1026  11.073  12.827  10.914  0.1154 -0.5214 -0.2808
   29CGG   SI11 1027  11.611  13.102  10.556 -0.0929  0.4013  0.4441
   29CGG   SI12 1028  11.581  13.387  10.570  0.1990  0.0543 -0.1090
   29CGG   SI45 1029  11.445  11.806  10.890 -0.2731 -0.4896  0.0636
   29CGG   SI46 1030  11.373  12.401  10.956 -0.3677 -0.1798 -0.1688
   29CGG   SI47 1031  11.423  12.627  10.431 -0.0156  0.2928 -0.3244
   29CGG   SI48 1032  11.484  12.033  10.369  0.0511  0.2016 -0.3322
   29CGG   SI49 1033  11.132  12.239  10.855 -0.3791  0.2308 -0.0417
   29CGG   SI50 1034  11.180  11.940  10.831  0.2196  0.4670 -0.0755
   29CGG   SI51 1035  11.721  12.207  10.470  0.6070 -0.4215  0.1306
   29CGG   SI52 1036  11.683  12.498  10.500  0.1709 -0.2899 -0.0313
   29CGG   SI85 1037  11.556  10.925  10.804  0.3746 -0.2746 -0.0761
   29CGG   SI86 1038  11.473  11.509  10.864 -0.5475 -0.3020  0.3174
   29CGG   SI87 1039  11.529  11.743  10.339 -0.1857  0.2417  0.1339
   29CGG   SI88 1040  11.604  11.142  10.280  0.4227 -0.0668  0.0828
   29CGG   SI89 1041  11.246  11.345  10.748  0.2363  0.0641 -0.1727
   29CGG   SI90 1042  11.297  11.049  10.738  0.1992  0.0638  0.3751
   29CGG   SI91 1043  11.831  11.319  10.377 -0.1965  0.2028  0.0558
   29CGG   SI92 1044  11.794  11.616  10.401 -0.3517 -0.3744 -0.2244
   30CGG    AL1 1045  10.912  13.440  10.646 -0.3627 -0.0588 -0.5356
   30CGG    AL2 1046  10.749  12.685  10.507 -0.4424 -0.0884  0.1364
   30CGG    AL3 1047  10.723  12.982  10.527  0.4204 -0.0875 -0.5392
   30CGG    AL4 1048  10.949  13.149  10.633  0.0817 -0.0722  0.2947
   30CGG   AL41 1049  11.023  12.553  10.564  0.0063 -0.3202 -0.0912
   30CGG   AL42 1050  10.852  11.788  10.406 -0.1770 -0.0491 -0.2096
   30CGG   AL43 1051  10.828  12.084  10.438 -0.1614 -0.1276 -0.4125
   30CGG   AL44 1052  11.054  12.262  10.534 -0.3716  0.0669 -0.4023
   30CGG   AL81 1053  11.129  11.662  10.471 -0.1216 -0.3283  0.0204
   30CGG   AL82 1054  10.970  10.907  10.316 -0.2423 -0.1007 -0.4422
   30CGG   AL83 1055  10.950  11.196  10.353 -0.4472 -0.1469 -0.1237
   30CGG   AL84 1056  11.165  11.372  10.440  0.1014  0.0418 -0.1001
   30CGG    SI5 1057  10.843  12.655  10.808  0.3177 -0.1542 -0.4073
   30CGG    SI6 1058  10.785  13.260  10.876  0.0890 -0.2037  0.4388
   30CGG    SI7 1059  10.822  13.477  10.344  0.4837 -0.1063  0.0592
   30CGG    SI8 1060  10.892  12.872  10.289  0.3660  0.0928 -0.3200
   30CGG    SI9 1061  10.551  13.081  10.782 -0.0176 -0.0282 -0.1443
   30CGG   SI10 1062  10.588  12.792  10.749  0.0655 -0.1208  0.3501
   30CGG   SI11 1063  11.128  13.041  10.390  0.1174 -0.3361 -0.5344
   30CGG   SI12 1064  11.080  13.336  10.407  0.2391  0.0216 -0.0195
   30CGG   SI45 1065  10.956  11.762  10.716  0.3084 -0.2926  0.0299
   30CGG   SI46 1066  10.881  12.362  10.779  0.0079  0.1603 -0.3038
   30CGG   SI47 1067  10.932  12.586  10.261 -0.1482  0.3114  0.6216
   30CGG   SI48 1068  11.001  11.990  10.199  0.2200  0.4365  0.2560
   30CGG   SI49 1069  10.651  12.174  10.688 -0.1172 -0.0870 -0.1274
   30CGG   SI50 1070  10.688  11.886  10.656 -0.0145 -0.4079 -0.1395
   30CGG   SI51 1071  11.228  12.160  10.299 -0.3142  0.2680  0.4812
   30CGG   SI52 1072  11.195  12.453  10.326 -0.1642  0.2208  0.0545
   30CGG   SI85 1073  11.068  10.876  10.629 -0.1367  0.1320 -0.1562
   30CGG   SI86 1074  10.991  11.466  10.685  0.0989  0.1454  0.0331
   30CGG   SI87 1075  11.036  11.694  10.166 -0.4058 -0.0088  0.2086
   30CGG   SI88 1076  11.116  11.101  10.103  0.7214  0.2162 -0.3307
   30CGG   SI89 1077  10.763  11.290  10.592  0.6186  0.2044  0.3636
   30CGG   SI90 1078  10.808  11.008  10.560  0.1289 -0.1840  0.6643
   30CGG   SI91 1079  11.347  11.275  10.205 -0.4587  0.2766 -0.0018
   30CGG   SI92 1080  11.301  11.562  10.230 -0.2130 -0.1652  0.1103
   31CGG    AL1 1081  10.426  13.402  10.488  0.1512  0.1867  0.2473
   31CGG    AL2 1082  10.268  12.640  10.342  0.1669 -0.1679 -0.0542
   31CGG    AL3 1083  10.233  12.942  10.366 -0.0087  0.1167  0.0097
   31CGG    AL4 1084  10.463  13.108  10.470  0.0446 -0.0480 -0.0830
   31CGG   AL41 1085  10.526  12.512  10.409  0.8837 -0.1548 -0.3459
   31CGG   AL42 1086  10.368  11.746  10.251 -0.0779 -0.2375 -0.0006
   31CGG   AL43 1087  10.337  12.045  10.289 -0.2175  0.2137 -0.2705
   31CGG   AL44 1088  10.559  12.215  10.380 -0.0698  0.0452 -0.1496
   31CGG   AL81 1089  10.630  11.613  10.313 -0.1380  0.0751 -0.2651
   31CGG   AL82 1090  10.484  10.854  10.161 -0.0298 -0.5069  0.1356
   31CGG   AL83 1091  10.443  11.156  10.187 -0.3004 -0.1685  0.0135
   31CGG   AL84 1092  10.684  11.318  10.277  0.0321 -0.0127 -0.0296
   31CGG    SI5 1093  10.357  12.616  10.658  0.1105  0.2191 -0.1233
   31CGG    SI6 1094  10.294  13.218  10.714  0.3598  0.6193 -0.3293
   31CGG    SI7 1095  10.331  13.430  10.187  0.0643 -0.1587  0.1550
   31CGG    SI8 1096  10.403  12.832  10.129 -0.0489 -0.1173 -0.1403
   31CGG    SI9 1097  10.064  13.040  10.612  0.1223  0.0902  0.2623
   31CGG   SI10 1098  10.104  12.745  10.584  0.4808 -0.3406 -0.0143
   31CGG   SI11 1099  10.632  13.003  10.220  0.5970 -0.3612  0.3056
   31CGG   SI12 1100  10.593  13.298  10.246 -0.0130 -0.7269 -0.1912
   31CGG   SI45 1101  10.459  11.710  10.559 -0.0746 -0.1695 -0.3344
   31CGG   SI46 1102  10.391  12.314  10.633  0.0856  0.3723 -0.1370
   31CGG   SI47 1103  10.442  12.540  10.104 -0.0796  0.0393  0.7032
   31CGG   SI48 1104  10.504  11.945  10.038 -0.3333 -0.0038 -0.3481
   31CGG   SI49 1105  10.154  12.140  10.536  0.2763 -0.0346  0.0242
   31CGG   SI50 1106  10.201  11.843  10.500 -0.3489 -0.0887  0.1320
   31CGG   SI51 1107  10.746  12.123  10.133  0.1270  0.3710  0.5490
   31CGG   SI52 1108  10.705  12.413  10.170  0.5623  0.1967 -0.0093
   31CGG   SI85 1109  10.588  10.834  10.470 -0.1139  0.4391 -0.1487
   31CGG   SI86 1110  10.504  11.421  10.530 -0.1503  0.0311  0.1681
   31CGG   SI87 1111  10.550  11.652  10.007 -0.0092  0.1468  0.1740
   31CGG   SI88 1112  10.622  11.051   9.937 -0.2425 -0.2953 -0.1790
   31CGG   SI89 1113  10.271  11.249  10.434  0.0605 -0.3170  0.2443
   31CGG   SI90 1114  10.320  10.956  10.412 -0.4162 -0.1304 -0.5425
   31CGG   SI91 1115  10.859  11.230  10.039  0.5196 -0.1499 -0.4620
   31CGG   SI92 1116  10.812  11.521  10.073 -0.3654  0.2309  0.3264
   32CGG    AL1 1117   9.932  13.352  10.329 -0.2061  0.3788 -0.0993
   32CGG    AL2 1118   9.777  12.600  10.186  0.2305  0.2181 -0.1073
   32CGG    AL3 1119   9.738  12.891  10.214  0.5468 -0.1232  0.4596
   32CGG    AL4 1120   9.966  13.061  10.306 -0.0612  0.7585 -0.0791
   32CGG   AL41 1121  10.040  12.469  10.243  0.3559  0.2617  0.1408
   32CGG   AL42 1122   9.890  11.710  10.091 -0.2985  0.4517  0.5640
   32CGG   AL43 1123   9.849  12.003  10.118  0.1693  0.0885  0.0911
   32CGG   AL44 1124  10.073  12.173  10.218  0.0673 -0.2967 -0.0316
   32CGG   AL81 1125  10.143  11.575  10.153 -0.7419  0.1850  0.1696
   32CGG   AL82 1126   9.999  10.819  10.007 -0.0636 -0.0196 -0.0719
   32CGG   AL83 1127   9.958  11.115  10.025 -0.1281 -0.2201  0.0351
   32CGG   AL84 1128  10.189  11.287  10.122 -0.0579 -0.1157  0.8642
   32CGG    SI5 1129   9.866  12.573  10.489 -0.0817 -0.2861 -0.2801
   32CGG    SI6 1130   9.802  13.164  10.554  0.0630  0.1164  0.6120
   32CGG    SI7 1131   9.840  13.387  10.022 -0.0558  0.0452 -0.3040
   32CGG    SI8 1132   9.912  12.790   9.968 -0.1006  0.1740 -0.0930
   32CGG    SI9 1133   9.558  12.989  10.456 -0.1062  0.0454  0.1260
   32CGG   SI10 1134   9.603  12.696  10.430  0.0972  0.0502 -0.1251
   32CGG   SI11 1135  10.140  12.966  10.059 -0.0320  0.0821 -0.4551
   32CGG   SI12 1136  10.103  13.256  10.090 -0.4927  0.2209 -0.4401
   32CGG   SI45 1137   9.975  11.679  10.401  0.1924  0.0862  0.1641
   32CGG   SI46 1138   9.905  12.281  10.462 -0.4247  0.3403 -0.0419
   32CGG   SI47 1139   9.950  12.499   9.936  0.1805  0.1252 -0.0485
   32CGG   SI48 1140  10.023  11.902   9.874  0.2510 -0.6107  0.1088
   32CGG   SI49 1141   9.674  12.099  10.362  0.0500 -0.1548 -0.2287
   32CGG   SI50 1142   9.719  11.811  10.329 -0.0054  0.1128 -0.1268
   32CGG   SI51 1143  10.251  12.068   9.983  0.0120 -0.4371  0.0052
   32CGG   SI52 1144  10.214  12.368   9.999 -0.3632  0.3291 -0.0247
   32CGG   SI85 1145  10.088  10.780  10.309 -0.1429  0.0435 -0.1131
   32CGG   SI86 1146  10.014  11.383  10.374 -0.0183 -0.2054  0.0645
   32CGG   SI87 1147  10.063  11.615   9.841  0.0564  0.3336 -0.0201
   32CGG   SI88 1148  10.136  11.011   9.786 -0.0492 -0.1108  0.0766
   32CGG   SI89 1149   9.789  11.203  10.274  0.2205 -0.2668 -0.0188
   32CGG   SI90 1150   9.827  10.915  10.241 -0.2597  0.1632 -0.5419
   32CGG   SI91 1151  10.362  11.185   9.884  0.1355  0.3782  0.4065
   32CGG   SI92 1152  10.320  11.485   9.904  0.0463  0.4340  0.2308
   33CGG    AL1 1153   9.449  13.312  10.158 -0.1971 -0.2124 -0.1739
   33CGG    AL2 1154   9.293  12.558  10.019 -0.2571  0.0463 -0.3542
   33CGG    AL3 1155   9.252  12.855  10.050  0.0599  0.0275  0.2460
   33CGG    AL4 1156   9.480  13.024  10.141  0.0752  0.3675  0.3963
   33CGG   AL41 1157   9.549  12.429  10.079 -0.1728 -0.1169 -0.0698
   33CGG   AL42 1158   9.401  11.668   9.924  0.3775  0.0717 -0.2007
   33CGG   AL43 1159   9.366  11.963   9.952 -0.0303  0.2094 -0.4058
   33CGG   AL44 1160   9.589  12.128  10.053 -0.2699 -0.1436  0.2770
   33CGG   AL81 1161   9.671  11.531   9.987  0.0016  0.0897 -0.4558
   33CGG   AL82 1162   9.519  10.773   9.848 -0.1711 -0.0587  0.1081
   33CGG   AL83 1163   9.477  11.067   9.871 -0.1233 -0.3661  0.1542
   33CGG   AL84 1164   9.711  11.239   9.961  0.6249 -0.0758 -0.2986
   33CGG    SI5 1165   9.381  12.528  10.331 -0.0545  0.1198  0.1244
   33CGG    SI6 1166   9.313  13.125  10.382  0.3073 -0.1328 -0.2072
   33CGG    SI7 1167   9.363  13.350   9.853 -0.0536 -0.1911  0.2770
   33CGG    SI8 1168   9.430  12.753   9.806  0.0635 -0.5910  0.2535
   33CGG    SI9 1169   9.071  12.952  10.293  0.2694  0.2261  0.1867
   33CGG   SI10 1170   9.118  12.654  10.269  0.5076 -0.1537 -0.0587
   33CGG   SI11 1171   9.659  12.928   9.897  0.0965 -0.4873 -0.2168
   33CGG   SI12 1172   9.621  13.212   9.916  0.2730 -0.2738 -0.3769
   33CGG   SI45 1173   9.493  11.634  10.231 -0.1796  0.0187 -0.3163
   33CGG   SI46 1174   9.415  12.235  10.296  0.1496 -0.0475 -0.2592
   33CGG   SI47 1175   9.472  12.462   9.772  0.0599  0.1903 -0.3828
   33CGG   SI48 1176   9.544  11.853   9.703  0.0778 -0.1599  0.0576
   33CGG   SI49 1177   9.186  12.052  10.199  0.4864  0.2515 -0.2708
   33CGG   SI50 1178   9.235  11.759  10.173  0.2558 -0.0550 -0.1407
   33CGG   SI51 1179   9.765  12.033   9.814 -0.3414 -0.0725  0.0672
   33CGG   SI52 1180   9.725  12.330   9.834 -0.0229  0.3905 -0.0067
   33CGG   SI85 1181   9.612  10.737  10.156 -0.0512  0.1238  0.6098
   33CGG   SI86 1182   9.537  11.337  10.204  0.1505 -0.0759  0.2598
   33CGG   SI87 1183   9.580  11.559   9.688  0.3766 -0.1140  0.0742
   33CGG   SI88 1184   9.647  10.966   9.620 -0.2093  0.0241 -0.6626
   33CGG   SI89 1185   9.299  11.162  10.110 -0.1494  0.0854  0.1037
   33CGG   SI90 1186   9.349  10.866  10.089 -0.4561  0.4644 -0.2251
   33CGG   SI91 1187   9.884  11.144   9.717  0.0136  0.0156  0.0699
   33CGG   SI92 1188   9.846  11.438   9.744  0.5966 -0.1019  0.4443
   34CGG    AL1 1189   8.953  13.275  10.003 -0.4702  0.0973  0.1461
   34CGG    AL2 1190   8.801  12.511   9.860  0.4473 -0.1138 -0.2701
   34CGG    AL3 1191   8.758  12.813   9.880  0.0143 -0.5788  0.3731
   34CGG    AL4 1192   8.993  12.984   9.978  0.0685 -0.1805  0.6829
   34CGG   AL41 1193   9.063  12.385   9.921 -0.3384 -0.3291  0.0125
   34CGG   AL42 1194   8.906  11.615   9.763 -0.3000  0.1920  0.2551
   34CGG   AL43 1195   8.870  11.910   9.790 -0.1306  0.1936 -0.3913
   34CGG   AL44 1196   9.105  12.081   9.889  0.3704 -0.1463  0.2504
   34CGG   AL81 1197   9.169  11.486   9.826 -0.0599  0.1700  0.1582
   34CGG   AL82 1198   9.018  10.728   9.687 -0.0809  0.1778  0.5966
   34CGG   AL83 1199   8.981  11.026   9.712  0.2720  0.0075  0.7761
   34CGG   AL84 1200   9.210  11.195   9.802 -0.1630  0.5994 -0.1906
   34CGG    SI5 1201   8.886  12.479  10.170  0.4814  0.0389  0.3705
   34CGG    SI6 1202   8.815  13.087  10.216 -0.0949  0.0655 -0.0848
   34CGG    SI7 1203   8.865  13.295   9.701  0.1106  0.2144 -0.1768
   34CGG    SI8 1204   8.940  12.704   9.644 -0.1728  0.0395  0.0970
   34CGG    SI9 1205   8.582  12.911  10.128 -0.1893  0.4607 -0.0962
   34CGG   SI10 1206   8.624  12.610  10.095 -0.0452 -0.4391  0.2101
   34CGG   SI11 1207   9.175  12.877   9.739 -0.0394  0.2114  0.3254
   34CGG   SI12 1208   9.128  13.179   9.756 -0.2653  0.3352  0.2334
   34CGG   SI45 1209   8.999  11.585  10.067  0.1988 -0.3631  0.3101
   34CGG   SI46 1210   8.931  12.190  10.145  0.1560  0.3749  0.0561
   34CGG   SI47 1211   8.982  12.413   9.612  0.1745 -0.2712  0.3887
   34CGG   SI48 1212   9.050  11.810   9.549  0.0170 -0.2269  0.0608
   34CGG   SI49 1213   8.701  12.013  10.036 -0.4840 -0.1224  0.3494
   34CGG   SI50 1214   8.744  11.715  10.003 -0.3577 -0.1378  0.0956
   34CGG   SI51 1215   9.282  11.985   9.652  0.5210 -0.2235  0.1117
   34CGG   SI52 1216   9.243  12.281   9.675 -0.1598 -0.1501 -0.0494
   34CGG   SI85 1217   9.110  10.697   9.990  0.0639  0.0482  0.2614
   34CGG   SI86 1218   9.035  11.290  10.045 -0.1302  0.1368  0.2520
   34CGG   SI87 1219   9.084  11.510   9.522  0.1870 -0.1036 -0.3444
   34CGG   SI88 1220   9.155  10.916   9.467  0.5541 -0.0204 -0.3843
   34CGG   SI89 1221   8.798  11.120   9.953 -0.1121 -0.0165  0.3454
   34CGG   SI90 1222   8.848  10.828   9.925  0.0194  0.6151 -0.5633
   34CGG   SI91 1223   9.387  11.093   9.560 -0.0362  0.3364 -0.5464
   34CGG   SI92 1224   9.349  11.384   9.586  0.3821 -0.5094 -0.0675
   35CGG    AL1 1225   8.455  13.228   9.840  0.3048  0.4380 -0.1682
   35CGG    AL2 1226   8.313  12.468   9.681 -0.1889  0.2153 -0.5951
   35CGG    AL3 1227   8.275  12.761   9.712 -0.0169  0.2070  0.0385
   35CGG    AL4 1228   8.495  12.933   9.816  0.0928 -0.4700  0.2250
   35CGG   AL41 1229   8.577  12.332   9.747  0.3244  0.4942 -0.4056
   35CGG   AL42 1230   8.422  11.579   9.602  0.3039 -0.2220  0.1187
   35CGG   AL43 1231   8.386  11.873   9.629 -0.0184 -0.2687 -0.3694
   35CGG   AL44 1232   8.613  12.043   9.724 -0.0352  0.5274  0.3540
   35CGG   AL81 1233   8.677  11.439   9.665  0.0352 -0.3797 -0.1501
   35CGG   AL82 1234   8.532  10.677   9.510 -0.0196  0.1391  0.7736
   35CGG   AL83 1235   8.494  10.984   9.537 -0.2790 -0.3990  0.2642
   35CGG   AL84 1236   8.727  11.143   9.643 -0.3833 -0.0833  0.2823
   35CGG    SI5 1237   8.407  12.440   9.990 -0.4375 -0.0412  0.2982
   35CGG    SI6 1238   8.324  13.040  10.061  0.3860 -0.3494 -0.0761
   35CGG    SI7 1239   8.372  13.255   9.536 -0.1725  0.1039  0.4433
   35CGG    SI8 1240   8.446  12.663   9.462  0.1200  0.1914  0.0565
   35CGG    SI9 1241   8.099  12.855   9.961  0.0446  0.2514  0.1360
   35CGG   SI10 1242   8.149  12.568   9.930  0.0992  0.0365 -0.1251
   35CGG   SI11 1243   8.680  12.833   9.571  0.4639  0.1426 -0.0824
   35CGG   SI12 1244   8.634  13.126   9.604 -0.1424 -0.0757 -0.1334
   35CGG   SI45 1245   8.516  11.551   9.909 -0.2046  0.0182 -0.1206
   35CGG   SI46 1246   8.445  12.146   9.971 -0.1620 -0.1285 -0.1999
   35CGG   SI47 1247   8.493  12.375   9.437 -0.3688  0.3097 -0.0221
   35CGG   SI48 1248   8.566  11.773   9.384  0.2189 -0.2793 -0.1004
   35CGG   SI49 1249   8.214  11.968   9.880  0.0277  0.0120  0.4889
   35CGG   SI50 1250   8.257  11.678   9.848  0.2076  0.7637  0.0915
   35CGG   SI51 1251   8.798  11.949   9.481  0.1833  0.6777  0.0914
   35CGG   SI52 1252   8.760  12.246   9.503  0.2611 -0.3184 -0.0054
   35CGG   SI85 1253   8.624  10.658   9.818  0.5407  0.0833 -0.0274
   35CGG   SI86 1254   8.541  11.255   9.881  0.1303  0.4211  0.2702
   35CGG   SI87 1255   8.599  11.477   9.362  0.0107 -0.1230 -0.4107
   35CGG   SI88 1256   8.673  10.879   9.295  0.1270 -0.2966  0.0732
   35CGG   SI89 1257   8.319  11.078   9.778  0.3157 -0.5678 -0.3357
   35CGG   SI90 1258   8.371  10.788   9.762  1.0347  0.1021  0.4401
   35CGG   SI91 1259   8.902  11.051   9.397 -0.0314  0.4003 -0.4054
   35CGG   SI92 1260   8.861  11.343   9.425  0.3399 -0.0701 -0.1118
   36CGG    AL1 1261   7.976  13.177   9.673 -0.5238 -0.0991 -0.3545
   36CGG    AL2 1262   7.837  12.415   9.529  0.1700 -0.2012  0.2939
   36CGG    AL3 1263   7.795  12.718   9.561 -0.1975 -0.2052  0.4132
   36CGG    AL4 1264   8.019  12.889   9.653 -0.0097  0.4033  0.0329
   36CGG   AL41 1265   8.092  12.282   9.590  0.2263 -0.0515 -0.0119
   36CGG   AL42 1266   7.937  11.525   9.436 -0.0056 -0.0461 -0.4092
   36CGG   AL43 1267   7.910  11.810   9.466 -0.3253 -0.4273 -0.3565
   36CGG   AL44 1268   8.129  11.993   9.564 -0.6983 -0.0792 -0.0594
   36CGG   AL81 1269   8.208  11.396   9.500  0.5058 -0.3368  0.3718
   36CGG   AL82 1270   8.050  10.631   9.345  0.0850 -0.2218  0.7961
   36CGG   AL83 1271   8.012  10.932   9.372  0.1598 -0.0340  0.4636
   36CGG   AL84 1272   8.242  11.106   9.464  0.1791 -0.1528  0.3527
   36CGG    SI5 1273   7.924  12.385   9.839  0.5536 -0.3982 -0.0974
   36CGG    SI6 1274   7.847  12.988   9.902  0.2965  0.1737 -0.3218
   36CGG    SI7 1275   7.886  13.213   9.365 -0.3921 -0.2551 -0.0759
   36CGG    SI8 1276   7.967  12.616   9.314 -0.3587 -0.0126 -0.1055
   36CGG    SI9 1277   7.615  12.810   9.801  0.2934 -0.1011  0.1256
   36CGG   SI10 1278   7.664  12.515   9.770  0.1052  0.2405 -0.2091
   36CGG   SI11 1279   8.192  12.793   9.410  0.1294  0.3462 -0.3327
   36CGG   SI12 1280   8.143  13.085   9.432 -0.3210 -0.2151  0.0710
   36CGG   SI45 1281   8.033  11.491   9.744  0.5842  0.0132 -0.2900
   36CGG   SI46 1282   7.960  12.088   9.803  0.7273  0.1016 -0.1061
   36CGG   SI47 1283   8.005  12.324   9.283 -0.2164  0.2886  0.1427
   36CGG   SI48 1284   8.079  11.720   9.220 -0.1164  0.0097 -0.4606
   36CGG   SI49 1285   7.724  11.908   9.703 -0.0711 -0.2870 -0.0050
   36CGG   SI50 1286   7.769  11.617   9.682  0.1528  0.2041 -0.0781
   36CGG   SI51 1287   8.308  11.905   9.322  0.2053  0.0587  0.1159
   36CGG   SI52 1288   8.262  12.193   9.346  0.1873  0.3645  0.3787
   36CGG   SI85 1289   8.133  10.599   9.654  0.0670  0.1592 -0.2324
   36CGG   SI86 1290   8.067  11.199   9.709 -0.1129 -0.5490  0.1261
   36CGG   SI87 1291   8.115  11.435   9.192  0.2852 -0.4397  0.0605
   36CGG   SI88 1292   8.190  10.829   9.132  0.4319 -0.2323  0.2638
   36CGG   SI89 1293   7.837  11.026   9.610 -0.3295  0.0118  0.2172
   36CGG   SI90 1294   7.873  10.736   9.582  0.2206 -0.0141 -0.4299
   36CGG   SI91 1295   8.420  11.001   9.225  0.6030 -0.0295 -0.4893
   36CGG   SI92 1296   8.373  11.293   9.246  0.0848 -0.4360  0.2842
   37CGG    AL1 1297   7.485  13.137   9.509 -0.0410 -0.0103  0.3480
   37CGG    AL2 1298   7.342  12.379   9.361 -0.1377 -0.1040 -0.3140
   37CGG    AL3 1299   7.307  12.679   9.389 -0.1443  0.0941 -0.1132
   37CGG    AL4 1300   7.536  12.847   9.488 -0.0928  0.0480 -0.1326
   37CGG   AL41 1301   7.615  12.242   9.429  0.0489  0.0215 -0.0010
   37CGG   AL42 1302   7.460  11.490   9.264  0.5276  0.0289  0.0592
   37CGG   AL43 1303   7.421  11.785   9.290  0.1616  0.1276 -0.1393
   37CGG   AL44 1304   7.647  11.950   9.396  0.0185  0.1309 -0.8411
   37CGG   AL81 1305   7.720  11.356   9.325  0.0789 -0.1369 -0.0393
   37CGG   AL82 1306   7.559  10.609   9.169 -0.1013  0.1263  0.6019
   37CGG   AL83 1307   7.527  10.890   9.198 -0.1853  0.0964  0.2104
   37CGG   AL84 1308   7.749  11.061   9.296  0.2989 -0.3845 -0.5618
   37CGG    SI5 1309   7.446  12.349   9.678 -0.1350 -0.2827  0.4691
   37CGG    SI6 1310   7.360  12.947   9.734  0.1956 -0.5190  0.1520
   37CGG    SI7 1311   7.411  13.181   9.200  0.1337 -0.2282 -0.1533
   37CGG    SI8 1312   7.482  12.576   9.153  0.1502 -0.1992 -0.0109
   37CGG    SI9 1313   7.134  12.771   9.632 -0.2299  0.2252  0.1755
   37CGG   SI10 1314   7.181  12.476   9.612 -0.1334 -0.4461 -0.0972
   37CGG   SI11 1315   7.713  12.747   9.248 -0.4406  0.3264 -0.4721
   37CGG   SI12 1316   7.668  13.046   9.268  0.3358  0.4906 -0.3382
   37CGG   SI45 1317   7.548  11.448   9.567  0.0132 -0.2359 -0.2443
   37CGG   SI46 1318   7.478  12.054   9.646 -0.1098  0.0958  0.1424
   37CGG   SI47 1319   7.522  12.283   9.118  0.1906 -0.0104 -0.2234
   37CGG   SI48 1320   7.594  11.686   9.047 -0.0514  0.3922 -0.4138
   37CGG   SI49 1321   7.243  11.876   9.537 -0.2079 -0.0327  0.1511
   37CGG   SI50 1322   7.285  11.587   9.508 -0.2241  0.2506 -0.3300
   37CGG   SI51 1323   7.825  11.852   9.157  0.0807  0.2991  0.2260
   37CGG   SI52 1324   7.782  12.151   9.181  0.3074  0.4670 -0.1757
   37CGG   SI85 1325   7.653  10.575   9.469  0.0467  0.2675 -0.0744
   37CGG   SI86 1326   7.579  11.163   9.541  0.3103  0.3942  0.6229
   37CGG   SI87 1327   7.640  11.391   9.017  0.1527 -0.4354 -0.2413
   37CGG   SI88 1328   7.709  10.797   8.957  0.4720 -0.2503  0.0501
   37CGG   SI89 1329   7.351  10.987   9.435  0.2328 -0.2288  0.0702
   37CGG   SI90 1330   7.394  10.699   9.414 -0.0718  0.2038  0.3346
   37CGG   SI91 1331   7.932  10.970   9.060 -0.1260 -0.2974  0.2323
   37CGG   SI92 1332   7.898  11.259   9.092  0.2910  0.4688 -0.2585
   38CGG    AL1 1333   6.999  13.103   9.337 -0.3345 -0.1682 -0.6907
   38CGG    AL2 1334   6.859  12.344   9.188 -0.2515  0.3788 -0.1982
   38CGG    AL3 1335   6.828  12.639   9.218  0.1208  0.2118 -0.2648
   38CGG    AL4 1336   7.052  12.806   9.319 -0.1077 -0.6218 -0.2361
   38CGG   AL41 1337   7.119  12.201   9.250 -0.1534  0.0531 -0.3865
   38CGG   AL42 1338   6.966  11.444   9.094  0.1080 -0.2074 -0.2235
   38CGG   AL43 1339   6.937  11.742   9.131 -0.1755 -0.5673 -0.0613
   38CGG   AL44 1340   7.169  11.912   9.224  0.3772 -0.3509 -0.0921
   38CGG   AL81 1341   7.233  11.319   9.158  0.2823 -0.5035  0.0896
   38CGG   AL82 1342   7.065  10.565   9.000 -0.1396  0.6430  0.0069
   38CGG   AL83 1343   7.033  10.859   9.032  0.1910  0.2104 -0.0906
   38CGG   AL84 1344   7.260  11.030   9.127  0.4644  0.2710  0.2166
   38CGG    SI5 1345   6.951  12.307   9.501  0.1373  0.3820  0.0785
   38CGG    SI6 1346   6.877  12.905   9.566 -0.2176  0.2554 -0.1919
   38CGG    SI7 1347   6.908  13.132   9.034  0.2453 -0.0987  0.1349
   38CGG    SI8 1348   6.996  12.542   8.973 -0.1004 -0.3824 -0.0887
   38CGG    SI9 1349   6.648  12.730   9.461  0.3629  0.2502 -0.0150
   38CGG   SI10 1350   6.687  12.436   9.433  0.4798  0.1488 -0.0952
   38CGG   SI11 1351   7.229  12.717   9.081 -0.1158  0.0529  0.1738
   38CGG   SI12 1352   7.180  13.005   9.099  0.2609 -0.1031 -0.1669
   38CGG   SI45 1353   7.054  11.419   9.402 -0.1738 -0.0436  0.3663
   38CGG   SI46 1354   6.990  12.008   9.466  0.0461  0.2635 -0.1844
   38CGG   SI47 1355   7.044  12.239   8.946  0.4448  0.3071  0.2075
   38CGG   SI48 1356   7.108  11.645   8.879 -0.0322 -0.3129  0.1765
   38CGG   SI49 1357   6.752  11.835   9.372 -0.2179  0.1996 -0.1212
   38CGG   SI50 1358   6.797  11.546   9.348 -0.4415 -0.1624  0.1887
   38CGG   SI51 1359   7.343  11.819   8.986 -0.3387 -0.5642  0.4922
   38CGG   SI52 1360   7.301  12.110   9.013  0.1796 -0.1953 -0.2380
   38CGG   SI85 1361   7.162  10.524   9.307  0.3184 -0.4398 -0.3197
   38CGG   SI86 1362   7.088  11.129   9.375 -0.1242  0.5185 -0.0708
   38CGG   SI87 1363   7.145  11.352   8.851  0.4350 -0.1706 -0.1532
   38CGG   SI88 1364   7.207  10.757   8.779 -0.0241 -0.0335  0.2354
   38CGG   SI89 1365   6.856  10.941   9.271  0.5600  0.0621  0.0585
   38CGG   SI90 1366   6.899  10.656   9.250  0.1276 -0.2947  0.0071
   38CGG   SI91 1367   7.447  10.931   8.881  0.3387  0.1522 -0.1324
   38CGG   SI92 1368   7.411  11.224   8.912  0.2949  0.1651  0.2428
   39CGG    AL1 1369   6.513  13.049   9.183  0.6410 -0.3160  0.5631
   39CGG    AL2 1370   6.377  12.291   9.038  0.4262 -0.4350  0.1365
   39CGG    AL3 1371   6.329  12.592   9.063 -0.1005  0.7923 -0.2299
   39CGG    AL4 1372   6.558  12.763   9.150 -0.2547  0.0291 -0.4024
   39CGG   AL41 1373   6.646  12.156   9.092 -0.0687 -0.4960 -0.0292
   39CGG   AL42 1374   6.473  11.412   8.931  0.3430 -0.3146 -0.1158
   39CGG   AL43 1375   6.444  11.700   8.961  0.3368 -0.2140 -0.1983
   39CGG   AL44 1376   6.671  11.871   9.058  0.0706 -0.4151 -0.0990
   39CGG   AL81 1377   6.737  11.270   8.996 -0.1835 -0.0561 -0.1775
   39CGG   AL82 1378   6.587  10.522   8.846  0.1226  0.6460 -0.0583
   39CGG   AL83 1379   6.544  10.815   8.870 -0.5840 -0.0147  0.6960
   39CGG   AL84 1380   6.775  10.986   8.963 -0.1410  0.1823  0.2369
   39CGG    SI5 1381   6.473  12.260   9.340  0.3847  0.3038 -0.3173
   39CGG    SI6 1382   6.391  12.864   9.401  0.0450 -0.2699 -0.1152
   39CGG    SI7 1383   6.421  13.099   8.876  0.0712 -0.3877  0.0422
   39CGG    SI8 1384   6.503  12.493   8.820  0.3021 -0.1146 -0.2030
   39CGG    SI9 1385   6.161  12.691   9.311  0.1983  0.4234  0.2068
   39CGG   SI10 1386   6.214  12.398   9.286  0.0397  0.4284  0.0349
   39CGG   SI11 1387   6.739  12.676   8.906 -0.4875 -0.0321 -0.3052
   39CGG   SI12 1388   6.683  12.967   8.944 -0.3066 -0.2066  0.2869
   39CGG   SI45 1389   6.573  11.374   9.240  0.2710 -0.2819 -0.2931
   39CGG   SI46 1390   6.498  11.963   9.309 -0.1694 -0.6170  0.2786
   39CGG   SI47 1391   6.551  12.198   8.785  0.1057 -0.2145  0.1783
   39CGG   SI48 1392   6.612  11.602   8.721  0.3602  0.0434 -0.1882
   39CGG   SI49 1393   6.270  11.791   9.208 -0.5138 -0.2115 -0.1007
   39CGG   SI50 1394   6.308  11.503   9.184  0.0202  0.1403 -0.2905
   39CGG   SI51 1395   6.853  11.775   8.819  0.0124  0.4492 -0.3171
   39CGG   SI52 1396   6.817  12.070   8.840  0.3705  0.1331 -0.2084
   39CGG   SI85 1397   6.677  10.490   9.152  0.0502  0.0200  0.6354
   39CGG   SI86 1398   6.601  11.081   9.213 -0.2927  0.3449  0.1368
   39CGG   SI87 1399   6.649  11.305   8.682  0.0472 -0.3087  0.1269
   39CGG   SI88 1400   6.716  10.711   8.621 -0.0232  0.0840  0.1609
   39CGG   SI89 1401   6.370  10.910   9.116 -0.2409  0.1582 -0.1256
   39CGG   SI90 1402   6.417  10.619   9.095  0.2524 -0.1090  0.1414
   39CGG   SI91 1403   6.949  10.887   8.718  0.2734  0.3161 -0.1669
   39CGG   SI92 1404   6.912  11.181   8.748 -0.2895  0.0750 -0.0862
   40CGG    AL1 1405   6.025  13.013   9.027 -0.5208  0.2245  0.2988
   40CGG    AL2 1406   5.872  12.258   8.870 -0.1442  0.0315 -0.0718
   40CGG    AL3 1407   5.835  12.549   8.908  0.3927  0.0699 -0.4496
   40CGG    AL4 1408   6.060  12.717   8.998 -0.0985 -0.3846 -0.2316
   40CGG   AL41 1409   6.145  12.124   8.931 -0.0581  0.2855 -0.3946
   40CGG   AL42 1410   5.993  11.370   8.781  0.2921  0.0605 -0.1050
   40CGG   AL43 1411   5.950  11.659   8.809 -0.0637 -0.5058  0.2270
   40CGG   AL44 1412   6.175  11.830   8.901 -0.1747  0.0195  0.0570
   40CGG   AL81 1413   6.243  11.235   8.834 -0.0544  0.1819 -0.2632
   40CGG   AL82 1414   6.092  10.468   8.687  0.3773 -0.2217 -0.0936
   40CGG   AL83 1415   6.054  10.762   8.717 -0.0270 -0.2934 -0.3414
   40CGG   AL84 1416   6.283  10.933   8.808  0.0595 -0.6855 -0.1036
   40CGG    SI5 1417   5.974  12.231   9.177 -0.3627  0.0544 -0.1500
   40CGG    SI6 1418   5.894  12.816   9.247  0.1274  0.1491  0.0927
   40CGG    SI7 1419   5.925  13.048   8.722  0.0186 -0.1308 -0.1935
   40CGG    SI8 1420   6.002  12.459   8.656 -0.1735 -0.1686 -0.4905
   40CGG    SI9 1421   5.656  12.635   9.156  0.0438 -0.1869 -0.2919
   40CGG   SI10 1422   5.709  12.347   9.123 -0.1393  0.0712  0.1459
   40CGG   SI11 1423   6.240  12.624   8.754 -0.7187  0.0445 -0.3303
   40CGG   SI12 1424   6.191  12.918   8.777  0.4670 -0.1020  0.0775
   40CGG   SI45 1425   6.084  11.328   9.087  0.0427 -0.0669  0.0247
   40CGG   SI46 1426   6.014  11.930   9.150  0.2727  0.0115  0.5771
   40CGG   SI47 1427   6.059  12.165   8.626  0.1590 -0.1137  0.1352
   40CGG   SI48 1428   6.117  11.563   8.556  0.2131  0.0294  0.1893
   40CGG   SI49 1429   5.784  11.749   9.065  0.0904 -0.3610  0.5163
   40CGG   SI50 1430   5.820  11.460   9.024 -0.6326  0.1004 -0.6301
   40CGG   SI51 1431   6.350  11.733   8.655  0.0581 -0.0958 -0.1060
   40CGG   SI52 1432   6.317  12.025   8.687  0.2479  0.1036 -0.1699
   40CGG   SI85 1433   6.188  10.436   8.996 -0.2571  0.0796 -0.3658
   40CGG   SI86 1434   6.109  11.035   9.051  0.2094 -0.2733 -0.1544
   40CGG   SI87 1435   6.150  11.267   8.526 -0.1387 -0.3460  0.1091
   40CGG   SI88 1436   6.227  10.673   8.471 -0.0306  0.4887 -0.2949
   40CGG   SI89 1437   5.872  10.864   8.955 -0.2174  0.4808 -0.0717
   40CGG   SI90 1438   5.924  10.567   8.936  0.2245 -0.4024 -0.2250
   40CGG   SI91 1439   6.460  10.841   8.564  0.3251  0.4935 -0.2114
   40CGG   SI92 1440   6.411  11.134   8.595  0.1571 -0.1949  0.1745
   41CGG    AL1 1441  15.650  11.161  11.864 -0.0861  0.0980 -0.2686
   41CGG    AL2 1442  15.490  10.401  11.702 -0.2091  0.1760  0.1117
   41CGG    AL3 1443  15.456  10.692  11.732  0.1674 -0.6731 -0.2199
   41CGG    AL4 1444  15.676  10.871  11.828 -0.3857  0.2139 -0.2148
   41CGG   AL41 1445  15.766  10.285  11.766 -0.0599 -0.4958 -0.0161
   41CGG   AL42 1446  15.594   9.518  11.610  0.0205 -0.2474 -0.1093
   41CGG   AL43 1447  15.570   9.814  11.633  0.2112 -0.3420  0.2129
   41CGG   AL44 1448  15.797   9.986  11.734 -0.2909  0.0609  0.2174
   41CGG   AL81 1449  15.859   9.399  11.688  0.2330 -0.2201  0.4700
   41CGG   AL82 1450  15.713   8.627  11.516 -0.3685 -0.1879  0.6697
   41CGG   AL83 1451  15.684   8.929  11.556  0.5350  0.5481 -0.0654
   41CGG   AL84 1452  15.907   9.095  11.652  0.1650  0.2439  0.0439
   41CGG    SI5 1453  15.579  10.364  12.012 -0.1325 -0.6596  0.3344
   41CGG    SI6 1454  15.507  10.973  12.075 -0.2722  0.4671 -0.2219
   41CGG    SI7 1455  15.556  11.193  11.555 -0.0393  0.1416 -0.0465
   41CGG    SI8 1456  15.627  10.598  11.486 -0.3259  0.2605  0.4061
   41CGG    SI9 1457  15.279  10.799  11.975 -0.0890  0.0900  0.3518
   41CGG   SI10 1458  15.320  10.499  11.951 -0.1622  0.2306  0.1158
   41CGG   SI11 1459  15.861  10.776  11.588 -0.0991 -0.1862 -0.4080
   41CGG   SI12 1460  15.819  11.071  11.620  0.1292  0.2304  0.0174
   41CGG   SI45 1461  15.672   9.489  11.919  0.1430  0.4509  0.3150
   41CGG   SI46 1462  15.631  10.081  11.982 -0.0624  0.2882  0.3744
   41CGG   SI47 1463  15.668  10.314  11.454  0.1126  0.0053 -0.3925
   41CGG   SI48 1464  15.735   9.715  11.394  0.3005  0.1550 -0.0895
   41CGG   SI49 1465  15.400   9.905  11.877  0.3296 -0.1771  0.7734
   41CGG   SI50 1466  15.425   9.621  11.850 -0.0086  0.3216 -0.3087
   41CGG   SI51 1467  15.975   9.894  11.492  0.2291  0.2437  0.4955
   41CGG   SI52 1468  15.929  10.186  11.515  0.0470 -0.2801  0.1309
   41CGG   SI85 1469  15.802   8.594  11.824 -0.0805  0.3328  0.2940
   41CGG   SI86 1470  15.743   9.201  11.904 -0.2221  0.2146 -0.3798
   41CGG   SI87 1471  15.785   9.424  11.373  0.4847  0.1201  0.1335
   41CGG   SI88 1472  15.857   8.831  11.318  0.1131 -0.0092  0.5138
   41CGG   SI89 1473  15.504   9.020  11.804 -0.0334  0.4421 -0.0574
   41CGG   SI90 1474  15.542   8.726  11.765  0.2073 -0.1687 -0.3752
   41CGG   SI91 1475  16.079   9.006  11.411 -0.0118  0.0437 -0.1341
   41CGG   SI92 1476  16.044   9.297  11.441  0.3129  0.0616 -0.1830
   42CGG    AL1 1477  15.150  11.118  11.695  0.0267 -0.1489  0.0196
   42CGG    AL2 1478  15.001  10.352  11.541  0.0133  0.0863  0.1852
   42CGG    AL3 1479  14.966  10.645  11.570 -0.3950  0.0466 -0.2789
   42CGG    AL4 1480  15.190  10.830  11.662  0.0695  0.3414  0.0091
   42CGG   AL41 1481  15.270  10.223  11.593 -0.3130  0.5625 -0.2029
   42CGG   AL42 1482  15.115   9.472  11.452  0.3206  0.1563 -0.2249
   42CGG   AL43 1483  15.074   9.761  11.470  0.3592 -0.1048  0.3992
   42CGG   AL44 1484  15.300   9.937  11.561 -0.3073  0.0025  0.2828
   42CGG   AL81 1485  15.374   9.344  11.514  0.0790 -0.3151 -0.1435
   42CGG   AL82 1486  15.230   8.581  11.359  0.3989 -0.4040 -0.3413
   42CGG   AL83 1487  15.201   8.880  11.390  0.1422  0.1977 -0.3594
   42CGG   AL84 1488  15.423   9.050  11.490 -0.4135  0.1246  0.3533
   42CGG    SI5 1489  15.095  10.320  11.837  0.1226 -0.3046 -0.3170
   42CGG    SI6 1490  15.019  10.919  11.914  0.1258 -0.4750 -0.0461
   42CGG    SI7 1491  15.052  11.153  11.389  0.5698  0.4652 -0.1220
   42CGG    SI8 1492  15.133  10.556  11.328 -0.0679 -0.2313  0.0434
   42CGG    SI9 1493  14.788  10.736  11.822  0.1031 -0.1936  0.2611
   42CGG   SI10 1494  14.831  10.446  11.784 -0.3892  0.2328 -0.1735
   42CGG   SI11 1495  15.367  10.734  11.421 -0.0964  0.7145  0.0798
   42CGG   SI12 1496  15.324  11.027  11.446  0.5575 -0.2336  0.4229
   42CGG   SI45 1497  15.196   9.440  11.763  0.2236  0.0832  0.1537
   42CGG   SI46 1498  15.136  10.032  11.810 -0.0621 -0.0661  0.2127
   42CGG   SI47 1499  15.176  10.262  11.288  0.1867  0.6864 -0.0442
   42CGG   SI48 1500  15.255   9.661  11.235  0.2497  0.0593  0.4840
   42CGG   SI49 1501  14.902   9.857  11.710 -0.3029 -0.0754 -0.2006
   42CGG   SI50 1502  14.941   9.569  11.691  0.0863 -0.2137  0.0246
   42CGG   SI51 1503  15.481   9.840  11.325  0.2212  0.2744  0.0293
   42CGG   SI52 1504  15.437  10.131  11.341 -0.0874 -0.0336  0.1259
   42CGG   SI85 1505  15.315   8.553  11.665  0.3169  0.2776  0.4994
   42CGG   SI86 1506  15.247   9.147  11.732 -0.1182 -0.2488 -0.2205
   42CGG   SI87 1507  15.287   9.370  11.213 -0.0782 -0.4147  0.1091
   42CGG   SI88 1508  15.366   8.780  11.145 -0.5017  0.1287  0.1766
   42CGG   SI89 1509  15.018   8.964  11.637  0.3483  0.0410  0.0391
   42CGG   SI90 1510  15.050   8.677  11.601 -0.1101 -0.0416  0.0950
   42CGG   SI91 1511  15.606   8.956  11.240 -0.0296 -0.0594 -0.2387
   42CGG   SI92 1512  15.554   9.250  11.278  0.2496  0.4339 -0.2917
   43CGG    AL1 1513  14.658  11.065  11.541 -0.1474 -0.1994  0.3872
   43CGG    AL2 1514  14.512  10.314  11.379  0.4149 -0.0971 -0.2188
   43CGG    AL3 1515  14.478  10.609  11.409 -0.2445  0.3850 -0.2530
   43CGG    AL4 1516  14.708  10.771  11.508  0.2540 -0.0081  0.1960
   43CGG   AL41 1517  14.780  10.180  11.439 -0.1752  0.1491  0.1169
   43CGG   AL42 1518  14.618   9.421  11.286 -0.3740 -0.2142  0.2273
   43CGG   AL43 1519  14.586   9.716  11.320  0.2137  0.3063 -0.4112
   43CGG   AL44 1520  14.818   9.884  11.406  0.0964 -0.0119 -0.3806
   43CGG   AL81 1521  14.889   9.288  11.355 -0.2454 -0.0101 -0.0555
   43CGG   AL82 1522  14.735   8.538  11.190 -0.2726  0.0843  0.0169
   43CGG   AL83 1523  14.703   8.821  11.222 -0.2301  0.1281 -0.0244
   43CGG   AL84 1524  14.932   8.998  11.322  0.4387 -0.2096  0.0649
   43CGG    SI5 1525  14.611  10.279  11.686  0.2871 -0.1247 -0.0149
   43CGG    SI6 1526  14.534  10.871  11.751 -0.1298 -0.2197  0.2467
   43CGG    SI7 1527  14.578  11.105  11.228 -0.2977 -0.2531  0.0410
   43CGG    SI8 1528  14.647  10.507  11.161 -0.2060  0.0099  0.0626
   43CGG    SI9 1529  14.302  10.697  11.658  0.1524  0.1923  0.2546
   43CGG   SI10 1530  14.345  10.412  11.631  0.1210  0.1741  0.1881
   43CGG   SI11 1531  14.877  10.675  11.264  0.1833  0.1877 -0.2702
   43CGG   SI12 1532  14.833  10.966  11.296  0.2103 -0.1713  0.3130
   43CGG   SI45 1533  14.722   9.400  11.593 -0.0097  0.3887  0.0877
   43CGG   SI46 1534  14.644   9.992  11.656  0.4858 -0.0276  0.3822
   43CGG   SI47 1535  14.688  10.217  11.134  0.0084 -0.0344  0.2183
   43CGG   SI48 1536  14.763   9.616  11.069  0.4746  0.0290 -0.2515
   43CGG   SI49 1537  14.410   9.819  11.564  0.7956  0.0959  0.0176
   43CGG   SI50 1538  14.460   9.523  11.535 -0.0006  0.2897  0.5549
   43CGG   SI51 1539  14.992   9.796  11.162  0.1967 -0.4161 -0.3290
   43CGG   SI52 1540  14.950  10.090  11.189 -0.5824  0.2173  0.3068
   43CGG   SI85 1541  14.836   8.507  11.496  0.0098  0.0560 -0.5045
   43CGG   SI86 1542  14.763   9.101  11.574 -0.2848  0.2019 -0.5398
   43CGG   SI87 1543  14.800   9.323  11.043  0.2150 -0.1998  0.1080
   43CGG   SI88 1544  14.878   8.728  10.971  0.3939 -0.0969  0.0084
   43CGG   SI89 1545  14.527   8.918  11.471  0.0717  0.4208 -0.0977
   43CGG   SI90 1546  14.565   8.626  11.440 -0.4960  0.5133  0.1249
   43CGG   SI91 1547  15.110   8.905  11.083 -0.1437  0.2193 -0.2912
   43CGG   SI92 1548  15.064   9.196  11.111 -0.2698  0.0953  0.2110
   44CGG    AL1 1549  14.173  11.019  11.373 -0.3160  0.3678 -0.2599
   44CGG    AL2 1550  14.020  10.269  11.216  0.2515 -0.3018  0.0074
   44CGG    AL3 1551  13.989  10.563  11.252 -0.6699 -0.1392  0.3246
   44CGG    AL4 1552  14.221  10.729  11.345 -0.3017 -0.4333  0.0668
   44CGG   AL41 1553  14.292  10.133  11.279 -0.0732 -0.1340 -0.0410
   44CGG   AL42 1554  14.142   9.382  11.119  0.3211  0.0492 -0.2544
   44CGG   AL43 1555  14.097   9.685  11.158 -0.0785 -0.1553  0.8574
   44CGG   AL44 1556  14.324   9.856  11.255 -0.3629 -0.1687 -0.0519
   44CGG   AL81 1557  14.401   9.246  11.189 -0.0210  0.3026  0.1265
   44CGG   AL82 1558  14.250   8.494  11.025  0.1926 -0.3546 -0.1750
   44CGG   AL83 1559  14.209   8.783  11.061 -0.1297  0.4066 -0.1132
   44CGG   AL84 1560  14.437   8.955  11.165  0.2788  0.2579  0.3906
   44CGG    SI5 1561  14.110  10.239  11.522 -0.7064 -0.0611  0.2325
   44CGG    SI6 1562  14.043  10.832  11.595  0.1242  0.1762 -0.3009
   44CGG    SI7 1563  14.081  11.056  11.066 -0.1764 -0.4923  0.0189
   44CGG    SI8 1564  14.159  10.470  11.005  0.0075 -0.0406  0.3601
   44CGG    SI9 1565  13.809  10.651  11.499  0.0568  0.0096  0.0432
   44CGG   SI10 1566  13.853  10.367  11.464  0.0267  0.4099 -0.0796
   44CGG   SI11 1567  14.391  10.633  11.099 -0.1025  0.7184 -0.2137
   44CGG   SI12 1568  14.345  10.920  11.129  0.1037 -0.0820  0.3519
   44CGG   SI45 1569  14.229   9.347  11.429 -0.3301  0.0809 -0.4078
   44CGG   SI46 1570  14.152   9.942  11.496  0.1962 -0.0528  0.4819
   44CGG   SI47 1571  14.194  10.176  10.972  0.0639 -0.4595 -0.1773
   44CGG   SI48 1572  14.265   9.581  10.906  0.2550 -0.2548  0.2535
   44CGG   SI49 1573  13.913   9.762  11.406 -0.5045 -0.1108  0.4652
   44CGG   SI50 1574  13.967   9.472  11.359 -0.4610 -0.1341 -0.1984
   44CGG   SI51 1575  14.499   9.752  11.011 -0.2242  0.2065  0.1794
   44CGG   SI52 1576  14.463  10.039  11.027  0.2617 -0.2859  0.0073
   44CGG   SI85 1577  14.343   8.446  11.330  0.1910  0.1733  0.1886
   44CGG   SI86 1578  14.266   9.053  11.405 -0.6313  0.1426 -0.0851
   44CGG   SI87 1579  14.310   9.289  10.880  0.1036 -0.1611 -0.1837
   44CGG   SI88 1580  14.392   8.695  10.816 -0.0196  0.4660 -0.1085
   44CGG   SI89 1581  14.034   8.871  11.305  0.0765 -0.1993 -0.2126
   44CGG   SI90 1582  14.077   8.576  11.270 -0.7647  0.1840 -0.0468
   44CGG   SI91 1583  14.621   8.857  10.914  0.0921 -0.0049  0.1810
   44CGG   SI92 1584  14.571   9.146  10.943  0.0324  0.1594  0.1025
   45CGG    AL1 1585  13.681  10.980  11.220  0.3133  0.0146  0.2336
   45CGG    AL2 1586  13.525  10.222  11.062  0.4048 -0.4295  0.1906
   45CGG    AL3 1587  13.503  10.525  11.100  0.2264 -0.0219  0.2612
   45CGG    AL4 1588  13.725  10.691  11.197 -0.3781 -0.0793  0.3184
   45CGG   AL41 1589  13.796  10.094  11.120  0.4187  0.2907  0.0860
   45CGG   AL42 1590  13.645   9.323  10.971 -0.1328  0.0265 -0.1311
   45CGG   AL43 1591  13.605   9.631  11.004  0.4550  0.8188  0.0817
   45CGG   AL44 1592  13.832   9.801  11.094  0.0618  0.2779  0.0768
   45CGG   AL81 1593  13.912   9.209  11.028 -0.1596  0.5635 -0.3658
   45CGG   AL82 1594  13.761   8.441  10.855  0.1962  0.5310  0.0217
   45CGG   AL83 1595  13.723   8.733  10.900  0.1274 -0.2820  0.0322
   45CGG   AL84 1596  13.951   8.912  10.992 -0.1547  0.0010 -0.2435
   45CGG    SI5 1597  13.621  10.199  11.372 -0.0090 -0.2513 -0.1159
   45CGG    SI6 1598  13.552  10.794  11.437  0.4731  0.1063 -0.5690
   45CGG    SI7 1599  13.584  11.017  10.917 -0.0723 -0.2860  0.4095
   45CGG    SI8 1600  13.664  10.419  10.849  0.2254 -0.1666 -0.5123
   45CGG    SI9 1601  13.320  10.627  11.337 -0.3904  0.2446  0.0794
   45CGG   SI10 1602  13.361  10.333  11.314  0.0335 -0.3475  0.4826
   45CGG   SI11 1603  13.900  10.597  10.950  0.3451 -0.0326  0.2959
   45CGG   SI12 1604  13.848  10.893  10.975  0.4847 -0.1555  0.1780
   45CGG   SI45 1605  13.742   9.306  11.275 -0.3255  0.0300  0.1386
   45CGG   SI46 1606  13.660   9.903  11.344  0.5542  0.3927  0.3859
   45CGG   SI47 1607  13.705  10.131  10.820  0.3364  0.8388 -0.3146
   45CGG   SI48 1608  13.778   9.527  10.754  0.1923 -0.2002  0.1461
   45CGG   SI49 1609  13.428   9.727  11.244 -0.2731  0.2638 -0.0456
   45CGG   SI50 1610  13.484   9.431  11.223  0.2732 -0.2940  0.5817
   45CGG   SI51 1611  14.006   9.710  10.853  0.1394  0.2678  0.0002
   45CGG   SI52 1612  13.964  10.004  10.875 -0.2322 -0.5135  0.3876
   45CGG   SI85 1613  13.858   8.415  11.161  0.6556 -0.7591  0.1557
   45CGG   SI86 1614  13.785   9.007  11.250  0.1805 -0.0436 -0.0778
   45CGG   SI87 1615  13.817   9.235  10.721  0.0930  0.1038 -0.6060
   45CGG   SI88 1616  13.900   8.639  10.653  0.2273 -0.0027 -0.0647
   45CGG   SI89 1617  13.553   8.826  11.151  0.0122  0.1899  0.0784
   45CGG   SI90 1618  13.596   8.538  11.110  0.2856  0.3827  0.4068
   45CGG   SI91 1619  14.131   8.820  10.748 -0.3557  0.0002  0.2478
   45CGG   SI92 1620  14.088   9.112  10.782 -0.1416  0.5099 -0.0857
   46CGG    AL1 1621  13.180  10.938  11.057 -0.1380  0.0933 -0.0228
   46CGG    AL2 1622  13.046  10.185  10.908  0.2276 -0.4776 -0.0003
   46CGG    AL3 1623  12.995  10.480  10.938  0.1282  0.1759  0.1060
   46CGG    AL4 1624  13.229  10.640  11.033  0.3036 -0.2358 -0.1949
   46CGG   AL41 1625  13.294  10.059  10.969  0.1398  0.2166  0.7327
   46CGG   AL42 1626  13.154   9.289  10.806  0.2553 -0.1935  0.3179
   46CGG   AL43 1627  13.109   9.593  10.835 -0.5309  0.1837 -0.1454
   46CGG   AL44 1628  13.339   9.757  10.937 -0.7486  0.5223 -0.1490
   46CGG   AL81 1629  13.416   9.160  10.865 -0.2955  0.1142  0.0917
   46CGG   AL82 1630  13.270   8.406  10.691  0.4364  0.1058  0.3671
   46CGG   AL83 1631  13.234   8.701  10.733  0.2616  0.1090 -0.2489
   46CGG   AL84 1632  13.468   8.855  10.841  0.1514 -0.3774 -0.0448
   46CGG    SI5 1633  13.129  10.153  11.219 -0.1799  0.0745 -0.1883
   46CGG    SI6 1634  13.059  10.745  11.280  0.0885 -0.3104  0.2533
   46CGG    SI7 1635  13.097  10.969  10.751 -0.2908 -0.5769  0.0487
   46CGG    SI8 1636  13.175  10.376  10.694  0.3614 -0.1193  0.0789
   46CGG    SI9 1637  12.816  10.572  11.178  0.0340  0.0978  0.0885
   46CGG   SI10 1638  12.869  10.285  11.151 -0.1422  0.5727 -0.4577
   46CGG   SI11 1639  13.402  10.548  10.788 -0.5273 -0.1855 -0.2285
   46CGG   SI12 1640  13.355  10.837  10.811 -0.5232  0.1490 -0.0264
   46CGG   SI45 1641  13.249   9.262  11.109  0.1657  0.2283 -0.3650
   46CGG   SI46 1642  13.166   9.852  11.187  0.2142  0.1046 -0.0641
   46CGG   SI47 1643  13.217  10.083  10.656  0.0725 -0.1089  0.2401
   46CGG   SI48 1644  13.285   9.491  10.594 -0.2853  0.0111  0.1106
   46CGG   SI49 1645  12.930   9.680  11.084 -0.3018  0.0486 -0.4211
   46CGG   SI50 1646  12.986   9.388  11.055  0.3906 -0.6339 -0.1301
   46CGG   SI51 1647  13.521   9.666  10.691  0.5174  0.2241  0.0904
   46CGG   SI52 1648  13.469   9.963  10.730  0.2056  0.7465  0.4027
   46CGG   SI85 1649  13.366   8.370  10.993 -0.2883  0.4564  0.0303
   46CGG   SI86 1650  13.296   8.961  11.088 -0.1359 -0.2432  0.4541
   46CGG   SI87 1651  13.330   9.199  10.560 -0.2880 -0.0139  0.0622
   46CGG   SI88 1652  13.406   8.611  10.482 -0.1355  0.0143 -0.3760
   46CGG   SI89 1653  13.059   8.786  10.983 -0.3596 -0.3060 -0.2503
   46CGG   SI90 1654  13.098   8.498  10.938 -0.6665  0.5259 -0.3285
   46CGG   SI91 1655  13.644   8.768  10.595  0.1313 -0.0754  0.2144
   46CGG   SI92 1656  13.587   9.064  10.622  0.3387  0.2388 -0.0063
   47CGG    AL1 1657  12.699  10.903  10.894 -0.1324 -0.0731  0.0652
   47CGG    AL2 1658  12.553  10.139  10.737  0.0067  0.1241  0.0131
   47CGG    AL3 1659  12.508  10.440  10.769 -0.0821 -0.3263 -0.4335
   47CGG    AL4 1660  12.731  10.610  10.869  0.2867  0.3290  0.3640
   47CGG   AL41 1661  12.815  10.013  10.803 -0.4552 -0.3241  0.1462
   47CGG   AL42 1662  12.666   9.250  10.644  0.5009  0.5839  0.2018
   47CGG   AL43 1663  12.634   9.543  10.676  0.1161 -0.2620  0.0901
   47CGG   AL44 1664  12.851   9.721  10.776 -0.2502  0.3022 -0.1759
   47CGG   AL81 1665  12.926   9.125  10.704 -0.0159  0.2278  0.1054
   47CGG   AL82 1666  12.781   8.364  10.528 -0.0336 -0.4204  0.1957
   47CGG   AL83 1667  12.753   8.660  10.564  0.1449  0.1866  0.1572
   47CGG   AL84 1668  12.975   8.830  10.679 -0.1068 -0.0464  0.4499
   47CGG    SI5 1669  12.641  10.115  11.042 -0.1558 -0.1547  0.0143
   47CGG    SI6 1670  12.560  10.710  11.111  0.4760 -0.2478 -0.5635
   47CGG    SI7 1671  12.618  10.944  10.583 -0.4076  0.0429  0.0956
   47CGG    SI8 1672  12.686  10.343  10.534 -0.4248 -0.0599  0.3480
   47CGG    SI9 1673  12.335  10.539  11.012  0.3275  0.8108  0.3840
   47CGG   SI10 1674  12.379  10.240  10.983  0.0772 -0.3077 -0.3413
   47CGG   SI11 1675  12.919  10.517  10.631  0.3060 -0.3694  0.3720
   47CGG   SI12 1676  12.871  10.808  10.649  0.3008 -0.4897 -0.2362
   47CGG   SI45 1677  12.759   9.219  10.951 -0.0612  0.1046 -0.0116
   47CGG   SI46 1678  12.679   9.818  11.012  0.0493 -0.0386 -0.0315
   47CGG   SI47 1679  12.731  10.051  10.498 -0.0273  0.2603 -0.3531
   47CGG   SI48 1680  12.804   9.449  10.434  0.0507 -0.5486  0.4940
   47CGG   SI49 1681  12.451   9.639  10.913 -0.4015 -0.3398  0.2371
   47CGG   SI50 1682  12.498   9.344  10.888 -0.0158  0.3588  0.3916
   47CGG   SI51 1683  13.031   9.630  10.530  0.1572  0.2626 -0.0125
   47CGG   SI52 1684  12.986   9.916  10.561 -0.4262 -0.1774 -0.2260
   47CGG   SI85 1685  12.875   8.326  10.834 -0.0291  0.2148 -0.2313
   47CGG   SI86 1686  12.799   8.923  10.922  0.0778 -0.0976 -0.2206
   47CGG   SI87 1687  12.847   9.159  10.394  0.7932 -0.1969 -0.1133
   47CGG   SI88 1688  12.929   8.563  10.321  0.0265 -0.4397 -0.0336
   47CGG   SI89 1689  12.564   8.745  10.813 -0.4386 -0.2416  0.5508
   47CGG   SI90 1690  12.616   8.458  10.770  0.5517  0.2930  0.1404
   47CGG   SI91 1691  13.145   8.746  10.430 -0.2606  0.1882 -0.1675
   47CGG   SI92 1692  13.102   9.031  10.466  0.0978  0.0273 -0.2268
   48CGG    AL1 1693  12.214  10.859  10.725  0.0929 -0.0523 -0.2730
   48CGG    AL2 1694  12.069  10.098  10.568  0.3289  0.5019 -0.0110
   48CGG    AL3 1695  12.028  10.401  10.607 -0.1849 -0.0146  0.0571
   48CGG    AL4 1696  12.252  10.578  10.706  0.1045  0.1906 -0.1526
   48CGG   AL41 1697  12.322   9.968  10.635 -0.7234 -0.1583 -0.0603
   48CGG   AL42 1698  12.180   9.206  10.469  0.0724  0.3094  0.1375
   48CGG   AL43 1699  12.143   9.496  10.506 -0.4009 -0.3283 -0.6186
   48CGG   AL44 1700  12.366   9.668  10.609 -0.1900 -0.0556  0.1608
   48CGG   AL81 1701  12.439   9.076  10.528 -0.1364 -0.2199  0.3830
   48CGG   AL82 1702  12.296   8.318  10.361  0.1574 -0.1931 -0.0568
   48CGG   AL83 1703  12.259   8.606  10.397  0.3117 -0.2260  0.4882
   48CGG   AL84 1704  12.488   8.779  10.497 -0.2491 -0.0839  0.1993
   48CGG    SI5 1705  12.150  10.070  10.876  0.0725 -0.1323 -0.2939
   48CGG    SI6 1706  12.078  10.668  10.954  0.3195 -0.2811 -0.1848
   48CGG    SI7 1707  12.127  10.894  10.415  0.4918  0.1150 -0.1540
   48CGG    SI8 1708  12.199  10.298  10.363 -0.1407  0.2096  0.1167
   48CGG    SI9 1709  11.848  10.491  10.847 -0.0958  0.1858 -0.2201
   48CGG   SI10 1710  11.896  10.200  10.813 -0.1415 -0.2607 -0.0615
   48CGG   SI11 1711  12.428  10.478  10.464 -0.3541  0.1914  0.1084
   48CGG   SI12 1712  12.392  10.764  10.483 -0.5473 -0.0253  0.1563
   48CGG   SI45 1713  12.272   9.168  10.772  0.0513 -0.3474 -0.1491
   48CGG   SI46 1714  12.195   9.772  10.850  0.8739 -0.1229  0.1356
   48CGG   SI47 1715  12.244   9.998  10.327  0.0983  0.1947  0.0305
   48CGG   SI48 1716  12.316   9.411  10.260  0.1929  0.2393  0.2794
   48CGG   SI49 1717  11.967   9.595  10.747  0.0409  0.2667 -0.4560
   48CGG   SI50 1718  12.006   9.297  10.717 -0.3521 -0.2491 -0.1064
   48CGG   SI51 1719  12.548   9.581  10.365  0.1155  0.0386  0.4075
   48CGG   SI52 1720  12.499   9.871  10.395  0.0008  0.0456  0.1030
   48CGG   SI85 1721  12.391   8.279  10.664 -0.0014  0.2825 -0.5071
   48CGG   SI86 1722  12.318   8.876  10.746 -0.0811 -0.0746 -0.0286
   48CGG   SI87 1723  12.357   9.117  10.221 -0.3128 -0.0130 -0.1919
   48CGG   SI88 1724  12.438   8.518  10.149  0.2667 -0.0088 -0.2199
   48CGG   SI89 1725  12.082   8.705  10.641  0.3158  0.0943 -0.1963
   48CGG   SI90 1726  12.124   8.409  10.610  0.0733  0.3121  0.2059
   48CGG   SI91 1727  12.667   8.692  10.253 -0.0165  0.1490  0.1666
   48CGG   SI92 1728  12.616   8.984  10.289 -0.0743 -0.2967  0.3856
   49CGG    AL1 1729  11.730  10.819  10.557  0.3751 -0.2193 -0.0834
   49CGG    AL2 1730  11.571  10.054  10.400  0.2071 -0.1444  0.4888
   49CGG    AL3 1731  11.537  10.365  10.432 -0.3604 -0.1466 -0.1772
   49CGG    AL4 1732  11.770  10.523  10.531 -0.2288 -0.2862 -0.3940
   49CGG   AL41 1733  11.836   9.932  10.463 -0.2117 -0.0655 -0.3109
   49CGG   AL42 1734  11.693   9.171  10.301  0.5262  0.3889 -0.3887
   49CGG   AL43 1735  11.649   9.475  10.340 -0.2891 -0.1818 -0.0586
   49CGG   AL44 1736  11.877   9.639  10.441  0.1342 -0.6105  0.5423
   49CGG   AL81 1737  11.953   9.035  10.361  0.2435  0.5855  0.1836
   49CGG   AL82 1738  11.814   8.263  10.201 -0.0532  0.0186  0.0819
   49CGG   AL83 1739  11.773   8.555  10.224 -0.2345 -0.6487  0.2692
   49CGG   AL84 1740  11.999   8.729  10.330  0.2059  0.2565  0.3558
   49CGG    SI5 1741  11.669  10.031  10.707 -0.0040  0.0443 -0.5623
   49CGG    SI6 1742  11.594  10.631  10.776 -0.0413  0.0287  0.4880
   49CGG    SI7 1743  11.642  10.855  10.248 -0.2722 -0.2323 -0.5175
   49CGG    SI8 1744  11.714  10.258  10.194  0.0479  0.7510  0.5197
   49CGG    SI9 1745  11.360  10.456  10.674  0.3770 -0.3552  0.0963
   49CGG   SI10 1746  11.405  10.163  10.649 -0.5349  1.0150  0.0898
   49CGG   SI11 1747  11.950  10.433  10.291  0.3740  0.2860 -0.1597
   49CGG   SI12 1748  11.900  10.726  10.311  0.4181  0.5687  0.1038
   49CGG   SI45 1749  11.788   9.134  10.603 -0.2766 -0.3055 -0.4894
   49CGG   SI46 1750  11.706   9.736  10.683  0.8093  0.0253  0.0944
   49CGG   SI47 1751  11.749   9.965  10.151 -0.1867 -0.4820 -0.0738
   49CGG   SI48 1752  11.832   9.362  10.097 -0.2082 -0.5512  0.4020
   49CGG   SI49 1753  11.472   9.560  10.584  0.5658 -0.6200 -0.2987
   49CGG   SI50 1754  11.529   9.265  10.559 -0.1552  0.2421  0.5727
   49CGG   SI51 1755  12.058   9.542  10.194 -0.2237 -0.0374  0.0900
   49CGG   SI52 1756  12.017   9.840  10.219  0.0418 -0.1090  0.0145
   49CGG   SI85 1757  11.905   8.237  10.514 -0.2949 -0.3628  0.1778
   49CGG   SI86 1758  11.818   8.835  10.578 -0.3885 -0.0637  0.1776
   49CGG   SI87 1759  11.872   9.067  10.053  0.1858 -0.1631 -0.1758
   49CGG   SI88 1760  11.955   8.468   9.985  0.3135 -0.2175 -0.1208
   49CGG   SI89 1761  11.595   8.653  10.474 -0.4893  0.0894  0.0647
   49CGG   SI90 1762  11.644   8.365  10.444  0.4172 -0.6724  0.0814
   49CGG   SI91 1763  12.180   8.652  10.086  0.2748  0.5600  0.3000
   49CGG   SI92 1764  12.136   8.943  10.119  0.4176  0.1364  0.2937
   50CGG    AL1 1765  11.238  10.768  10.381 -0.2584 -0.2669 -0.2574
   50CGG    AL2 1766  11.082  10.012  10.245  0.0238 -0.1679 -0.1588
   50CGG    AL3 1767  11.053  10.306  10.284  0.2566  0.4275  0.2514
   50CGG    AL4 1768  11.271  10.485  10.362 -0.4482  0.4384 -0.1102
   50CGG   AL41 1769  11.352   9.883  10.297  0.0250 -0.5100  0.0459
   50CGG   AL42 1770  11.207   9.120  10.138 -0.3432  0.0182  0.2828
   50CGG   AL43 1771  11.172   9.414  10.173  0.5801 -0.0900  0.1961
   50CGG   AL44 1772  11.397   9.597  10.270  0.5974 -0.0190  0.0045
   50CGG   AL81 1773  11.470   8.985  10.194 -0.2044  0.2838  0.1034
   50CGG   AL82 1774  11.317   8.220  10.037  0.2483 -0.1095 -0.3487
   50CGG   AL83 1775  11.281   8.524  10.070  0.0069 -0.0633 -0.3899
   50CGG   AL84 1776  11.515   8.688  10.163 -0.1658  0.3932  0.1852
   50CGG    SI5 1777  11.176   9.978  10.545  0.1398 -0.0154 -0.4163
   50CGG    SI6 1778  11.103  10.581  10.605 -0.0285  0.0394 -0.1997
   50CGG    SI7 1779  11.144  10.802  10.077  0.1720 -0.3547 -0.4622
   50CGG    SI8 1780  11.210  10.214  10.032  0.3005 -0.0684 -0.3366
   50CGG    SI9 1781  10.870  10.397  10.515 -0.4348  0.0072  0.0035
   50CGG   SI10 1782  10.913  10.104  10.491  0.0156 -0.0377 -0.4340
   50CGG   SI11 1783  11.457  10.379  10.125  0.0396  0.1773  0.4997
   50CGG   SI12 1784  11.412  10.673  10.142  0.1741 -0.3085  0.2692
   50CGG   SI45 1785  11.298   9.082  10.445 -0.3367 -0.2367  0.2426
   50CGG   SI46 1786  11.217   9.691  10.517  0.5333  0.0488  0.3947
   50CGG   SI47 1787  11.256   9.920  10.001 -0.0618 -0.2760  0.1933
   50CGG   SI48 1788  11.343   9.318   9.925 -0.1955  0.3223  0.1895
   50CGG   SI49 1789  10.988   9.505  10.417  0.1886  0.2181  0.1639
   50CGG   SI50 1790  11.037   9.210  10.391 -0.0746 -0.1391 -0.2458
   50CGG   SI51 1791  11.569   9.496  10.029  0.0850  0.0374  0.1834
   50CGG   SI52 1792  11.520   9.787  10.046  0.0703  0.0776  0.3306
   50CGG   SI85 1793  11.406   8.190  10.340  0.1949  0.0871 -0.1999
   50CGG   SI86 1794  11.336   8.785  10.411 -0.0090 -0.1703  0.2711
   50CGG   SI87 1795  11.384   9.030   9.884 -0.0149 -0.0019 -0.3231
   50CGG   SI88 1796  11.455   8.423   9.823  0.0439 -0.1679  0.2885
   50CGG   SI89 1797  11.104   8.619  10.308  0.2757 -0.0130 -0.4852
   50CGG   SI90 1798  11.144   8.325  10.285  0.4887  0.0828  0.4156
   50CGG   SI91 1799  11.686   8.594   9.915 -0.1169  0.3014 -0.2938
   50CGG   SI92 1800  11.642   8.888   9.950  0.1166 -0.0084  0.0208
   51CGG    AL1 1801  10.746  10.724  10.227 -0.2725 -0.1984  0.0153
   51CGG    AL2 1802  10.599   9.968  10.081  0.0048 -0.0194  0.1527
   51CGG    AL3 1803  10.560  10.263  10.117 -0.0065 -0.4166  0.0214
   51CGG    AL4 1804  10.785  10.439  10.207 -0.5580 -0.0576  0.3117
   51CGG   AL41 1805  10.864   9.836  10.146 -0.3138  0.2023 -0.3069
   51CGG   AL42 1806  10.711   9.076   9.978 -0.1362 -0.1685  0.0785
   51CGG   AL43 1807  10.681   9.369  10.019  0.3106 -0.3147  0.1629
   51CGG   AL44 1808  10.902   9.553  10.108 -0.2631  0.3086 -0.7517
   51CGG   AL81 1809  10.991   8.937  10.040 -0.4345  0.4545  0.5791
   51CGG   AL82 1810  10.834   8.182   9.877  0.4181  0.2358  0.2381
   51CGG   AL83 1811  10.796   8.480   9.905  0.1469  0.4003 -0.0894
   51CGG   AL84 1812  11.017   8.656  10.002  0.1068 -0.3704 -0.0633
   51CGG    SI5 1813  10.695   9.937  10.386  0.0800  0.0745 -0.5113
   51CGG    SI6 1814  10.618  10.540  10.454  0.1708 -0.3948 -0.2728
   51CGG    SI7 1815  10.661  10.757   9.926  0.1292  0.2975  0.2372
   51CGG    SI8 1816  10.734  10.167   9.875  0.1747 -0.0622 -0.0201
   51CGG    SI9 1817  10.389  10.366  10.354  0.1866  0.3411  0.3737
   51CGG   SI10 1818  10.432  10.070  10.332 -0.0176  0.5661  0.0025
   51CGG   SI11 1819  10.962  10.341   9.969  0.1078  0.4773 -0.8111
   51CGG   SI12 1820  10.920  10.631   9.986 -0.0175 -0.1210  0.1069
   51CGG   SI45 1821  10.812   9.044  10.287 -0.3178  0.3266  0.0088
   51CGG   SI46 1822  10.731   9.643  10.360  0.1024  0.5607  0.3287
   51CGG   SI47 1823  10.774   9.876   9.835 -0.3490 -0.1409  0.0668
   51CGG   SI48 1824  10.853   9.279   9.765  0.3032  0.0890  0.1214
   51CGG   SI49 1825  10.497   9.457  10.265 -0.2562  0.0121  0.1310
   51CGG   SI50 1826  10.548   9.162  10.232 -0.2057 -0.6295  0.3838
   51CGG   SI51 1827  11.085   9.455   9.866 -0.2726  0.0964 -0.0849
   51CGG   SI52 1828  11.035   9.753   9.901  0.1505 -0.0735  0.0609
   51CGG   SI85 1829  10.926   8.145  10.177  0.0589  0.0975  0.2523
   51CGG   SI86 1830  10.853   8.742  10.254  0.5118 -0.0116 -0.4671
   51CGG   SI87 1831  10.897   8.985   9.735 -0.4725 -0.1815 -0.0185
   51CGG   SI88 1832  10.964   8.381   9.664 -0.2680  0.0440  0.2391
   51CGG   SI89 1833  10.619   8.573  10.149 -0.0561  0.0086  0.1282
   51CGG   SI90 1834  10.664   8.276  10.123 -0.6198 -0.0221 -0.4140
   51CGG   SI91 1835  11.195   8.557   9.764  0.3207  0.0453 -0.0102
   51CGG   SI92 1836  11.160   8.851   9.793  0.2238  0.0543 -0.1650
   52CGG    AL1 1837  10.262  10.678  10.065  0.3631  0.0907 -0.1132
   52CGG    AL2 1838  10.119   9.917   9.917  0.0767 -0.5978  0.1500
   52CGG    AL3 1839  10.078  10.219   9.946 -0.8632  0.9025  0.0144
   52CGG    AL4 1840  10.299  10.389  10.048 -0.2435 -0.0651  0.2482
   52CGG   AL41 1841  10.374   9.796   9.978 -0.1603  0.3620 -0.5274
   52CGG   AL42 1842  10.220   9.027   9.818 -0.6752 -0.3625 -0.2013
   52CGG   AL43 1843  10.187   9.328   9.857  0.0898  0.6503 -0.2835
   52CGG   AL44 1844  10.408   9.495   9.956 -0.0656  0.3228  0.3060
   52CGG   AL81 1845  10.489   8.898   9.873  0.0795 -0.0817  0.0399
   52CGG   AL82 1846  10.339   8.139   9.712  0.1530  0.0324  0.2366
   52CGG   AL83 1847  10.295   8.424   9.750 -0.1518  0.0106 -0.0051
   52CGG   AL84 1848  10.525   8.601   9.846 -0.6175 -0.5621  0.8468
   52CGG    SI5 1849  10.200   9.892  10.228  0.0760  0.4463  0.3843
   52CGG    SI6 1850  10.131  10.491  10.285 -0.1930  0.0171 -0.4579
   52CGG    SI7 1851  10.169  10.714   9.762  0.2410  0.2240  0.2216
   52CGG    SI8 1852  10.252  10.117   9.705  0.2580  0.2696 -0.2114
   52CGG    SI9 1853   9.899  10.316  10.189 -0.0538  0.0324  0.1794
   52CGG   SI10 1854   9.944  10.025  10.161  0.0446  0.2251 -0.1357
   52CGG   SI11 1855  10.483  10.293   9.807  0.3879  0.8090 -0.2409
   52CGG   SI12 1856  10.432  10.580   9.822 -0.4367  0.2116  0.1777
   52CGG   SI45 1857  10.321   8.993  10.126  0.4665  0.5888  0.1288
   52CGG   SI46 1858  10.243   9.596  10.202  0.2819 -0.0481  0.0252
   52CGG   SI47 1859  10.289   9.826   9.670 -0.0069  0.2827 -0.7148
   52CGG   SI48 1860  10.356   9.233   9.607 -0.1665  0.0845 -0.5143
   52CGG   SI49 1861  10.014   9.421  10.101  0.3071  0.1276  0.2520
   52CGG   SI50 1862  10.059   9.132  10.064 -0.2521  0.3834  0.0244
   52CGG   SI51 1863  10.590   9.406   9.708  0.3596 -0.3876  0.0476
   52CGG   SI52 1864  10.545   9.692   9.739  0.1294 -0.1028  0.1800
   52CGG   SI85 1865  10.432   8.111  10.016  0.3301 -0.1887 -0.0392
   52CGG   SI86 1866  10.357   8.700  10.093 -0.1399  0.1795 -0.1833
   52CGG   SI87 1867  10.398   8.939   9.570  0.4452  0.1801  0.1664
   52CGG   SI88 1868  10.481   8.340   9.502  0.2849  0.3519  0.0228
   52CGG   SI89 1869  10.129   8.526   9.992  0.0651 -0.3989 -0.1173
   52CGG   SI90 1870  10.169   8.237   9.964  0.5144  0.1837  0.0456
   52CGG   SI91 1871  10.709   8.513   9.599  0.1130 -0.7318  0.3944
   52CGG   SI92 1872  10.662   8.810   9.624 -0.1056 -0.0790 -0.0322
   53CGG    AL1 1873   9.775  10.646   9.907 -0.1024  0.3098  0.0886
   53CGG    AL2 1874   9.635   9.878   9.755  0.3753  0.0988  0.2175
   53CGG    AL3 1875   9.591  10.173   9.785 -0.0629 -0.0263  0.0672
   53CGG    AL4 1876   9.818  10.342   9.879  0.2203  0.3702 -0.1642
   53CGG   AL41 1877   9.894   9.746   9.811  0.5143  0.0054  0.1847
   53CGG   AL42 1878   9.738   8.986   9.654 -0.0693  0.1673  0.1302
   53CGG   AL43 1879   9.696   9.283   9.681  0.2881 -0.2884 -0.7146
   53CGG   AL44 1880   9.920   9.455   9.782 -0.6254 -0.3547 -0.1685
   53CGG   AL81 1881  10.002   8.854   9.717 -0.0961  0.1824  0.5018
   53CGG   AL82 1882   9.854   8.095   9.547 -0.0631 -0.0323  0.1338
   53CGG   AL83 1883   9.819   8.392   9.594 -0.5000 -0.3704  0.0296
   53CGG   AL84 1884  10.049   8.564   9.689  0.2217  0.1027 -0.0933
   53CGG    SI5 1885   9.721   9.844  10.064  0.1371  0.1652  0.2277
   53CGG    SI6 1886   9.640  10.448  10.119 -0.0699  0.0833  0.1571
   53CGG    SI7 1887   9.690  10.673   9.599 -0.1591  0.3046  0.2284
   53CGG    SI8 1888   9.760  10.070   9.539 -0.2814 -0.2053 -0.1439
   53CGG    SI9 1889   9.413  10.272  10.021  0.3300 -0.0047  0.1412
   53CGG   SI10 1890   9.457   9.977  10.002  0.2045  0.2550 -0.3381
   53CGG   SI11 1891   9.992  10.250   9.635  0.1784 -0.0170 -0.3595
   53CGG   SI12 1892   9.945  10.542   9.668 -0.6369  0.6006 -0.4164
   53CGG   SI45 1893   9.835   8.963   9.963  0.2120  0.1224  0.2213
   53CGG   SI46 1894   9.753   9.555  10.027  0.1963 -0.1061 -0.4251
   53CGG   SI47 1895   9.810   9.780   9.507  0.0267  0.0562 -0.1635
   53CGG   SI48 1896   9.876   9.186   9.441  0.0153  0.5205 -0.1473
   53CGG   SI49 1897   9.525   9.375   9.926 -0.3606 -0.7334 -0.2588
   53CGG   SI50 1898   9.568   9.082   9.900  0.2585 -0.8040 -0.0742
   53CGG   SI51 1899  10.101   9.354   9.551 -0.1609  0.2022  0.0609
   53CGG   SI52 1900  10.068   9.654   9.573 -0.1873  0.6010  0.0952
   53CGG   SI85 1901   9.947   8.065   9.858 -0.1394 -0.0262  0.5048
   53CGG   SI86 1902   9.868   8.666   9.934  0.1988  0.0203  0.1873
   53CGG   SI87 1903   9.919   8.898   9.405  0.3043  0.2404 -0.0707
   53CGG   SI88 1904   9.997   8.295   9.345  0.8506  0.0310 -0.2894
   53CGG   SI89 1905   9.638   8.483   9.836 -0.2796 -0.0111  0.0380
   53CGG   SI90 1906   9.680   8.191   9.799  0.0929 -0.1499 -0.7090
   53CGG   SI91 1907  10.222   8.466   9.445  0.2908 -0.3369 -0.1224
   53CGG   SI92 1908  10.176   8.761   9.467 -0.1648  0.0860  0.0773
   54CGG    AL1 1909   9.289  10.593   9.744  0.2186  0.3810 -0.5944
   54CGG    AL2 1910   9.137   9.830   9.588 -0.1254  0.0560  0.5970
   54CGG    AL3 1911   9.099  10.137   9.614 -0.0780  0.2631  0.2609
   54CGG    AL4 1912   9.324  10.307   9.711 -0.3016 -0.3280 -0.1769
   54CGG   AL41 1913   9.404   9.701   9.654 -0.2325  0.1465 -0.0635
   54CGG   AL42 1914   9.240   8.947   9.489 -0.2511 -0.0866  0.0560
   54CGG   AL43 1915   9.207   9.233   9.523  0.3830  0.2256 -0.3299
   54CGG   AL44 1916   9.437   9.411   9.617 -0.2582 -0.0319  0.1510
   54CGG   AL81 1917   9.505   8.808   9.559 -0.0378  0.0364  0.1032
   54CGG   AL82 1918   9.360   8.050   9.386 -0.2014 -0.1552  0.2765
   54CGG   AL83 1919   9.327   8.346   9.422  0.0269  0.4180  0.0196
   54CGG   AL84 1920   9.554   8.515   9.524  0.2632  0.3340  0.0392
   54CGG    SI5 1921   9.223   9.802   9.896  0.0392  0.2417  0.3040
   54CGG    SI6 1922   9.149  10.402   9.957  0.3711 -0.1281  0.2315
   54CGG    SI7 1923   9.203  10.626   9.440  0.1696 -0.0804 -0.2045
   54CGG    SI8 1924   9.274  10.031   9.371  0.4705  0.1285 -0.4400
   54CGG    SI9 1925   8.918  10.232   9.858  0.0479 -0.2306 -0.1382
   54CGG   SI10 1926   8.962   9.937   9.827 -0.0468 -0.2683 -0.0115
   54CGG   SI11 1927   9.504  10.205   9.472 -0.2402 -0.0111  0.1393
   54CGG   SI12 1928   9.462  10.497   9.499  0.5996  0.0632  0.1847
   54CGG   SI45 1929   9.331   8.901   9.803  0.0446 -0.2021 -0.0817
   54CGG   SI46 1930   9.260   9.504   9.867  0.3753 -0.1360 -0.5588
   54CGG   SI47 1931   9.318   9.736   9.341  0.1063 -0.2551 -0.2649
   54CGG   SI48 1932   9.379   9.142   9.275 -0.3644 -0.3376 -0.2194
   54CGG   SI49 1933   9.025   9.334   9.760  0.2804  0.3880 -0.3595
   54CGG   SI50 1934   9.067   9.034   9.742  0.0468  0.1132  0.3607
   54CGG   SI51 1935   9.616   9.319   9.376 -0.0189  0.2450 -0.1422
   54CGG   SI52 1936   9.577   9.612   9.407  0.1132 -0.1359  0.1506
   54CGG   SI85 1937   9.461   8.017   9.690  0.2594  0.0153 -0.3289
   54CGG   SI86 1938   9.375   8.602   9.770 -0.3493 -0.3799  0.0718
   54CGG   SI87 1939   9.423   8.845   9.250  0.0297 -0.0893  0.4999
   54CGG   SI88 1940   9.497   8.256   9.175 -0.0959  0.1926 -0.2458
   54CGG   SI89 1941   9.148   8.436   9.664  0.0057  0.3581  0.1309
   54CGG   SI90 1942   9.190   8.145   9.635 -0.0408 -0.2309  0.4277
   54CGG   SI91 1943   9.729   8.427   9.284  0.0864 -0.3549  0.0572
   54CGG   SI92 1944   9.685   8.719   9.315  0.0637  0.4196 -0.0275
   55CGG    AL1 1945   8.801  10.558   9.578 -0.0145  0.0574 -0.2277
   55CGG    AL2 1946   8.652   9.794   9.416 -0.1294  0.0959 -0.1172
   55CGG    AL3 1947   8.615  10.089   9.448  0.2320  0.1082 -0.2790
   55CGG    AL4 1948   8.834  10.270   9.551  0.1410  0.3315  0.0001
   55CGG   AL41 1949   8.905   9.662   9.475  0.1374 -0.0221 -0.2919
   55CGG   AL42 1950   8.761   8.898   9.326  0.0756 -0.2692  0.5674
   55CGG   AL43 1951   8.720   9.197   9.344  0.6585  0.3474  0.2966
   55CGG   AL44 1952   8.937   9.378   9.450 -0.2331 -0.0750 -0.1599
   55CGG   AL81 1953   9.023   8.771   9.388  0.0756 -0.5810  0.1382
   55CGG   AL82 1954   8.871   8.007   9.210  0.0125 -0.2238 -0.8993
   55CGG   AL83 1955   8.842   8.302   9.255 -0.3885 -0.7258  0.2447
   55CGG   AL84 1956   9.065   8.476   9.351 -0.0589 -0.3282 -0.2042
   55CGG    SI5 1957   8.742   9.768   9.725 -0.1043 -0.0031  0.2530
   55CGG    SI6 1958   8.666  10.367   9.790 -0.5159  0.1415  0.3836
   55CGG    SI7 1959   8.714  10.588   9.273  0.1703 -0.1743  0.0114
   55CGG    SI8 1960   8.792   9.992   9.202  0.4957  0.0191 -0.2327
   55CGG    SI9 1961   8.436  10.192   9.682  0.3220 -0.1066 -0.6273
   55CGG   SI10 1962   8.474   9.894   9.659  0.1258 -0.3683 -0.1643
   55CGG   SI11 1963   9.019  10.164   9.311  0.1010 -0.0527  0.5092
   55CGG   SI12 1964   8.981  10.451   9.335 -0.2385  0.2167  0.3219
   55CGG   SI45 1965   8.856   8.870   9.631 -0.0226 -0.2964 -0.5395
   55CGG   SI46 1966   8.772   9.475   9.695  0.6937  0.0329  0.0250
   55CGG   SI47 1967   8.828   9.693   9.172 -0.1274 -0.6460 -0.0418
   55CGG   SI48 1968   8.891   9.095   9.107 -0.3239  0.1695 -0.2327
   55CGG   SI49 1969   8.546   9.293   9.595  0.4922  0.1161  0.5028
   55CGG   SI50 1970   8.596   9.002   9.571 -0.1017 -0.1445  0.0433
   55CGG   SI51 1971   9.114   9.273   9.213 -0.5967 -0.0458  0.1574
   55CGG   SI52 1972   9.088   9.567   9.242  0.5019 -0.3507 -0.1463
   55CGG   SI85 1973   8.976   7.980   9.519  0.1470  0.0678  0.2103
   55CGG   SI86 1974   8.890   8.570   9.597  0.0487 -0.1199 -0.1021
   55CGG   SI87 1975   8.940   8.810   9.082  0.4147  0.1664  0.2931
   55CGG   SI88 1976   9.008   8.209   9.004  0.3468  0.3919  0.2630
   55CGG   SI89 1977   8.656   8.398   9.493 -0.0751 -0.4917 -0.4054
   55CGG   SI90 1978   8.706   8.107   9.470 -0.5330 -0.0972  0.0094
   55CGG   SI91 1979   9.243   8.387   9.110  0.1801  0.1544 -0.2141
   55CGG   SI92 1980   9.203   8.677   9.140 -0.2692  0.0814 -0.1515
   56CGG    AL1 1981   8.306  10.503   9.405  0.0521 -0.5819 -0.2409
   56CGG    AL2 1982   8.161   9.750   9.245 -0.0064  0.1201 -0.1000
   56CGG    AL3 1983   8.123  10.043   9.274  0.1070  0.2009 -0.2430
   56CGG    AL4 1984   8.345  10.221   9.373 -0.0531  0.3577 -0.0686
   56CGG   AL41 1985   8.428   9.617   9.307 -0.3355 -0.1929  0.4187
   56CGG   AL42 1986   8.266   8.862   9.146  0.0101 -0.0909  0.0380
   56CGG   AL43 1987   8.231   9.159   9.175  0.1485 -0.0258 -0.1116
   56CGG   AL44 1988   8.469   9.319   9.279 -0.0517  0.4957  0.2602
   56CGG   AL81 1989   8.535   8.729   9.211 -0.1227 -0.0742 -0.0608
   56CGG   AL82 1990   8.386   7.964   9.056 -0.4431  0.2512  0.3167
   56CGG   AL83 1991   8.352   8.264   9.086 -0.1510 -0.2165  0.1607
   56CGG   AL84 1992   8.575   8.435   9.186 -0.1826 -0.0314  0.3760
   56CGG    SI5 1993   8.255   9.717   9.549 -0.0800  0.0917  0.3183
   56CGG    SI6 1994   8.172  10.309   9.626 -0.1378 -0.3591 -0.3039
   56CGG    SI7 1995   8.231  10.536   9.095  0.3835  0.0832 -0.3372
   56CGG    SI8 1996   8.299   9.945   9.036  0.1111 -0.2055  0.3356
   56CGG    SI9 1997   7.945  10.134   9.521  0.4823 -0.0826  0.5906
   56CGG   SI10 1998   7.989   9.843   9.488 -0.1381 -0.1204  0.4301
   56CGG   SI11 1999   8.529  10.125   9.136  0.2018  0.1368 -0.1037
   56CGG   SI12 2000   8.489  10.410   9.158  0.4568  0.1405  0.1205
   56CGG   SI45 2001   8.361   8.835   9.454  0.3810  0.0069  0.1077
   56CGG   SI46 2002   8.286   9.423   9.519  0.1763 -0.2574 -0.2085
   56CGG   SI47 2003   8.338   9.651   9.000 -0.1950  0.2624 -0.1172
   56CGG   SI48 2004   8.404   9.061   8.932 -0.0648  0.6823  0.1555
   56CGG   SI49 2005   8.050   9.246   9.410  0.0699 -0.1822 -0.3702
   56CGG   SI50 2006   8.098   8.959   9.398  0.0186  0.0676  0.2167
   56CGG   SI51 2007   8.642   9.224   9.029 -0.3993  0.0520 -0.6940
   56CGG   SI52 2008   8.596   9.520   9.065  0.0349  0.1439  0.3657
   56CGG   SI85 2009   8.485   7.935   9.361 -0.0974 -0.3037  0.1726
   56CGG   SI86 2010   8.404   8.539   9.432 -0.2138 -0.0229  0.0114
   56CGG   SI87 2011   8.442   8.764   8.908 -0.0532  0.2615  0.2878
   56CGG   SI88 2012   8.522   8.161   8.849 -0.0441 -0.3804  0.4812
   56CGG   SI89 2013   8.172   8.361   9.325 -0.5746  0.2438 -0.1942
   56CGG   SI90 2014   8.227   8.068   9.303  0.6131  0.3456  0.3038
   56CGG   SI91 2015   8.755   8.340   8.944 -0.1050 -0.1533  0.5431
   56CGG   SI92 2016   8.708   8.630   8.968  0.5429 -0.0850 -0.0800
   57CGG    AL1 2017   7.827  10.469   9.232  0.2114 -0.1998 -0.0918
   57CGG    AL2 2018   7.668   9.715   9.071 -0.5192 -0.1361  0.3036
   57CGG    AL3 2019   7.633  10.014   9.103  0.1842  0.0957  0.3413
   57CGG    AL4 2020   7.859  10.175   9.205 -0.2973 -0.6501 -0.3965
   57CGG   AL41 2021   7.936   9.578   9.139 -0.6568 -0.1995  0.3861
   57CGG   AL42 2022   7.778   8.813   8.979 -0.2702 -0.3660  0.0181
   57CGG   AL43 2023   7.749   9.108   9.007 -0.6140 -0.1058 -0.3216
   57CGG   AL44 2024   7.968   9.290   9.105 -0.4155 -0.4531  0.2649
   57CGG   AL81 2025   8.041   8.698   9.038 -0.1742  0.1127 -0.2261
   57CGG   AL82 2026   7.897   7.926   8.891  0.2656 -0.4277 -0.3095
   57CGG   AL83 2027   7.856   8.220   8.923 -0.2068 -0.2444  0.1281
   57CGG   AL84 2028   8.087   8.388   9.015 -0.3175 -0.0962 -0.1077
   57CGG    SI5 2029   7.763   9.684   9.382 -0.4992 -0.1866 -0.2854
   57CGG    SI6 2030   7.690  10.285   9.453  0.1096  0.1381 -0.9497
   57CGG    SI7 2031   7.741  10.500   8.930 -0.0051  0.0446 -0.1894
   57CGG    SI8 2032   7.808   9.910   8.855  0.4829  0.1342 -0.0206
   57CGG    SI9 2033   7.460  10.100   9.348  0.1218 -0.0027 -0.3088
   57CGG   SI10 2034   7.502   9.807   9.316 -0.0554 -0.1839  0.2483
   57CGG   SI11 2035   8.042  10.077   8.965  0.1906 -0.0980  0.2267
   57CGG   SI12 2036   7.998  10.371   8.996  0.0577  0.0071 -0.2142
   57CGG   SI45 2037   7.876   8.791   9.286  0.3838 -0.1804  0.3852
   57CGG   SI46 2038   7.804   9.385   9.357 -0.0670 -0.0930 -0.0762
   57CGG   SI47 2039   7.854   9.616   8.831  0.1453  0.0589  0.4566
   57CGG   SI48 2040   7.912   9.014   8.762 -0.5139 -0.0968  0.0372
   57CGG   SI49 2041   7.574   9.208   9.253  0.1241  0.5806 -0.0572
   57CGG   SI50 2042   7.617   8.918   9.227 -0.0562 -0.2941 -0.1189
   57CGG   SI51 2043   8.146   9.194   8.864 -0.2337 -0.5352  0.0346
   57CGG   SI52 2044   8.112   9.490   8.887 -0.1775  0.2828 -0.3135
   57CGG   SI85 2045   7.994   7.897   9.200 -0.3218 -0.0298  0.0021
   57CGG   SI86 2046   7.916   8.495   9.257  0.0043 -0.1873 -0.0727
   57CGG   SI87 2047   7.955   8.721   8.733  0.1044  0.1142  0.2520
   57CGG   SI88 2048   8.026   8.129   8.672 -0.2980 -0.0671 -0.4386
   57CGG   SI89 2049   7.676   8.315   9.166 -0.3795 -0.0168  1.0608
   57CGG   SI90 2050   7.730   8.022   9.139 -0.1205  0.2905 -0.1900
   57CGG   SI91 2051   8.263   8.299   8.771 -0.3606 -0.0797 -0.0224
   57CGG   SI92 2052   8.222   8.593   8.803  0.6702 -0.1459  0.1160
   58CGG    AL1 2053   7.340  10.426   9.070 -0.0416  0.6629  0.3225
   58CGG    AL2 2054   7.180   9.670   8.907 -0.3009 -0.2281 -0.4474
   58CGG    AL3 2055   7.147   9.963   8.941 -0.3832 -0.1265  0.3920
   58CGG    AL4 2056   7.373  10.134   9.035  0.2556  0.0267 -0.5513
   58CGG   AL41 2057   7.451   9.532   8.971 -0.1272 -0.3076 -0.2024
   58CGG   AL42 2058   7.290   8.788   8.815 -0.2921  0.2748  0.6297
   58CGG   AL43 2059   7.263   9.080   8.846  0.0382 -0.0992 -0.5671
   58CGG   AL44 2060   7.493   9.238   8.948  0.2417  0.2506  0.1437
   58CGG   AL81 2061   7.555   8.643   8.877 -0.2159  0.0406 -0.0335
   58CGG   AL82 2062   7.406   7.887   8.730 -0.0827 -0.3324  0.2218
   58CGG   AL83 2063   7.366   8.185   8.751  0.4552 -0.1320 -0.1936
   58CGG   AL84 2064   7.595   8.353   8.856  0.0599 -0.1568  0.0419
   58CGG    SI5 2065   7.276   9.631   9.214  0.0931  0.2211 -0.1694
   58CGG    SI6 2066   7.201  10.235   9.285 -0.3778 -0.1256  0.1450
   58CGG    SI7 2067   7.253  10.467   8.756 -0.1565 -0.1877  0.1085
   58CGG    SI8 2068   7.317   9.861   8.691 -0.5020 -0.5112  0.0396
   58CGG    SI9 2069   6.973  10.054   9.183  0.0724  0.0205 -0.2298
   58CGG   SI10 2070   7.019   9.766   9.157 -0.1253 -0.1381  0.1778
   58CGG   SI11 2071   7.546  10.037   8.793  0.1662  0.0822 -0.1002
   58CGG   SI12 2072   7.512  10.327   8.821 -0.8651 -0.0040 -0.1285
   58CGG   SI45 2073   7.382   8.747   9.117 -0.2844  0.0214 -0.1015
   58CGG   SI46 2074   7.322   9.342   9.190  0.4872  0.0257 -0.2183
   58CGG   SI47 2075   7.362   9.571   8.663 -0.2421  0.2213  0.0969
   58CGG   SI48 2076   7.430   8.981   8.597  0.3571  0.1879  0.7007
   58CGG   SI49 2077   7.079   9.170   9.097 -0.0461  0.2914 -0.2631
   58CGG   SI50 2078   7.129   8.878   9.065 -0.4457 -0.1709  0.0628
   58CGG   SI51 2079   7.657   9.148   8.700 -0.2238 -0.0203 -0.1039
   58CGG   SI52 2080   7.623   9.437   8.731  0.2309 -0.3497 -0.0071
   58CGG   SI85 2081   7.499   7.851   9.034  0.1353  0.4148 -0.2237
   58CGG   SI86 2082   7.423   8.450   9.100 -0.3430  0.2398  0.0433
   58CGG   SI87 2083   7.468   8.681   8.574 -0.0267 -0.1396  0.1811
   58CGG   SI88 2084   7.537   8.082   8.510 -0.3684  0.4349 -0.3649
   58CGG   SI89 2085   7.186   8.273   8.999 -0.3568 -0.2707  0.0927
   58CGG   SI90 2086   7.229   7.986   8.968 -0.1387  0.0826 -0.1840
   58CGG   SI91 2087   7.770   8.251   8.609  0.3733 -0.0761 -0.5374
   58CGG   SI92 2088   7.729   8.545   8.635 -0.4188  0.1287 -0.1017
   59CGG    AL1 2089   6.854  10.388   8.906  0.1654  0.4145  0.2648
   59CGG    AL2 2090   6.690   9.625   8.752  0.3370 -0.0763  0.1782
   59CGG    AL3 2091   6.658   9.922   8.782 -0.2017  0.2247  0.0893
   59CGG    AL4 2092   6.889  10.097   8.875 -0.1485  0.1391  0.1806
   59CGG   AL41 2093   6.954   9.504   8.810  0.0991  0.2527 -0.0451
   59CGG   AL42 2094   6.804   8.734   8.659  0.1965  0.3232 -0.4779
   59CGG   AL43 2095   6.777   9.036   8.690  0.3202 -0.2462  0.1319
   59CGG   AL44 2096   6.995   9.213   8.783 -0.5509 -0.1263 -0.6958
   59CGG   AL81 2097   7.072   8.610   8.717 -0.0424 -0.1272 -0.5095
   59CGG   AL82 2098   6.919   7.839   8.558  0.3112 -0.3556 -0.1700
   59CGG   AL83 2099   6.879   8.140   8.591 -0.0013 -0.1013  0.0361
   59CGG   AL84 2100   7.106   8.314   8.693  0.4302  0.5038  0.4616
   59CGG    SI5 2101   6.794   9.603   9.057  0.0544 -0.0915 -0.3540
   59CGG    SI6 2102   6.717  10.195   9.124 -0.3851  0.0154  0.2172
   59CGG    SI7 2103   6.762  10.418   8.601 -0.0739  0.1611 -0.4578
   59CGG    SI8 2104   6.828   9.821   8.532 -0.0383  0.0199  0.0372
   59CGG    SI9 2105   6.481  10.017   9.022  0.1548 -0.1100 -0.3397
   59CGG   SI10 2106   6.529   9.729   9.000  0.3539 -0.0145 -0.1916
   59CGG   SI11 2107   7.064   9.992   8.628 -0.1681 -0.2232  0.0864
   59CGG   SI12 2108   7.026  10.289   8.660  0.0608  0.0643 -0.1695
   59CGG   SI45 2109   6.901   8.709   8.966 -0.3212 -0.2279  0.4950
   59CGG   SI46 2110   6.817   9.306   9.029 -0.2325 -0.2241  0.2024
   59CGG   SI47 2111   6.867   9.526   8.504 -0.2926 -0.1471  0.0239
   59CGG   SI48 2112   6.944   8.941   8.446  0.1507  0.4815 -0.2844
   59CGG   SI49 2113   6.592   9.133   8.932 -0.0748  0.2976  0.5742
   59CGG   SI50 2114   6.638   8.840   8.906 -0.0087  0.1673 -0.0668
   59CGG   SI51 2115   7.171   9.112   8.542  0.0793 -0.2687  0.0007
   59CGG   SI52 2116   7.129   9.406   8.566 -0.2841  0.5093  0.0323
   59CGG   SI85 2117   7.013   7.820   8.864  0.0864 -0.0440 -0.3209
   59CGG   SI86 2118   6.940   8.414   8.940  0.7369  0.0069 -0.1369
   59CGG   SI87 2119   6.981   8.642   8.417 -0.4966 -0.2217 -0.1212
   59CGG   SI88 2120   7.048   8.043   8.347 -0.6290 -0.1092 -0.0480
   59CGG   SI89 2121   6.701   8.234   8.845  0.1973 -0.3114  0.2690
   59CGG   SI90 2122   6.754   7.943   8.810 -0.2331  0.0133  0.3844
   59CGG   SI91 2123   7.284   8.216   8.448  1.0610  0.0491 -0.2493
   59CGG   SI92 2124   7.241   8.512   8.480  0.1194 -0.2913  0.5455
   60CGG    AL1 2125   6.361  10.338   8.746  0.0777  0.3697 -0.0562
   60CGG    AL2 2126   6.204   9.585   8.594  0.1048 -0.4817 -0.0043
   60CGG    AL3 2127   6.166   9.873   8.630  0.1523 -0.2587 -0.5505
   60CGG    AL4 2128   6.383  10.051   8.721 -0.3037 -0.1379 -0.1052
   60CGG   AL41 2129   6.463   9.439   8.658 -0.0541 -0.1096 -0.1653
   60CGG   AL42 2130   6.326   8.685   8.500 -0.1829 -0.1573  0.0363
   60CGG   AL43 2131   6.272   8.987   8.528 -0.1579 -0.2114  0.5479
   60CGG   AL44 2132   6.504   9.157   8.624  0.2936  0.2783 -0.1045
   60CGG   AL81 2133   6.577   8.558   8.563 -0.4962 -0.3127  0.3306
   60CGG   AL82 2134   6.434   7.804   8.399  0.2962  0.0931 -0.2806
   60CGG   AL83 2135   6.397   8.087   8.437 -0.0753  0.2026 -0.0363
   60CGG   AL84 2136   6.614   8.265   8.532 -0.2764  0.3277  0.3542
   60CGG    SI5 2137   6.293   9.551   8.904 -0.0544  0.3768  0.3070
   60CGG    SI6 2138   6.216  10.147   8.962  0.1713  0.1466 -0.0405
   60CGG    SI7 2139   6.267  10.382   8.445 -0.5399 -0.2090  0.3543
   60CGG    SI8 2140   6.338   9.785   8.385  0.1832 -0.1923  0.2477
   60CGG    SI9 2141   5.983   9.969   8.875 -0.1733 -0.1398  0.2813
   60CGG   SI10 2142   6.032   9.678   8.839  0.0302 -0.0250  0.5178
   60CGG   SI11 2143   6.565   9.948   8.479  0.4509 -0.4056  0.0669
   60CGG   SI12 2144   6.528  10.243   8.498  0.0889  0.5763 -0.1374
   60CGG   SI45 2145   6.402   8.665   8.811  0.1839  0.3232 -0.2088
   60CGG   SI46 2146   6.326   9.251   8.872 -0.0675 -0.0786  0.5910
   60CGG   SI47 2147   6.371   9.488   8.349 -0.2156  0.1412 -0.0733
   60CGG   SI48 2148   6.450   8.885   8.285  0.5297 -0.1427 -0.3213
   60CGG   SI49 2149   6.086   9.076   8.771 -0.0338  0.3444 -0.1642
   60CGG   SI50 2150   6.145   8.789   8.743  0.3951  0.1911 -0.2702
   60CGG   SI51 2151   6.682   9.066   8.380  0.1726  0.2098 -1.1041
   60CGG   SI52 2152   6.633   9.356   8.407 -0.0938 -0.1342  0.0111
   60CGG   SI85 2153   6.525   7.775   8.706  0.1695 -0.0016 -0.2518
   60CGG   SI86 2154   6.446   8.361   8.782  0.3597  0.0174 -0.0513
   60CGG   SI87 2155   6.496   8.597   8.251  0.0202  0.2299  0.5914
   60CGG   SI88 2156   6.561   7.994   8.187  0.0032 -0.3130  0.5604
   60CGG   SI89 2157   6.217   8.182   8.682  0.0691 -0.0963  0.3821
   60CGG   SI90 2158   6.255   7.894   8.646 -0.0539  0.4414  0.3594
   60CGG   SI91 2159   6.786   8.168   8.281 -0.1897 -0.4845  0.2989
   60CGG   SI92 2160   6.751   8.463   8.322 -0.4361 -0.0345  0.1327
   61CGG    AL1 2161  15.981   8.494  11.583 -0.1227 -0.5675  0.0574
   61CGG    AL2 2162  15.826   7.741  11.425  0.0885  0.3766 -0.2232
   61CGG    AL3 2163  15.793   8.035  11.459 -0.7378 -0.1382 -0.5918
   61CGG    AL4 2164  16.019   8.201  11.564 -0.0076 -0.5926 -0.4972
   61CGG   AL41 2165  16.107   7.625  11.501  0.0303 -0.0830  0.2706
   61CGG   AL42 2166  15.933   6.855  11.346  0.2804  0.2170  0.3772
   61CGG   AL43 2167  15.907   7.146  11.377 -0.4192 -0.0942  0.0541
   61CGG   AL44 2168  16.130   7.316  11.485 -0.1882 -0.1614 -0.0881
   61CGG   AL81 2169  16.196   6.724  11.431  0.0518 -0.0547  0.0349
   61CGG   AL82 2170  16.047   5.978  11.238 -0.1396  0.6585 -0.1135
   61CGG   AL83 2171  16.016   6.252  11.285 -0.5991 -0.1824 -0.4085
   61CGG   AL84 2172  16.225   6.432  11.384  0.0194 -0.1230  0.0767
   61CGG    SI5 2173  15.908   7.718  11.735 -0.1317 -0.0320  0.0017
   61CGG    SI6 2174  15.837   8.305  11.800 -0.2523  0.2944  0.7077
   61CGG    SI7 2175  15.902   8.532  11.273  0.1222 -0.0451  0.2141
   61CGG    SI8 2176  15.971   7.932  11.220 -0.1894  0.0074  0.1213
   61CGG    SI9 2177  15.612   8.126  11.699  0.2211  0.4265  0.0853
   61CGG   SI10 2178  15.649   7.838  11.670 -0.2832  0.1017 -0.3861
   61CGG   SI11 2179  16.196   8.105  11.318 -0.3098 -0.4692  0.0435
   61CGG   SI12 2180  16.156   8.398  11.348  0.1624 -0.2168  0.5311
   61CGG   SI45 2181  16.007   6.814  11.663  0.2638 -0.1415  0.4811
   61CGG   SI46 2182  15.950   7.427  11.710  0.0293 -0.2982 -0.3791
   61CGG   SI47 2183  16.020   7.643  11.189  0.5819 -0.0520  0.3439
   61CGG   SI48 2184  16.088   7.043  11.143  0.5765 -0.0729  0.0863
   61CGG   SI49 2185  15.717   7.250  11.607 -0.3990 -0.0832 -0.4733
   61CGG   SI50 2186  15.752   6.958  11.590 -0.0807  0.3868 -0.1089
   61CGG   SI51 2187  16.311   7.214  11.252  0.0397  0.0303 -0.0069
   61CGG   SI52 2188  16.272   7.501  11.262  0.2327 -0.4714  0.1176
   61CGG   SI85 2189  16.140   5.923  11.542  0.6905 -0.0709  0.2215
   61CGG   SI86 2190  16.051   6.523  11.632  0.2652  0.0561  0.1055
   61CGG   SI87 2191  16.128   6.762  11.109 -0.3020 -0.1440  0.0878
   61CGG   SI88 2192  16.200   6.175  11.046 -0.1874  0.2761  0.1608
   61CGG   SI89 2193  15.824   6.343  11.521 -0.5414  0.4594 -0.2245
   61CGG   SI90 2194  15.871   6.053  11.491 -0.3869  0.1202  0.0025
   61CGG   SI91 2195  16.426   6.343  11.154 -0.0136 -0.5021 -0.2762
   61CGG   SI92 2196  16.385   6.635  11.193 -0.1895 -0.0197 -0.4640
   62CGG    AL1 2197  15.491   8.459  11.411  0.0785  0.2859 -0.5581
   62CGG    AL2 2198  15.339   7.699  11.260  0.2340 -0.0450 -0.3411
   62CGG    AL3 2199  15.304   7.987  11.293  0.3784  0.0130  0.1390
   62CGG    AL4 2200  15.532   8.161  11.387 -0.1044 -0.0182  0.2196
   62CGG   AL41 2201  15.601   7.567  11.325  0.3061 -0.0640  0.1161
   62CGG   AL42 2202  15.448   6.807  11.182  0.1811 -0.4081 -0.0410
   62CGG   AL43 2203  15.416   7.095  11.195 -0.2150  0.0212 -0.1649
   62CGG   AL44 2204  15.645   7.269  11.297  0.3391  0.4464  0.0752
   62CGG   AL81 2205  15.710   6.684  11.250 -0.1610  0.4284 -0.1088
   62CGG   AL82 2206  15.567   5.912  11.068 -0.0768  0.1365  0.1488
   62CGG   AL83 2207  15.541   6.211  11.106  0.0970  0.1648 -0.0047
   62CGG   AL84 2208  15.753   6.389  11.214 -0.0622 -0.0666 -0.5089
   62CGG    SI5 2209  15.424   7.663  11.569 -0.1659  0.1024  0.0979
   62CGG    SI6 2210  15.358   8.257  11.633  0.1867 -1.0018 -0.0272
   62CGG    SI7 2211  15.401   8.481  11.112 -0.1508 -0.0255  0.0711
   62CGG    SI8 2212  15.482   7.889  11.049  0.6856  0.2545 -0.1650
   62CGG    SI9 2213  15.127   8.080  11.540 -0.0415  0.2286 -0.1810
   62CGG   SI10 2214  15.160   7.783  11.507 -0.4505 -0.2610  0.2460
   62CGG   SI11 2215  15.714   8.067  11.148  0.1440 -0.1373  0.5617
   62CGG   SI12 2216  15.672   8.361  11.174  0.2773 -0.2069  0.0894
   62CGG   SI45 2217  15.532   6.774  11.489  0.2182  0.7535  0.1278
   62CGG   SI46 2218  15.456   7.369  11.529  0.1335  0.0741 -0.4950
   62CGG   SI47 2219  15.517   7.592  11.020 -0.3710 -0.0969 -0.4990
   62CGG   SI48 2220  15.595   6.998  10.962 -0.0457 -0.0817  0.3558
   62CGG   SI49 2221  15.237   7.188  11.436  0.1285  0.1988  0.3357
   62CGG   SI50 2222  15.274   6.900  11.419 -0.3811 -0.2928 -0.0203
   62CGG   SI51 2223  15.830   7.173  11.067  0.2217 -0.2520 -0.1178
   62CGG   SI52 2224  15.779   7.469  11.085 -0.6234 -0.0277 -0.1070
   62CGG   SI85 2225  15.645   5.872  11.371  0.2417 -0.1537 -0.1946
   62CGG   SI86 2226  15.572   6.480  11.457 -0.0458  0.1027  0.3268
   62CGG   SI87 2227  15.637   6.711  10.944  0.1059  0.2307 -0.2028
   62CGG   SI88 2228  15.709   6.115  10.864  0.0375 -0.5302 -0.1313
   62CGG   SI89 2229  15.348   6.311  11.348 -0.0326 -0.4317 -0.0389
   62CGG   SI90 2230  15.389   6.016  11.316  0.2559 -0.5757  0.2363
   62CGG   SI91 2231  15.941   6.296  10.977  0.4808  0.2054 -0.0735
   62CGG   SI92 2232  15.893   6.584  11.009 -0.4625  0.1029  0.0332
   63CGG    AL1 2233  15.009   8.411  11.255 -0.0879  0.0372 -0.0017
   63CGG    AL2 2234  14.857   7.644  11.089 -0.0057 -0.8555  0.0414
   63CGG    AL3 2235  14.821   7.940  11.124  0.0791  0.0132  0.1974
   63CGG    AL4 2236  15.046   8.109  11.227 -0.1664  0.2406  0.1788
   63CGG   AL41 2237  15.115   7.513  11.151 -0.5276  0.3248  0.4279
   63CGG   AL42 2238  14.969   6.757  11.000 -0.0119 -0.1872 -0.3385
   63CGG   AL43 2239  14.933   7.050  11.027 -0.1949  0.1205 -0.2672
   63CGG   AL44 2240  15.158   7.226  11.130 -0.3712  0.2533 -0.1832
   63CGG   AL81 2241  15.229   6.631  11.072  0.0277 -0.2476 -0.1891
   63CGG   AL82 2242  15.105   5.880  10.898 -0.0194 -0.6905  0.1047
   63CGG   AL83 2243  15.053   6.164  10.922 -0.4503  0.3345  0.0177
   63CGG   AL84 2244  15.272   6.347  11.032  0.0178  0.0331 -0.5490
   63CGG    SI5 2245  14.945   7.606  11.394  0.0089 -0.1275  0.1160
   63CGG    SI6 2246  14.868   8.215  11.471 -0.1208 -0.3221 -0.4780
   63CGG    SI7 2247  14.920   8.442  10.949 -0.4981  0.1646 -0.1126
   63CGG    SI8 2248  14.995   7.840  10.876  0.1561 -0.5071 -0.0166
   63CGG    SI9 2249  14.641   8.031  11.372 -0.0226  0.3835  0.4415
   63CGG   SI10 2250  14.687   7.739  11.337 -0.0229 -0.3058  0.0998
   63CGG   SI11 2251  15.221   8.015  10.984  0.5454  0.1896 -0.1064
   63CGG   SI12 2252  15.177   8.308  11.013  0.0225 -0.0023  0.0974
   63CGG   SI45 2253  15.050   6.730  11.317 -0.2049 -0.3597 -0.0568
   63CGG   SI46 2254  14.974   7.312  11.362 -0.4366 -0.1058 -0.5413
   63CGG   SI47 2255  15.035   7.545  10.847 -0.1273 -0.1151 -0.3602
   63CGG   SI48 2256  15.111   6.956  10.788  0.4359 -0.1143  0.0190
   63CGG   SI49 2257  14.748   7.145  11.262  0.3977  0.3923 -0.1881
   63CGG   SI50 2258  14.788   6.859  11.246  0.1065 -0.1469  0.4668
   63CGG   SI51 2259  15.342   7.129  10.881  0.2036  0.2447 -0.3357
   63CGG   SI52 2260  15.297   7.418  10.913 -0.4066 -0.0000 -0.0364
   63CGG   SI85 2261  15.177   5.846  11.202 -0.0960  0.2959 -0.0767
   63CGG   SI86 2262  15.091   6.433  11.284  0.0782  0.0657 -0.0888
   63CGG   SI87 2263  15.154   6.667  10.765 -0.6454 -0.1467  0.1305
   63CGG   SI88 2264  15.232   6.078  10.677 -0.1390 -0.3515 -0.4272
   63CGG   SI89 2265  14.864   6.249  11.162 -0.0064 -0.1545  0.3110
   63CGG   SI90 2266  14.915   5.960  11.132  0.2284 -0.3221 -0.2477
   63CGG   SI91 2267  15.459   6.251  10.795  0.4009  0.0500 -0.2080
   63CGG   SI92 2268  15.419   6.538  10.826  0.2156 -0.5042  0.0860
   64CGG    AL1 2269  14.517   8.362  11.091  0.2299  0.2759 -0.1536
   64CGG    AL2 2270  14.369   7.602  10.922 -0.3350  0.1287  0.3907
   64CGG    AL3 2271  14.329   7.896  10.958 -0.1314  0.1568  0.0446
   64CGG    AL4 2272  14.558   8.062  11.064  0.2236  0.1160  0.0530
   64CGG   AL41 2273  14.632   7.473  10.979  0.2731  0.0225 -0.2755
   64CGG   AL42 2274  14.483   6.722  10.818 -0.0914 -0.0939 -0.1714
   64CGG   AL43 2275  14.445   7.002  10.848  0.3326  0.0714 -0.3807
   64CGG   AL44 2276  14.676   7.173  10.955  0.3263 -0.4335  0.5020
   64CGG   AL81 2277  14.742   6.581  10.884 -0.3020 -0.0015 -0.1326
   64CGG   AL82 2278  14.597   5.832  10.712 -0.2159 -0.2492 -0.4368
   64CGG   AL83 2279  14.557   6.133  10.747  0.3143 -0.0102 -0.0914
   64CGG   AL84 2280  14.786   6.301  10.852 -0.0807 -0.1205  0.1767
   64CGG    SI5 2281  14.458   7.573  11.227  0.6589  0.1200  0.2045
   64CGG    SI6 2282  14.389   8.153  11.309  0.0680  0.1632 -0.4004
   64CGG    SI7 2283  14.435   8.399  10.786 -0.0970  0.1689  0.0337
   64CGG    SI8 2284  14.505   7.807  10.711  0.4210 -0.0755 -0.4161
   64CGG    SI9 2285  14.148   7.986  11.200 -0.3014  0.1019  0.1140
   64CGG   SI10 2286  14.187   7.696  11.163 -0.5702  0.4345 -0.0051
   64CGG   SI11 2287  14.736   7.977  10.818  0.2831  0.2812 -0.3992
   64CGG   SI12 2288  14.692   8.264  10.857 -0.3901 -0.1203  0.2517
   64CGG   SI45 2289  14.570   6.676  11.129 -0.1159  0.0357 -0.3328
   64CGG   SI46 2290  14.496   7.278  11.193 -0.0096 -0.6666 -0.1755
   64CGG   SI47 2291  14.543   7.512  10.675  0.1944  0.1927 -0.0943
   64CGG   SI48 2292  14.624   6.917  10.606 -0.2307  0.0132  0.0899
   64CGG   SI49 2293  14.260   7.102  11.091 -0.0020  0.1274  0.0779
   64CGG   SI50 2294  14.301   6.808  11.064 -0.0078 -0.1661 -0.5046
   64CGG   SI51 2295  14.854   7.083  10.716  0.0038  0.0696 -0.1307
   64CGG   SI52 2296  14.804   7.376  10.736 -0.1917  0.3940  0.2141
   64CGG   SI85 2297  14.680   5.793  11.013  0.3824 -0.1849  0.1015
   64CGG   SI86 2298  14.604   6.384  11.099 -0.2335 -0.5821 -0.1009
   64CGG   SI87 2299  14.663   6.620  10.578 -0.5240  0.2076  0.0359
   64CGG   SI88 2300  14.740   6.042  10.506 -0.4476  0.3061  0.0985
   64CGG   SI89 2301  14.378   6.215  10.985  0.2130  0.2459  0.2848
   64CGG   SI90 2302  14.420   5.924  10.955  0.2223  0.1667  0.0510
   64CGG   SI91 2303  14.971   6.206  10.615 -0.5344  0.0998 -0.2904
   64CGG   SI92 2304  14.931   6.503  10.644 -0.4093  0.0093 -0.3044
   65CGG    AL1 2305  14.027   8.323  10.915  0.3911  0.1779  0.2887
   65CGG    AL2 2306  13.885   7.568  10.763 -0.1259 -0.2582  0.5331
   65CGG    AL3 2307  13.840   7.859  10.788  0.1663  0.2109 -0.0283
   65CGG    AL4 2308  14.072   8.024  10.897  0.0379 -0.3733 -0.0285
   65CGG   AL41 2309  14.149   7.435  10.815  0.0489  0.3380  0.0936
   65CGG   AL42 2310  14.003   6.674  10.650  0.4404 -0.2722 -0.3735
   65CGG   AL43 2311  13.958   6.965  10.676  0.0697 -0.2283 -0.4287
   65CGG   AL44 2312  14.180   7.141  10.780  0.1134 -0.0894 -0.0476
   65CGG   AL81 2313  14.255   6.549  10.709 -0.0705  0.1531  0.0751
   65CGG   AL82 2314  14.124   5.788  10.537 -0.1106 -0.1935  0.3436
   65CGG   AL83 2315  14.079   6.086  10.575 -0.0052  0.0422  0.5155
   65CGG   AL84 2316  14.299   6.260  10.674 -0.1161  0.3560 -0.1945
   65CGG    SI5 2317  13.970   7.525  11.058  0.0690 -0.2995 -0.3460
   65CGG    SI6 2318  13.892   8.122  11.132 -0.0521 -0.0798 -0.8556
   65CGG    SI7 2319  13.945   8.359  10.611  0.1557  0.2437 -0.5208
   65CGG    SI8 2320  14.019   7.765  10.545 -0.1048  0.0437  0.4822
   65CGG    SI9 2321  13.661   7.949  11.034  0.3202 -0.2944  0.3888
   65CGG   SI10 2322  13.706   7.659  11.001  0.5433  0.1819 -0.1341
   65CGG   SI11 2323  14.244   7.931  10.648 -0.3042 -0.2783  0.2535
   65CGG   SI12 2324  14.208   8.229  10.675 -0.7833  0.0185 -0.0519
   65CGG   SI45 2325  14.080   6.644  10.956 -0.6681  0.2087  0.3941
   65CGG   SI46 2326  14.006   7.238  11.027  0.3525  0.3196  0.0160
   65CGG   SI47 2327  14.063   7.475  10.513 -0.4207 -0.3296  0.6392
   65CGG   SI48 2328  14.133   6.875  10.436  0.1846  0.0350 -0.4442
   65CGG   SI49 2329  13.779   7.059  10.922  0.0842  0.0874  0.0791
   65CGG   SI50 2330  13.820   6.769  10.887 -0.1683 -0.2079 -0.0944
   65CGG   SI51 2331  14.369   7.045  10.543 -0.0573  0.0274 -0.4109
   65CGG   SI52 2332  14.324   7.336  10.573 -0.4301  0.0134  0.4133
   65CGG   SI85 2333  14.196   5.765  10.843  0.3631  0.1553  0.1248
   65CGG   SI86 2334  14.122   6.347  10.925  0.2774 -0.5370  0.2388
   65CGG   SI87 2335  14.178   6.587  10.403 -0.2792 -0.0300  0.0817
   65CGG   SI88 2336  14.256   5.995  10.324  0.4616  0.3426  0.2209
   65CGG   SI89 2337  13.897   6.187  10.808  0.1308  0.1324  0.2439
   65CGG   SI90 2338  13.936   5.892  10.772  0.1126  0.1742 -0.0434
   65CGG   SI91 2339  14.481   6.166  10.434 -0.1292  0.2361  0.5269
   65CGG   SI92 2340  14.436   6.456  10.473 -0.1004 -0.1215 -0.1072
   66CGG    AL1 2341  13.529   8.273  10.748  0.0971 -0.1510  0.1180
   66CGG    AL2 2342  13.399   7.521  10.581 -0.3634 -0.3719 -0.3125
   66CGG    AL3 2343  13.357   7.813  10.625 -0.7057  0.2578  0.1211
   66CGG    AL4 2344  13.582   7.988  10.718  0.6418 -0.2148 -0.1846
   66CGG   AL41 2345  13.666   7.388  10.653  0.0064 -0.2343  0.2523
   66CGG   AL42 2346  13.511   6.638  10.467 -0.2110 -0.0222  0.1948
   66CGG   AL43 2347  13.469   6.930  10.507 -0.3133 -0.2362  0.0673
   66CGG   AL44 2348  13.696   7.095  10.607 -0.0127  0.3934  0.2526
   66CGG   AL81 2349  13.780   6.509  10.526  0.3049  0.2605  0.1609
   66CGG   AL82 2350  13.634   5.753  10.373 -0.2879 -0.5246 -0.3872
   66CGG   AL83 2351  13.591   6.037  10.402 -0.3646 -0.2504  0.4397
   66CGG   AL84 2352  13.812   6.215  10.497  0.0126 -0.0130 -0.0295
   66CGG    SI5 2353  13.485   7.475  10.890  0.0657 -0.1626 -0.2474
   66CGG    SI6 2354  13.405   8.080  10.964  0.2700 -0.1388  0.0312
   66CGG    SI7 2355  13.446   8.325  10.441 -0.0334  0.3579  0.2273
   66CGG    SI8 2356  13.533   7.724  10.375  0.3040 -0.0611 -0.5351
   66CGG    SI9 2357  13.181   7.906  10.862 -0.0942 -0.2197  0.4700
   66CGG   SI10 2358  13.230   7.614  10.836  0.3553 -0.0117  0.2680
   66CGG   SI11 2359  13.762   7.897  10.475 -0.0577 -0.0471 -0.4495
   66CGG   SI12 2360  13.711   8.192  10.507 -0.0595  0.1933 -0.1570
   66CGG   SI45 2361  13.600   6.594  10.776 -0.1573 -0.0523 -0.0222
   66CGG   SI46 2362  13.525   7.189  10.857 -0.2416 -0.0911 -0.4073
   66CGG   SI47 2363  13.581   7.433  10.337 -0.1152  0.1298  0.0620
   66CGG   SI48 2364  13.652   6.832  10.265  0.2540 -0.3939 -0.1761
   66CGG   SI49 2365  13.292   7.014  10.751 -0.2478  0.2473  0.0013
   66CGG   SI50 2366  13.336   6.727  10.714 -0.2055  0.3239 -0.1912
   66CGG   SI51 2367  13.881   7.004  10.365 -0.0608 -0.3101 -0.2056
   66CGG   SI52 2368  13.842   7.300  10.399  0.1471  0.0543 -0.4960
   66CGG   SI85 2369  13.712   5.723  10.674  0.1873 -0.2436  0.1001
   66CGG   SI86 2370  13.638   6.310  10.743 -0.1555  0.4143  0.0559
   66CGG   SI87 2371  13.687   6.540  10.224 -0.1792  0.1310  0.1502
   66CGG   SI88 2372  13.768   5.936  10.158 -0.4926 -0.9885  0.4333
   66CGG   SI89 2373  13.412   6.128  10.646  0.1107 -0.1051  0.0921
   66CGG   SI90 2374  13.451   5.839  10.616  0.0256 -0.0106  0.5216
   66CGG   SI91 2375  13.997   6.118  10.259 -0.1505  0.2636  0.5023
   66CGG   SI92 2376  13.954   6.412  10.290 -0.1668  0.1149 -0.3018
   67CGG    AL1 2377  13.052   8.227  10.591  0.1834 -0.1669  0.2643
   67CGG    AL2 2378  12.906   7.477  10.421 -0.1284 -0.0951  0.0218
   67CGG    AL3 2379  12.872   7.770  10.456  0.2072  0.3507 -0.0933
   67CGG    AL4 2380  13.095   7.943  10.558 -0.0961  0.0089 -0.1081
   67CGG   AL41 2381  13.171   7.342  10.484  0.1433 -0.0131  0.1754
   67CGG   AL42 2382  13.019   6.583  10.307 -0.2859 -0.1192  0.0544
   67CGG   AL43 2383  12.993   6.882  10.347  0.0873 -0.2156 -0.2161
   67CGG   AL44 2384  13.212   7.055  10.445 -0.0266 -0.2731 -0.0125
   67CGG   AL81 2385  13.292   6.462  10.364 -0.0603  0.1786  0.3376
   67CGG   AL82 2386  13.159   5.681  10.187  0.1626 -0.5150  0.4742
   67CGG   AL83 2387  13.112   5.993  10.226  0.0639 -0.4348  0.3780
   67CGG   AL84 2388  13.330   6.170  10.336 -0.1779  0.5785  0.1368
   67CGG    SI5 2389  13.002   7.442  10.734  0.1883  0.1448 -0.3554
   67CGG    SI6 2390  12.919   8.037  10.807  0.2079  0.4695  0.2253
   67CGG    SI7 2391  12.961   8.272  10.282 -0.2020  0.4650  0.0119
   67CGG    SI8 2392  13.040   7.681  10.208  0.0599  0.0052 -0.1999
   67CGG    SI9 2393  12.689   7.859  10.704 -0.3840  0.0231 -0.0626
   67CGG   SI10 2394  12.740   7.569  10.673 -0.0294  0.3775 -0.0907
   67CGG   SI11 2395  13.271   7.857  10.314  0.1307  0.4662 -0.3283
   67CGG   SI12 2396  13.229   8.145  10.345 -0.3103  0.0656  0.0942
   67CGG   SI45 2397  13.120   6.555  10.608  0.2118  0.4935 -0.0609
   67CGG   SI46 2398  13.036   7.154  10.696  0.2035  0.2815 -0.8077
   67CGG   SI47 2399  13.083   7.387  10.180  0.1336 -0.1644  0.1349
   67CGG   SI48 2400  13.164   6.789  10.097 -0.1959 -0.1968 -0.0133
   67CGG   SI49 2401  12.810   6.967  10.592 -0.0814 -0.4189  0.2506
   67CGG   SI50 2402  12.855   6.679  10.551  0.1775  0.3521 -0.3052
   67CGG   SI51 2403  13.399   6.970  10.200  0.0417  0.1706  0.0254
   67CGG   SI52 2404  13.349   7.269  10.237  0.1458  0.0891 -0.0520
   67CGG   SI85 2405  13.240   5.668  10.494  0.1200  0.5048 -0.2324
   67CGG   SI86 2406  13.157   6.259  10.575 -0.1980  0.1194 -0.1381
   67CGG   SI87 2407  13.206   6.503  10.056  0.3239 -0.0450 -0.0115
   67CGG   SI88 2408  13.282   5.900   9.984  0.0687 -0.0620  0.3288
   67CGG   SI89 2409  12.926   6.084  10.464 -0.0452 -0.1127 -0.0368
   67CGG   SI90 2410  12.977   5.790  10.426 -0.4133  0.4782  0.3342
   67CGG   SI91 2411  13.511   6.076  10.090  0.0990  0.3347 -0.5346
   67CGG   SI92 2412  13.461   6.373  10.118 -0.3643  0.4342  0.0200
   68CGG    AL1 2413  12.563   8.192  10.419  0.0246 -0.3254  0.2134
   68CGG    AL2 2414  12.421   7.425  10.260  0.0047 -0.0465  0.1210
   68CGG    AL3 2415  12.383   7.722  10.292 -0.0960 -0.1725  0.3969
   68CGG    AL4 2416  12.604   7.897  10.388  0.0103 -0.3473  0.2863
   68CGG   AL41 2417  12.674   7.298  10.314  0.2555 -0.0743  0.0284
   68CGG   AL42 2418  12.533   6.538  10.142  0.0141  0.2445 -0.0213
   68CGG   AL43 2419  12.497   6.832  10.195 -0.7979 -0.4805  0.2992
   68CGG   AL44 2420  12.720   7.004  10.283  0.1217  0.1193  0.0527
   68CGG   AL81 2421  12.802   6.407  10.196  0.0234  0.0754 -0.0456
   68CGG   AL82 2422  12.664   5.652  10.024 -0.3378  0.0450 -0.0617
   68CGG   AL83 2423  12.618   5.940  10.065 -0.0602  0.0162  0.5389
   68CGG   AL84 2424  12.844   6.115  10.157  0.0177  0.1936 -0.2885
   68CGG    SI5 2425  12.510   7.387  10.566 -0.1618 -0.1812  0.1424
   68CGG    SI6 2426  12.426   7.987  10.626 -0.0107 -0.1458  0.0191
   68CGG    SI7 2427  12.473   8.224  10.118 -0.0188  0.1041  0.1361
   68CGG    SI8 2428  12.559   7.627  10.045 -0.2463  0.0266 -0.1552
   68CGG    SI9 2429  12.203   7.806  10.525 -0.5597 -0.0601  0.0624
   68CGG   SI10 2430  12.247   7.515  10.502  0.0988 -0.2708 -0.1926
   68CGG   SI11 2431  12.787   7.808  10.143  0.0678 -0.0247  0.1874
   68CGG   SI12 2432  12.740   8.095  10.175 -0.1541 -0.1069 -0.0244
   68CGG   SI45 2433  12.626   6.498  10.442 -0.0320  0.6273  0.4692
   68CGG   SI46 2434  12.547   7.095  10.539 -0.0454  0.1162 -0.4545
   68CGG   SI47 2435  12.597   7.336  10.007 -0.4054 -0.2708 -0.0970
   68CGG   SI48 2436  12.675   6.745   9.943 -0.2885 -0.3166 -0.4100
   68CGG   SI49 2437  12.312   6.924  10.431  0.3068  0.1804 -0.6851
   68CGG   SI50 2438  12.356   6.626  10.389  0.1495 -0.2541 -0.0936
   68CGG   SI51 2439  12.904   6.920  10.040  0.3300  0.0414 -0.3681
   68CGG   SI52 2440  12.855   7.204  10.076  0.5086 -0.2519 -0.2957
   68CGG   SI85 2441  12.749   5.606  10.325  0.2891  0.2118 -0.1325
   68CGG   SI86 2442  12.667   6.207  10.411 -0.0595 -0.3393  0.2372
   68CGG   SI87 2443  12.713   6.453   9.896  0.0221  0.0707  0.6232
   68CGG   SI88 2444  12.803   5.855   9.820 -0.0505 -0.4350 -0.3638
   68CGG   SI89 2445  12.437   6.027  10.302  0.0531  0.2054 -0.2807
   68CGG   SI90 2446  12.493   5.737  10.271 -0.0737  0.2154  0.2694
   68CGG   SI91 2447  13.029   6.031   9.924  0.1212 -0.1189  0.2279
   68CGG   SI92 2448  12.983   6.324   9.945 -0.2295 -0.1985  0.0925
   69CGG    AL1 2449  12.083   8.140  10.262  0.1100 -0.1257  0.0433
   69CGG    AL2 2450  11.930   7.379  10.086  0.3690  0.2988 -0.0779
   69CGG    AL3 2451  11.896   7.678  10.120  0.7259  0.3275  0.4140
   69CGG    AL4 2452  12.118   7.845  10.229  0.8054 -0.0127  0.0400
   69CGG   AL41 2453  12.201   7.252  10.152 -0.4443  0.0561  0.3134
   69CGG   AL42 2454  12.053   6.495   9.973 -0.2744 -0.3309  0.0880
   69CGG   AL43 2455  12.015   6.788  10.016  0.6411  0.0842  0.6534
   69CGG   AL44 2456  12.239   6.969  10.124  0.8455  0.4091  0.1559
   69CGG   AL81 2457  12.323   6.355  10.030 -0.1122  0.3296 -0.1181
   69CGG   AL82 2458  12.179   5.609   9.858 -0.2669 -0.5790  0.2177
   69CGG   AL83 2459  12.134   5.906   9.885  0.1205  0.4517 -0.0615
   69CGG   AL84 2460  12.354   6.070   9.991  0.0476 -0.5996 -0.3137
   69CGG    SI5 2461  12.027   7.351  10.393 -0.0459  0.2094 -0.0289
   69CGG    SI6 2462  11.945   7.938  10.474  0.1701  0.0239 -0.1932
   69CGG    SI7 2463  11.997   8.177   9.954 -0.1351 -0.4612  0.0758
   69CGG    SI8 2464  12.069   7.581   9.877  0.0269 -0.2148 -0.3393
   69CGG    SI9 2465  11.714   7.769  10.362 -0.1112 -0.0630 -0.1285
   69CGG   SI10 2466  11.760   7.476  10.331 -0.5418  0.1479 -0.2966
   69CGG   SI11 2467  12.302   7.753   9.983  0.8568  0.0611  0.1092
   69CGG   SI12 2468  12.253   8.043  10.020 -0.0346 -0.1418  0.1886
   69CGG   SI45 2469  12.143   6.453  10.276 -0.0594  0.2729  0.0289
   69CGG   SI46 2470  12.050   7.056  10.359  0.3361 -0.1004 -0.2395
   69CGG   SI47 2471  12.111   7.292   9.843  0.1033 -0.0758  0.1786
   69CGG   SI48 2472  12.188   6.707   9.763 -0.2021  0.3722 -0.1684
   69CGG   SI49 2473  11.825   6.876  10.249  0.1661 -0.0289  0.5826
   69CGG   SI50 2474  11.875   6.580  10.223 -0.0257 -0.2227 -0.2076
   69CGG   SI51 2475  12.421   6.875   9.877  0.1883 -0.1067  0.5073
   69CGG   SI52 2476  12.375   7.169   9.909 -0.7362 -0.2537 -0.0906
   69CGG   SI85 2477  12.263   5.574  10.169  0.0054  0.1233 -0.1156
   69CGG   SI86 2478  12.182   6.160  10.241 -0.3700 -0.1435  0.1272
   69CGG   SI87 2479  12.238   6.410   9.728  0.1481 -0.3061 -0.2270
   69CGG   SI88 2480  12.313   5.814   9.649  0.2508 -0.3566 -0.3097
   69CGG   SI89 2481  11.949   5.989  10.123 -0.3013 -0.3549  0.0925
   69CGG   SI90 2482  11.991   5.707  10.093 -0.3831  0.0511 -0.0986
   69CGG   SI91 2483  12.547   5.980   9.755 -0.1831 -0.2682  0.1474
   69CGG   SI92 2484  12.502   6.276   9.785  0.3542  0.0664 -0.2428
   70CGG    AL1 2485  11.582   8.095  10.095  0.1396 -0.3069 -0.1037
   70CGG    AL2 2486  11.437   7.342   9.923  0.0013  0.4055 -0.4696
   70CGG    AL3 2487  11.398   7.634   9.957  0.1998 -0.3549 -0.4259
   70CGG    AL4 2488  11.624   7.804  10.061 -0.3401 -0.0267  0.3639
   70CGG   AL41 2489  11.698   7.209   9.985 -0.0719 -0.0212  0.1694
   70CGG   AL42 2490  11.562   6.458   9.802  0.5378 -0.0092  0.3951
   70CGG   AL43 2491  11.517   6.757   9.839  0.0663  0.2798 -0.1045
   70CGG   AL44 2492  11.741   6.916   9.949 -0.0855 -0.2086  0.3150
   70CGG   AL81 2493  11.828   6.322   9.853  0.1114 -0.1967 -0.5934
   70CGG   AL82 2494  11.704   5.557   9.676  0.1246 -0.1492  0.1495
   70CGG   AL83 2495  11.641   5.861   9.715 -0.2904  0.2006 -0.2527
   70CGG   AL84 2496  11.867   6.031   9.814 -0.0748  0.0352  0.4591
   70CGG    SI5 2497  11.526   7.299  10.233 -0.1048  0.1750 -0.1453
   70CGG    SI6 2498  11.448   7.898  10.315 -0.1931 -0.4853  0.2684
   70CGG    SI7 2499  11.495   8.131   9.793 -0.2016  0.0405 -0.3320
   70CGG    SI8 2500  11.573   7.542   9.715 -0.1039 -0.3319 -0.1636
   70CGG    SI9 2501  11.215   7.717  10.211 -0.3002  0.2484 -0.1366
   70CGG   SI10 2502  11.268   7.432  10.175  0.1632 -0.1135 -0.1460
   70CGG   SI11 2503  11.806   7.714   9.821  0.0390  0.2782  0.0910
   70CGG   SI12 2504  11.761   8.002   9.857  0.0642  0.1013  0.1961
   70CGG   SI45 2505  11.652   6.417  10.105  0.2022 -0.3997 -0.1760
   70CGG   SI46 2506  11.565   7.006  10.197  0.1447  0.1613  0.1603
   70CGG   SI47 2507  11.616   7.250   9.680  0.5077  0.0801 -0.0879
   70CGG   SI48 2508  11.690   6.663   9.597  0.3464  0.1753  0.2005
   70CGG   SI49 2509  11.342   6.832  10.093 -0.0686  0.5319 -0.3022
   70CGG   SI50 2510  11.392   6.544  10.045  0.0914  0.0568  0.3595
   70CGG   SI51 2511  11.928   6.836   9.708  0.1115 -0.4631  0.1162
   70CGG   SI52 2512  11.875   7.122   9.738  0.3046 -0.1722  0.2365
   70CGG   SI85 2513  11.769   5.526   9.979  0.3255 -0.0028 -0.4101
   70CGG   SI86 2514  11.696   6.120  10.068  0.3702  0.1635  0.2536
   70CGG   SI87 2515  11.743   6.364   9.550 -0.1972  0.0337 -0.0828
   70CGG   SI88 2516  11.818   5.779   9.472 -0.3685  0.1872 -0.0274
   70CGG   SI89 2517  11.469   5.946   9.954  0.1509 -0.0583  0.3874
   70CGG   SI90 2518  11.505   5.652   9.916 -0.2780  0.0764  0.2617
   70CGG   SI91 2519  12.052   5.946   9.573 -0.0392  0.3496 -0.1647
   70CGG   SI92 2520  12.007   6.239   9.609  0.0243 -0.1794  0.1003
   71CGG    AL1 2521  11.090   8.056   9.928 -0.0857  0.7083 -0.0376
   71CGG    AL2 2522  10.945   7.298   9.771  0.0789  0.3157 -0.1383
   71CGG    AL3 2523  10.911   7.592   9.802  0.4245  0.3135  0.0520
   71CGG    AL4 2524  11.137   7.759   9.899 -0.2330 -0.1609  0.1097
   71CGG   AL41 2525  11.208   7.169   9.823 -0.0369  0.3012 -0.3650
   71CGG   AL42 2526  11.069   6.409   9.637 -0.0293  0.2549 -0.2764
   71CGG   AL43 2527  11.035   6.706   9.680  0.1079 -0.5691 -0.3603
   71CGG   AL44 2528  11.258   6.887   9.782  0.1211 -0.1737  0.3280
   71CGG   AL81 2529  11.336   6.286   9.685 -0.2568  0.4316 -0.1123
   71CGG   AL82 2530  11.177   5.528   9.514  0.1413 -0.2588 -0.4692
   71CGG   AL83 2531  11.155   5.828   9.557  0.3031  0.1235  0.1298
   71CGG   AL84 2532  11.380   5.984   9.652  0.1548 -0.1296 -0.0636
   71CGG    SI5 2533  11.043   7.256  10.077  0.2702 -0.4830  0.0378
   71CGG    SI6 2534  10.963   7.852  10.140  0.1589 -0.6709 -0.0471
   71CGG    SI7 2535  11.009   8.098   9.622 -0.0318  0.1549 -0.5873
   71CGG    SI8 2536  11.083   7.493   9.560 -0.1160  0.0735  0.3016
   71CGG    SI9 2537  10.729   7.682  10.041 -0.2519 -0.4997 -0.0035
   71CGG   SI10 2538  10.771   7.390  10.017 -0.2264 -0.2277 -0.8396
   71CGG   SI11 2539  11.312   7.669   9.654 -0.0322  0.2879 -0.1141
   71CGG   SI12 2540  11.266   7.960   9.691 -0.1547  0.4033  0.1875
   71CGG   SI45 2541  11.167   6.377   9.940 -0.3921  0.3690 -0.1411
   71CGG   SI46 2542  11.082   6.967  10.036 -0.0881  0.2243  0.3887
   71CGG   SI47 2543  11.127   7.212   9.521  0.1969 -0.0872  0.3100
   71CGG   SI48 2544  11.207   6.614   9.434 -0.5763  0.2174 -0.0790
   71CGG   SI49 2545  10.853   6.781   9.933  0.2156  0.0933 -0.2062
   71CGG   SI50 2546  10.901   6.495   9.888 -0.2084  0.2651  0.2005
   71CGG   SI51 2547  11.432   6.795   9.536  0.2573  0.0569 -0.0435
   71CGG   SI52 2548  11.388   7.085   9.572 -0.0581 -0.4422 -0.4403
   71CGG   SI85 2549  11.280   5.487   9.823 -0.6334  0.2391  0.1596
   71CGG   SI86 2550  11.220   6.085   9.903  0.4821  0.3426  0.3573
   71CGG   SI87 2551  11.255   6.325   9.382  0.0086  0.2025  0.1180
   71CGG   SI88 2552  11.316   5.738   9.306  0.0363  0.4884 -0.2202
   71CGG   SI89 2553  10.984   5.914   9.804 -0.2099 -0.5277 -0.1976
   71CGG   SI90 2554  11.026   5.626   9.776 -0.2601 -0.0030 -0.3914
   71CGG   SI91 2555  11.557   5.901   9.407  0.0361  0.0543  0.0991
   71CGG   SI92 2556  11.517   6.194   9.448 -0.0166 -0.2621 -0.3264
   72CGG    AL1 2557  10.607   8.018   9.768  0.2571 -0.2724  0.2654
   72CGG    AL2 2558  10.466   7.259   9.598  0.4592 -0.0278  0.3858
   72CGG    AL3 2559  10.431   7.558   9.636  0.1148  0.5602  0.0644
   72CGG    AL4 2560  10.644   7.728   9.730 -0.5376  0.4089  0.0702
   72CGG   AL41 2561  10.725   7.120   9.662 -0.1336 -0.1734 -0.2826
   72CGG   AL42 2562  10.571   6.371   9.480 -0.3358 -0.6178 -0.0124
   72CGG   AL43 2563  10.545   6.663   9.525  0.1720 -0.3310 -0.1490
   72CGG   AL44 2564  10.770   6.827   9.626 -0.0497 -0.3529  0.5198
   72CGG   AL81 2565  10.840   6.238   9.530 -0.0842  0.4105 -0.1916
   72CGG   AL82 2566  10.711   5.475   9.366  0.0351  0.1299 -0.3415
   72CGG   AL83 2567  10.666   5.779   9.409 -0.1903  0.2998 -0.1393
   72CGG   AL84 2568  10.893   5.951   9.496  0.2458 -0.0169 -0.3979
   72CGG    SI5 2569  10.551   7.223   9.908 -0.1193  0.1176 -0.5093
   72CGG    SI6 2570  10.475   7.819   9.982  0.2805 -0.3494  0.2696
   72CGG    SI7 2571  10.517   8.050   9.468  0.2777  0.1010  0.2138
   72CGG    SI8 2572  10.605   7.461   9.388  0.0219  0.0674  0.0723
   72CGG    SI9 2573  10.243   7.640   9.877  0.3080 -0.1988 -0.7161
   72CGG   SI10 2574  10.292   7.350   9.841  0.0710 -0.2243 -0.1978
   72CGG   SI11 2575  10.830   7.634   9.493  0.2267  0.4114 -0.0509
   72CGG   SI12 2576  10.777   7.923   9.516  0.5315  0.0857  0.4089
   72CGG   SI45 2577  10.666   6.325   9.782 -0.2292  0.1150 -0.1749
   72CGG   SI46 2578  10.600   6.923   9.878  0.3761 -0.0106 -0.0313
   72CGG   SI47 2579  10.638   7.169   9.354 -0.2326 -0.0988 -0.1965
   72CGG   SI48 2580  10.716   6.576   9.270 -0.0520  0.2208  0.0576
   72CGG   SI49 2581  10.371   6.751   9.777 -0.0665  0.2982  0.1967
   72CGG   SI50 2582  10.405   6.457   9.728 -0.4407  0.2322 -0.5555
   72CGG   SI51 2583  10.944   6.742   9.376  0.2391  0.2588  0.0110
   72CGG   SI52 2584  10.903   7.035   9.419 -0.1675  0.6671 -0.4005
   72CGG   SI85 2585  10.788   5.448   9.685  0.1920  0.1458  0.1479
   72CGG   SI86 2586  10.715   6.032   9.747 -0.0513  0.4177  0.0722
   72CGG   SI87 2587  10.746   6.287   9.235  0.2305  0.2171 -0.1132
   72CGG   SI88 2588  10.826   5.691   9.147 -0.0625  0.2533 -0.1257
   72CGG   SI89 2589  10.483   5.860   9.648 -0.3045 -0.5178 -0.0289
   72CGG   SI90 2590  10.525   5.570   9.608 -0.0809 -0.2743 -0.4898
   72CGG   SI91 2591  11.062   5.868   9.248  0.0274  0.2660 -0.1020
   72CGG   SI92 2592  11.015   6.160   9.284  0.1238  0.0757  0.0279
   73CGG    AL1 2593  10.114   7.971   9.606 -0.2304  0.0471 -0.2351
   73CGG    AL2 2594   9.979   7.210   9.443 -0.1812  0.1508 -0.0051
   73CGG    AL3 2595   9.940   7.509   9.477  0.4742 -0.1997  0.2107
   73CGG    AL4 2596  10.162   7.682   9.575 -0.0894 -0.0570 -0.1369
   73CGG   AL41 2597  10.242   7.083   9.504 -0.2734  0.2652  0.4197
   73CGG   AL42 2598  10.082   6.336   9.325 -0.5799 -0.4262 -0.0021
   73CGG   AL43 2599  10.051   6.636   9.369  0.2045  0.0684 -0.3751
   73CGG   AL44 2600  10.289   6.793   9.473 -0.2599 -0.1969  0.2782
   73CGG   AL81 2601  10.354   6.191   9.380 -0.2194 -0.2519 -0.1756
   73CGG   AL82 2602  10.204   5.437   9.202  0.3686 -0.2846 -0.1337
   73CGG   AL83 2603  10.168   5.739   9.245 -0.0089  0.1406 -0.0053
   73CGG   AL84 2604  10.390   5.913   9.342 -0.2429  0.0067 -0.4344
   73CGG    SI5 2605  10.077   7.176   9.749  0.2116  0.2094 -0.2251
   73CGG    SI6 2606   9.987   7.768   9.821  0.3652  0.2315 -0.0994
   73CGG    SI7 2607  10.029   8.004   9.294 -0.1614 -0.0230 -0.3371
   73CGG    SI8 2608  10.113   7.409   9.235  0.2813 -0.1582  0.0002
   73CGG    SI9 2609   9.756   7.595   9.722  0.1183 -0.6608 -0.0644
   73CGG   SI10 2610   9.812   7.307   9.695 -0.3725 -0.0137 -0.1177
   73CGG   SI11 2611  10.346   7.585   9.328 -0.1680  0.0542  0.2900
   73CGG   SI12 2612  10.292   7.876   9.359 -0.4065 -0.3369 -0.3775
   73CGG   SI45 2613  10.185   6.296   9.627  0.0084 -0.2872  0.0602
   73CGG   SI46 2614  10.114   6.881   9.720  0.2553 -0.0977  0.2534
   73CGG   SI47 2615  10.160   7.122   9.195  0.1544 -0.0409  0.9124
   73CGG   SI48 2616  10.223   6.538   9.116  0.2270  0.4679 -0.1566
   73CGG   SI49 2617   9.876   6.711   9.616  0.2959  0.1774 -0.2767
   73CGG   SI50 2618   9.921   6.425   9.576  0.2462  0.0557  0.5040
   73CGG   SI51 2619  10.458   6.709   9.213 -0.0251  0.1385 -0.1862
   73CGG   SI52 2620  10.416   6.998   9.259 -0.0250  0.0640 -0.2604
   73CGG   SI85 2621  10.299   5.400   9.503 -0.1329  0.2200 -0.5434
   73CGG   SI86 2622  10.226   6.000   9.593  0.2480  0.1214 -0.2218
   73CGG   SI87 2623  10.266   6.245   9.077 -0.1918 -0.3296 -0.2889
   73CGG   SI88 2624  10.333   5.659   8.993 -0.7615  0.5022  0.2226
   73CGG   SI89 2625   9.989   5.829   9.495 -0.2061  0.3049 -0.2176
   73CGG   SI90 2626  10.041   5.537   9.459 -0.3789 -0.1147  0.1604
   73CGG   SI91 2627  10.573   5.828   9.100  0.1731  0.3181 -0.1310
   73CGG   SI92 2628  10.531   6.109   9.129 -0.2665  0.0233 -0.0337
   74CGG    AL1 2629   9.626   7.927   9.442  0.2226  0.2534  0.5159
   74CGG    AL2 2630   9.485   7.174   9.276 -0.0065  0.0084  0.0647
   74CGG    AL3 2631   9.440   7.458   9.314  0.0040 -0.2650 -0.0581
   74CGG    AL4 2632   9.671   7.628   9.414  0.1217  0.3460 -0.0083
   74CGG   AL41 2633   9.760   7.033   9.343  0.1783 -0.5005  0.1915
   74CGG   AL42 2634   9.599   6.275   9.166  0.7727 -0.1511 -0.1197
   74CGG   AL43 2635   9.561   6.584   9.199  0.2594  0.2181 -0.1035
   74CGG   AL44 2636   9.790   6.752   9.308  0.0208  0.1050  0.1651
   74CGG   AL81 2637   9.865   6.159   9.221  0.1153  0.1597 -0.0472
   74CGG   AL82 2638   9.716   5.404   9.054 -0.1696 -0.1834 -0.0198
   74CGG   AL83 2639   9.676   5.695   9.085 -0.3083 -0.0134  0.3278
   74CGG   AL84 2640   9.897   5.873   9.188  0.2680  0.1530 -0.1899
   74CGG    SI5 2641   9.587   7.130   9.577 -0.0452 -0.0407 -0.7629
   74CGG    SI6 2642   9.496   7.727   9.659 -0.3425  0.1032  0.0387
   74CGG    SI7 2643   9.536   7.963   9.137  0.0002 -0.0403  0.1652
   74CGG    SI8 2644   9.621   7.373   9.067  0.1160  0.2581  0.0559
   74CGG    SI9 2645   9.264   7.551   9.559  0.0928 -0.6132 -0.1244
   74CGG   SI10 2646   9.323   7.257   9.524 -0.2173  0.1421 -0.4460
   74CGG   SI11 2647   9.848   7.540   9.170 -0.4164 -0.2552 -0.3657
   74CGG   SI12 2648   9.801   7.835   9.195 -0.0168  0.3039 -0.2621
   74CGG   SI45 2649   9.691   6.249   9.470 -0.0732 -0.2266 -0.1096
   74CGG   SI46 2650   9.624   6.843   9.554  0.2764  0.0484 -0.5503
   74CGG   SI47 2651   9.665   7.078   9.039 -0.6213 -0.2711 -0.3209
   74CGG   SI48 2652   9.728   6.479   8.962 -0.1196  0.0715  0.3925
   74CGG   SI49 2653   9.398   6.669   9.447 -0.2266  0.2346 -0.0248
   74CGG   SI50 2654   9.429   6.376   9.404  0.0564 -0.2878  0.1053
   74CGG   SI51 2655   9.963   6.660   9.060  0.3090  0.1018 -0.0875
   74CGG   SI52 2656   9.928   6.947   9.090  0.2575 -0.1662 -0.1116
   74CGG   SI85 2657   9.801   5.362   9.366  0.2494  0.0734  0.1638
   74CGG   SI86 2658   9.731   5.958   9.439 -0.4673  0.1096  0.0555
   74CGG   SI87 2659   9.772   6.191   8.917  0.4102  0.2370  0.6101
   74CGG   SI88 2660   9.847   5.605   8.827  0.2844 -0.2847 -0.4887
   74CGG   SI89 2661   9.501   5.782   9.332  0.1623  0.0330 -0.1516
   74CGG   SI90 2662   9.541   5.495   9.300 -0.2844  0.1995  0.2107
   74CGG   SI91 2663  10.074   5.785   8.933  0.1390  0.0615 -0.2496
   74CGG   SI92 2664  10.029   6.073   8.970 -0.1684 -0.0891  0.1221
   75CGG    AL1 2665   9.141   7.877   9.279 -0.3073  0.1379  0.2019
   75CGG    AL2 2666   8.993   7.120   9.112  0.2953  0.4620 -0.1924
   75CGG    AL3 2667   8.954   7.413   9.148 -0.0114 -0.4099 -0.2228
   75CGG    AL4 2668   9.181   7.587   9.248 -0.6112  0.7955 -0.2541
   75CGG   AL41 2669   9.263   6.994   9.177  0.1336  0.0967  0.2914
   75CGG   AL42 2670   9.117   6.239   9.006  0.3653 -0.7254  0.3933
   75CGG   AL43 2671   9.083   6.533   9.043 -0.1972 -0.1186 -0.3916
   75CGG   AL44 2672   9.300   6.709   9.141  0.1529  0.3119 -0.2682
   75CGG   AL81 2673   9.374   6.104   9.060  0.0458  0.3863 -0.2514
   75CGG   AL82 2674   9.214   5.369   8.904  0.2229 -0.3352  0.1319
   75CGG   AL83 2675   9.185   5.652   8.932  0.0489  0.0862 -0.0275
   75CGG   AL84 2676   9.410   5.823   9.029  0.0811  0.5049  0.2385
   75CGG    SI5 2677   9.093   7.091   9.422 -0.2895  0.3601 -0.3671
   75CGG    SI6 2678   9.012   7.684   9.497 -0.0351  0.0442 -0.0158
   75CGG    SI7 2679   9.054   7.913   8.972 -0.0732  0.5273  0.0636
   75CGG    SI8 2680   9.126   7.322   8.893 -0.3890  0.5518  0.0581
   75CGG    SI9 2681   8.782   7.506   9.394  0.0861  0.1562 -0.0226
   75CGG   SI10 2682   8.828   7.217   9.368  0.2722 -0.0782  0.3005
   75CGG   SI11 2683   9.363   7.499   9.005 -0.4239 -0.1297 -0.1098
   75CGG   SI12 2684   9.317   7.790   9.041 -0.0482 -0.3183 -0.2234
   75CGG   SI45 2685   9.208   6.211   9.312  0.1694  0.3255  0.3859
   75CGG   SI46 2686   9.132   6.797   9.393 -0.1214  0.1066 -0.2217
   75CGG   SI47 2687   9.180   7.034   8.870 -0.0401 -0.2589 -0.0465
   75CGG   SI48 2688   9.253   6.438   8.789  0.0063  0.0301 -0.0601
   75CGG   SI49 2689   8.893   6.622   9.286  0.0511  0.2290 -0.0819
   75CGG   SI50 2690   8.950   6.336   9.259  0.4726  0.1983  0.2090
   75CGG   SI51 2691   9.478   6.620   8.894  0.3515  0.2352  0.5609
   75CGG   SI52 2692   9.445   6.907   8.925 -0.1524 -0.1426 -0.0810
   75CGG   SI85 2693   9.314   5.332   9.196 -0.2018  0.2894 -0.0140
   75CGG   SI86 2694   9.244   5.917   9.282 -0.0557  0.1273 -0.1169
   75CGG   SI87 2695   9.294   6.147   8.755  0.5756  0.3987 -0.3406
   75CGG   SI88 2696   9.358   5.557   8.682  0.2870  0.1480 -0.2767
   75CGG   SI89 2697   9.010   5.748   9.178  0.4614  0.0335  0.0708
   75CGG   SI90 2698   9.047   5.456   9.149  0.3874 -0.1899 -0.1567
   75CGG   SI91 2699   9.584   5.732   8.777 -0.2939 -0.2091 -0.1170
   75CGG   SI92 2700   9.553   6.021   8.826 -0.3939  0.0002  0.2965
   76CGG    AL1 2701   8.649   7.822   9.116  0.0675 -0.5037  0.1159
   76CGG    AL2 2702   8.494   7.087   8.944 -0.9225  0.2731  0.0406
   76CGG    AL3 2703   8.471   7.373   8.983 -0.6716 -0.1303 -0.2103
   76CGG    AL4 2704   8.694   7.535   9.087 -0.2209  0.2059 -0.1587
   76CGG   AL41 2705   8.767   6.959   9.014  0.4443  0.1717  0.0797
   76CGG   AL42 2706   8.620   6.199   8.847 -0.2809  0.6482  0.3065
   76CGG   AL43 2707   8.586   6.490   8.881 -0.1036 -0.0194 -0.0126
   76CGG   AL44 2708   8.805   6.657   8.977  0.1453  0.1259 -0.1305
   76CGG   AL81 2709   8.890   6.066   8.899  0.1034  0.2369  0.1221
   76CGG   AL82 2710   8.732   5.300   8.731 -0.1686  0.0975  0.2875
   76CGG   AL83 2711   8.699   5.598   8.771 -0.5526  0.2463 -0.3012
   76CGG   AL84 2712   8.920   5.780   8.866 -0.2225  0.2882 -0.2927
   76CGG    SI5 2713   8.589   7.046   9.261  0.1887  0.3695  0.0850
   76CGG    SI6 2714   8.517   7.633   9.338 -0.0971  0.4902 -0.1694
   76CGG    SI7 2715   8.561   7.869   8.814 -0.4057  0.3378 -0.3518
   76CGG    SI8 2716   8.631   7.284   8.730 -0.1917 -0.1397  0.2126
   76CGG    SI9 2717   8.293   7.466   9.229  0.1771 -0.2010  0.7160
   76CGG   SI10 2718   8.330   7.177   9.190  0.4707 -0.6077  0.1180
   76CGG   SI11 2719   8.865   7.447   8.837 -0.2819 -0.1126  0.2576
   76CGG   SI12 2720   8.818   7.739   8.864  0.0059 -0.2184 -0.2648
   76CGG   SI45 2721   8.719   6.162   9.153 -0.1554  0.4517  0.3923
   76CGG   SI46 2722   8.633   6.755   9.223 -0.0811 -0.3229 -0.2030
   76CGG   SI47 2723   8.680   6.985   8.701  0.4123 -0.3274 -0.1326
   76CGG   SI48 2724   8.752   6.402   8.630 -0.5820 -0.0038  0.3594
   76CGG   SI49 2725   8.408   6.580   9.120  0.0633  0.0323 -0.0658
   76CGG   SI50 2726   8.452   6.288   9.089  0.0538  0.2812 -0.3951
   76CGG   SI51 2727   8.991   6.569   8.733 -0.7663 -0.0484  0.0395
   76CGG   SI52 2728   8.944   6.859   8.770  0.0360 -0.1493 -0.3415
   76CGG   SI85 2729   8.821   5.277   9.043 -0.2843  0.3572  0.0502
   76CGG   SI86 2730   8.746   5.868   9.111 -0.4088  0.1169 -0.0506
   76CGG   SI87 2731   8.797   6.106   8.596 -0.2585 -0.0930 -0.3098
   76CGG   SI88 2732   8.865   5.510   8.521 -0.3530  0.2925  0.0046
   76CGG   SI89 2733   8.520   5.692   9.013 -0.1194 -0.1723 -0.3177
   76CGG   SI90 2734   8.561   5.401   8.980 -0.0014  0.1386 -0.3702
   76CGG   SI91 2735   9.098   5.680   8.621  0.1193  0.0683 -0.3070
   76CGG   SI92 2736   9.059   5.969   8.654  0.5102 -0.4529 -0.0623
   77CGG    AL1 2737   8.160   7.801   8.951  0.3244 -0.0721  0.0733
   77CGG    AL2 2738   8.016   7.040   8.791 -0.3603 -0.6833 -0.0567
   77CGG    AL3 2739   7.971   7.342   8.825 -0.4971  0.4160  0.0531
   77CGG    AL4 2740   8.201   7.509   8.921  0.5177 -0.1426 -0.1191
   77CGG   AL41 2741   8.276   6.908   8.848  0.2806  0.4902  0.2091
   77CGG   AL42 2742   8.122   6.154   8.692 -0.3254  0.2298 -0.1608
   77CGG   AL43 2743   8.092   6.454   8.726  0.3194  0.4066  0.4606
   77CGG   AL44 2744   8.309   6.622   8.814 -0.6143 -0.0828 -0.1209
   77CGG   AL81 2745   8.395   6.027   8.750 -0.3204  0.1066  0.5792
   77CGG   AL82 2746   8.244   5.269   8.578  0.2982 -0.0268  0.1509
   77CGG   AL83 2747   8.210   5.549   8.619  0.0923 -0.2916 -0.2045
   77CGG   AL84 2748   8.434   5.728   8.710  0.0736 -0.4081 -0.0540
   77CGG    SI5 2749   8.113   7.006   9.096  0.3826  0.4576 -0.0961
   77CGG    SI6 2750   8.033   7.605   9.175  0.1197  0.1421 -0.2833
   77CGG    SI7 2751   8.067   7.834   8.641 -0.2486  0.0712  0.0654
   77CGG    SI8 2752   8.143   7.247   8.577 -0.2768 -0.1663 -0.1664
   77CGG    SI9 2753   7.795   7.424   9.074 -0.2255 -0.8562 -0.3081
   77CGG   SI10 2754   7.847   7.136   9.034  0.0313  0.5264  0.4572
   77CGG   SI11 2755   8.371   7.419   8.676 -0.2264  0.2196  0.2819
   77CGG   SI12 2756   8.332   7.714   8.705  0.2072  0.0660 -0.2719
   77CGG   SI45 2757   8.225   6.118   8.997 -0.3157  0.4364 -0.0403
   77CGG   SI46 2758   8.146   6.714   9.070  0.2082 -0.0160 -0.1616
   77CGG   SI47 2759   8.197   6.955   8.544 -0.2296  0.8584 -0.1618
   77CGG   SI48 2760   8.261   6.353   8.477  0.4016 -0.3884  0.0728
   77CGG   SI49 2761   7.914   6.541   8.976 -0.1341 -0.0772  0.3123
   77CGG   SI50 2762   7.962   6.243   8.945 -0.1201  0.7293  0.0110
   77CGG   SI51 2763   8.491   6.521   8.573  0.4699 -0.1163 -0.2128
   77CGG   SI52 2764   8.454   6.812   8.605  0.3789  0.0201 -0.1081
   77CGG   SI85 2765   8.335   5.232   8.892  0.3909  0.5062  0.2004
   77CGG   SI86 2766   8.262   5.827   8.963  0.1183  0.2299  0.0926
   77CGG   SI87 2767   8.301   6.059   8.446 -0.0047 -0.0832 -0.1018
   77CGG   SI88 2768   8.389   5.461   8.367  0.0497  0.1055 -0.1723
   77CGG   SI89 2769   8.031   5.647   8.861 -0.1459 -0.1044 -0.1087
   77CGG   SI90 2770   8.071   5.353   8.832  0.0965 -0.3396 -0.0649
   77CGG   SI91 2771   8.610   5.641   8.464  0.1258  0.6292  0.3057
   77CGG   SI92 2772   8.563   5.931   8.500  0.2276 -0.5486 -0.2234
   78CGG    AL1 2773   7.669   7.754   8.792  0.0428 -0.1228  0.4341
   78CGG    AL2 2774   7.520   6.997   8.626  0.1463 -0.9103 -0.0578
   78CGG    AL3 2775   7.479   7.291   8.658 -0.0471 -0.1239 -0.1765
   78CGG    AL4 2776   7.707   7.456   8.761  0.4596 -0.3530  0.3092
   78CGG   AL41 2777   7.788   6.866   8.691 -0.0656 -0.0426  0.0423
   78CGG   AL42 2778   7.643   6.109   8.533 -0.2164  0.1204  0.3917
   78CGG   AL43 2779   7.603   6.402   8.563 -0.0745  0.0413  0.0399
   78CGG   AL44 2780   7.831   6.575   8.663  0.5439  0.1348 -0.4425
   78CGG   AL81 2781   7.909   5.973   8.587  0.1382  0.5293 -0.0473
   78CGG   AL82 2782   7.753   5.213   8.430 -0.1703  0.3350  0.1330
   78CGG   AL83 2783   7.726   5.518   8.465 -0.0506 -0.2893  0.3682
   78CGG   AL84 2784   7.947   5.690   8.556 -0.5595  0.0739  0.1403
   78CGG    SI5 2785   7.607   6.965   8.934 -0.3664  0.3770  0.2575
   78CGG    SI6 2786   7.535   7.554   9.004 -0.4687  0.3500  0.4594
   78CGG    SI7 2787   7.576   7.795   8.486 -0.2863  0.2558  0.1648
   78CGG    SI8 2788   7.661   7.194   8.413  0.1347 -0.5614 -0.0206
   78CGG    SI9 2789   7.309   7.386   8.901  0.6893  0.2774 -0.3726
   78CGG   SI10 2790   7.348   7.092   8.874  0.5903 -0.3127  0.0174
   78CGG   SI11 2791   7.881   7.375   8.521 -0.0122  0.3207  0.2512
   78CGG   SI12 2792   7.829   7.663   8.546 -0.2222  0.1494  0.2852
   78CGG   SI45 2793   7.730   6.067   8.843 -0.0341 -0.2074  0.0465
   78CGG   SI46 2794   7.656   6.668   8.911  0.3584 -0.0653  0.6201
   78CGG   SI47 2795   7.697   6.905   8.382  0.1790  0.4077 -0.1726
   78CGG   SI48 2796   7.772   6.303   8.316 -0.1660  0.7456  0.0062
   78CGG   SI49 2797   7.423   6.489   8.794 -0.0376 -0.2837  0.0101
   78CGG   SI50 2798   7.467   6.206   8.775  0.5994 -0.0041  0.3097
   78CGG   SI51 2799   8.001   6.476   8.421  0.0153 -0.0886 -0.0614
   78CGG   SI52 2800   7.961   6.771   8.444 -0.0319 -0.2483  0.2268
   78CGG   SI85 2801   7.843   5.174   8.733  0.4533 -0.1964  0.4041
   78CGG   SI86 2802   7.770   5.779   8.804  0.7874 -0.4294 -0.3042
   78CGG   SI87 2803   7.811   6.004   8.281  0.3239 -0.1117  0.0421
   78CGG   SI88 2804   7.891   5.417   8.217  0.4096  0.0867  0.0748
   78CGG   SI89 2805   7.545   5.606   8.701  0.1939 -0.1633  0.0046
   78CGG   SI90 2806   7.591   5.310   8.681 -0.0663 -0.0479  0.4242
   78CGG   SI91 2807   8.123   5.595   8.309  0.4126  0.1104  0.0001
   78CGG   SI92 2808   8.073   5.887   8.332  0.1408  0.2958  0.6485
   79CGG    AL1 2809   7.188   7.713   8.616  0.3253  0.0391  0.3667
   79CGG    AL2 2810   7.029   6.951   8.466 -0.3248  0.1604  0.2949
   79CGG    AL3 2811   6.991   7.245   8.502 -0.2943 -0.3461  0.3042
   79CGG    AL4 2812   7.219   7.420   8.592  0.2584 -0.0847 -0.4642
   79CGG   AL41 2813   7.295   6.830   8.519 -0.2466 -0.1334 -0.1099
   79CGG   AL42 2814   7.143   6.055   8.368  0.0941 -0.0400 -0.0765
   79CGG   AL43 2815   7.107   6.360   8.399 -0.4273  0.0593  0.6881
   79CGG   AL44 2816   7.341   6.519   8.490  0.0618 -0.2908  0.1241
   79CGG   AL81 2817   7.414   5.924   8.426 -0.5729 -0.3055  0.0173
   79CGG   AL82 2818   7.266   5.167   8.283 -0.2931 -0.1491 -0.3155
   79CGG   AL83 2819   7.223   5.458   8.306 -0.1933 -0.0664  0.1948
   79CGG   AL84 2820   7.451   5.634   8.394  0.1517  0.0150  0.2764
   79CGG    SI5 2821   7.128   6.915   8.775  0.0012 -0.4011  0.2653
   79CGG    SI6 2822   7.050   7.520   8.837 -0.0933 -0.1089 -0.0894
   79CGG    SI7 2823   7.093   7.745   8.310  0.6513 -0.5951 -0.3949
   79CGG    SI8 2824   7.165   7.153   8.250  0.0784  0.2763 -0.1678
   79CGG    SI9 2825   6.818   7.338   8.742 -0.5003 -0.1175  0.1256
   79CGG   SI10 2826   6.863   7.041   8.717  0.3926 -0.2725  0.1770
   79CGG   SI11 2827   7.398   7.327   8.349  0.0557  0.0988  0.2036
   79CGG   SI12 2828   7.356   7.619   8.375  0.1569  0.3587 -0.0974
   79CGG   SI45 2829   7.248   6.033   8.676 -0.4604  0.6051  0.0625
   79CGG   SI46 2830   7.170   6.622   8.732  0.0307 -0.0494  0.3716
   79CGG   SI47 2831   7.209   6.857   8.218  0.0078 -0.5132 -0.0388
   79CGG   SI48 2832   7.278   6.258   8.157  0.1444  0.3866 -0.1797
   79CGG   SI49 2833   6.938   6.448   8.647 -0.1021 -0.3542 -0.0617
   79CGG   SI50 2834   6.991   6.161   8.619 -0.3336  0.1940 -0.2535
   79CGG   SI51 2835   7.517   6.432   8.255 -0.1076 -0.2091  0.1144
   79CGG   SI52 2836   7.471   6.726   8.275 -0.5945 -0.5047 -0.3363
   79CGG   SI85 2837   7.366   5.142   8.584  0.0419 -0.0974 -0.0461
   79CGG   SI86 2838   7.288   5.734   8.645 -0.2467  0.0102 -0.2825
   79CGG   SI87 2839   7.325   5.964   8.123  0.0253 -0.4214 -0.0758
   79CGG   SI88 2840   7.396   5.362   8.060  0.3903 -0.0501 -0.4918
   79CGG   SI89 2841   7.055   5.550   8.555 -0.4564 -0.3075 -0.1030
   79CGG   SI90 2842   7.096   5.261   8.528  0.1236 -0.0219  0.1039
   79CGG   SI91 2843   7.626   5.548   8.152 -0.0691 -0.1072  0.1335
   79CGG   SI92 2844   7.587   5.838   8.182  0.2530  0.0801  0.3499
   80CGG    AL1 2845   6.690   7.676   8.459  0.4809  0.2077 -0.0607
   80CGG    AL2 2846   6.544   6.904   8.322 -0.0044 -0.1697  0.4329
   80CGG    AL3 2847   6.503   7.199   8.344 -0.0576  0.1240 -0.2528
   80CGG    AL4 2848   6.730   7.375   8.432  0.0215 -0.4491 -0.2964
   80CGG   AL41 2849   6.818   6.762   8.371  0.0838 -0.3284 -0.0128
   80CGG   AL42 2850   6.661   6.005   8.214 -0.2325 -0.2598 -0.3745
   80CGG   AL43 2851   6.625   6.300   8.253  0.2971  0.7180 -0.0881
   80CGG   AL44 2852   6.845   6.481   8.337  0.4670 -0.0470 -0.0155
   80CGG   AL81 2853   6.920   5.884   8.262  0.0780 -0.1803  0.0535
   80CGG   AL82 2854   6.768   5.122   8.126  0.2226 -0.4937 -0.2735
   80CGG   AL83 2855   6.728   5.412   8.159  0.0360 -0.0374  0.4454
   80CGG   AL84 2856   6.962   5.583   8.245  0.2237 -0.3713  0.0163
   80CGG    SI5 2857   6.637   6.867   8.622  0.1471 -0.0484 -0.1121
   80CGG    SI6 2858   6.567   7.476   8.686 -0.2396  0.0218  0.0681
   80CGG    SI7 2859   6.597   7.704   8.151  0.1905  0.2350  0.2500
   80CGG    SI8 2860   6.663   7.088   8.090 -0.2930 -0.1937 -0.0141
   80CGG    SI9 2861   6.338   7.293   8.599 -0.1350  0.1156  0.1476
   80CGG   SI10 2862   6.381   7.003   8.575  0.1083 -0.4553 -0.1310
   80CGG   SI11 2863   6.902   7.275   8.193 -0.0447 -0.0081  0.2837
   80CGG   SI12 2864   6.859   7.566   8.212 -0.0304 -0.4511 -0.2072
   80CGG   SI45 2865   6.764   5.980   8.519 -0.0403 -0.3712 -0.0035
   80CGG   SI46 2866   6.677   6.573   8.592 -0.8829 -0.5205  0.0050
   80CGG   SI47 2867   6.702   6.793   8.078 -0.3858  0.6100  0.1369
   80CGG   SI48 2868   6.780   6.204   7.996  0.0297  0.0673  0.0938
   80CGG   SI49 2869   6.451   6.390   8.494 -0.3162 -0.2368 -0.0367
   80CGG   SI50 2870   6.498   6.098   8.471 -0.1540 -0.0678 -0.1858
   80CGG   SI51 2871   7.014   6.385   8.083  0.2041 -0.3734 -0.1235
   80CGG   SI52 2872   6.974   6.684   8.120 -0.4485  0.2361  0.2518
   80CGG   SI85 2873   6.861   5.091   8.438  0.5477  0.0216 -0.3036
   80CGG   SI86 2874   6.801   5.690   8.494  0.1870  0.2272  0.0398
   80CGG   SI87 2875   6.823   5.908   7.957  0.0076 -0.1432  0.4223
   80CGG   SI88 2876   6.896   5.322   7.903 -0.0848 -0.3538 -0.1094
   80CGG   SI89 2877   6.561   5.507   8.404  0.4686 -0.3693 -0.1867
   80CGG   SI90 2878   6.601   5.216   8.376  0.3108  0.1696  0.5261
   80CGG   SI91 2879   7.137   5.491   8.001  0.0247  0.0845  0.0519
   80CGG   SI92 2880   7.093   5.787   8.024  0.2056  0.0357 -0.1523
  161NAA     NA 2881  14.580  15.468  12.871 -0.1223 -0.3683  0.1463
  162NAA     NA 2882  14.307  14.427  11.234 -0.0146 -0.0543  0.2900
  163NAA     NA 2883  14.841  15.844  11.627  0.0126  0.2396 -0.0518
  164NAA     NA 2884  13.895  15.751  11.225  0.1020  0.1774 -0.2019
  165NAA     NA 2885  14.245  15.940  12.794  0.1857 -0.1597 -0.2707
  166NAA     NA 2886  14.202  13.115  10.996 -0.3030  0.1424  0.1141
  167NAA     NA 2887  13.285  15.873  12.451  0.0367  0.3255 -0.0084
  168NAA     NA 2888  13.281  14.320  10.902  0.0923 -0.2902  0.0609
  169NAA     NA 2889  12.344  15.775  12.104 -0.0844 -0.1156  0.2751
  170NAA     NA 2890  13.260  14.547  12.265  0.3921  0.2683  0.0747
  171NAA     NA 2891  12.941  15.641  10.926  0.2225  0.2087  0.4385
  172NAA     NA 2892  12.305  14.429  11.925 -0.5643 -0.2087  0.0111
  173NAA     NA 2893  11.367  15.671  11.772  0.0279 -0.4857  0.0476
  174NAA     NA 2894  11.910  15.567  10.561 -0.0685 -0.0876  0.0577
  175NAA     NA 2895  10.934  15.479  10.266 -0.1579  0.1069 -0.2306
  176NAA     NA 2896  12.347  14.216  10.561 -0.0300 -0.0457 -0.2590
  177NAA     NA 2897  10.371  14.272  11.267 -0.2214 -0.1866 -0.0302
  178NAA     NA 2898  11.330  14.130  10.229  0.0305 -0.1080  0.1427
  179NAA     NA 2899  10.331  15.689  11.457  0.0036 -0.2568  0.2590
  180NAA     NA 2900  10.327  14.101   9.908 -0.1481 -0.0509  0.0840
  181NAA     NA 2901   9.367  15.503  11.103 -0.0406  0.1023 -0.1767
  182NAA     NA 2902  10.376  13.309  11.167  0.1704  0.1863 -0.0992
  183NAA     NA 2903   9.960  15.328   9.905  0.0226  0.1933 -0.0424
  184NAA     NA 2904   9.174  13.681  10.803 -0.2307  0.3083 -0.0876
  185NAA     NA 2905   8.408  15.470  10.801 -0.0089 -0.2352 -0.1374
  186NAA     NA 2906   8.981  15.337   9.580 -0.2946  0.5113 -0.3182
  187NAA     NA 2907   7.035  15.089   8.983 -0.1033 -0.1204  0.0538
  188NAA     NA 2908   7.969  15.218   9.290 -0.2555  0.4127 -0.1706
  189NAA     NA 2909   7.419  15.348  10.434  0.0640 -0.0518 -0.2048
  190NAA     NA 2910   8.400  13.816   9.214 -0.0485 -0.1212  0.0215
  191NAA     NA 2911   7.554  14.461  10.398 -0.1174 -0.1835 -0.0270
  192NAA     NA 2912   7.845  12.475   8.895  0.2963  0.1179  0.0901
  193NAA     NA 2913   6.473  15.339  10.231 -0.3550  0.2098 -0.2395
  194NAA     NA 2914   7.136  13.456  10.150 -0.2561 -0.0380  0.0622
  195NAA     NA 2915   6.921  13.736   8.713  0.2407  0.0855  0.2439
  196NAA     NA 2916   6.446  12.955   9.883  0.0401  0.0106 -0.2014
  197NAA     NA 2917   5.781  14.794   9.927 -0.2422  0.2742  0.0295
  198NAA     NA 2918   6.064  15.025   8.649 -0.2520 -0.0015  0.2755
  199NAA     NA 2919   5.219  15.427   8.936  0.0274  0.4619  0.1499
  200NAA     NA 2920   5.326  13.788   8.962  0.0033  0.2409 -0.1123
  201NAA     NA 2921  14.883  12.835  12.587  0.1231 -0.2278  0.2390
  202NAA     NA 2922  14.998  10.458  10.887 -0.3049 -0.2397 -0.5611
  203NAA     NA 2923  15.144  13.162  11.331  0.0695 -0.1076 -0.3629
  204NAA     NA 2924  15.600  11.804  11.281  0.0020  0.0067  0.4400
  205NAA     NA 2925  13.979  14.055  12.446 -0.0481 -0.0517 -0.0204
  206NAA     NA 2926  14.013  10.368  10.575  0.0790  0.1123  0.1156
  207NAA     NA 2927  13.452  12.694  12.061  0.2854 -0.0322  0.2071
  208NAA     NA 2928  13.606  11.648  10.599 -0.3136 -0.3463 -0.0316
  209NAA     NA 2929  12.026  13.876  11.775  0.4093 -0.2931  0.2207
  210NAA     NA 2930  13.548  11.755  11.969 -0.1965 -0.2888 -0.0381
  211NAA     NA 2931  13.267  12.948  10.694  0.1491  0.0511  0.0180
  212NAA     NA 2932  12.200  10.744  11.384 -0.1264 -0.0537 -0.1679
  213NAA     NA 2933  12.024  12.609  11.599  0.0778  0.1934  0.3053
  214NAA     NA 2934  12.240  12.873  10.345  0.1805  0.2533 -0.1576
  215NAA     NA 2935  10.807  12.728   9.881  0.2715 -0.0425  0.1735
  216NAA     NA 2936  12.630  11.560  10.305 -0.1678 -0.0162  0.1627
  217NAA     NA 2937  11.393  13.398  11.489 -0.0370  0.1235 -0.0861
  218NAA     NA 2938  11.681  11.479   9.992  0.3419 -0.0136 -0.2010
  219NAA     NA 2939  10.977  12.497  11.236 -0.2768  0.3932 -0.1830
  220NAA     NA 2940  10.673  11.425   9.643 -0.0013 -0.1702  0.3926
  221NAA     NA 2941   9.700  12.849  10.877  0.2250  0.2483 -0.3863
  222NAA     NA 2942  10.420  11.058  10.837 -0.0806 -0.2280 -0.1487
  223NAA     NA 2943   9.786  12.710   9.563  0.3428 -0.0003 -0.0601
  224NAA     NA 2944   9.644  11.519  10.649  0.1355 -0.0198 -0.4946
  225NAA     NA 2945   8.765  12.728  10.571  0.1340 -0.5077 -0.0626
  226NAA     NA 2946   9.357  13.969   9.569  0.0668  0.3055  0.2580
  227NAA     NA 2947   8.848  12.575   9.223  0.0314 -0.1112  0.0897
  228NAA     NA 2948   9.711  11.304   9.320 -0.0590  0.0589 -0.2911
  229NAA     NA 2949   7.981  13.091  10.368  0.1438  0.3950  0.0313
  230NAA     NA 2950   8.726  11.197   9.019 -0.0672 -0.0501  0.1484
  231NAA     NA 2951   7.732  11.318  10.053  0.5587 -0.0000 -0.1949
  232NAA     NA 2952   7.818  11.167   8.681 -0.1269 -0.0725  0.2038
  233NAA     NA 2953   8.077  12.275  10.268  0.2619 -0.2426 -0.0250
  234NAA     NA 2954   7.765  10.346   9.907  0.1616 -0.2124  0.0992
  235NAA     NA 2955   6.887  12.437   8.565  0.0792 -0.2260  0.1860
  236NAA     NA 2956   6.319  10.286   9.425  0.0661  0.2416  0.0586
  237NAA     NA 2957   7.033  12.103   9.917 -0.0396  0.4691  0.0695
  238NAA     NA 2958   6.821  11.083   8.337  0.1352  0.2061 -0.0440
  239NAA     NA 2959   5.550  12.700   8.629  0.1985 -0.1300  0.0524
  240NAA     NA 2960   5.696  11.134   8.624 -0.1220  0.1383 -0.0289
  241NAA     NA 2961  15.212  10.166  12.280  0.0125 -0.2976  0.1895
  242NAA     NA 2962  14.816   9.295  12.044 -0.1855 -0.0948  0.0373
  243NAA     NA 2963  14.603  11.758  10.954  0.2054 -0.0684 -0.2010
  244NAA     NA 2964  15.757   8.626  10.849  0.1694 -0.1915 -0.3252
  245NAA     NA 2965  14.314  11.421  12.181 -0.2082 -0.1282 -0.0664
  246NAA     NA 2966  15.121   9.526  10.801  0.0421 -0.0719 -0.1432
  247NAA     NA 2967  14.275  10.063  11.945  0.0971  0.1764 -0.0012
  248NAA     NA 2968  13.986   8.955  10.336  0.2560  0.1315  0.1944
  249NAA     NA 2969  12.955  10.399  11.561  0.0721 -0.2860  0.0824
  250NAA     NA 2970  13.714   8.613  11.568 -0.0859 -0.4281  0.0472
  251NAA     NA 2971  13.081  10.284  10.277 -0.3123 -0.0958  0.1677
  252NAA     NA 2972  12.704   8.504  11.229 -0.3766 -0.0132  0.1330
  253NAA     NA 2973  12.358   9.922  11.335  0.2640  0.1267 -0.2927
  254NAA     NA 2974  13.027   8.893  10.032 -0.0556 -0.0789  0.1422
  255NAA     NA 2975  12.095  10.192   9.950 -0.0982 -0.0846  0.0596
  256NAA     NA 2976  12.015   8.836   9.662 -0.0492 -0.1311  0.1484
  257NAA     NA 2977  11.255  10.710  11.080  0.1752 -0.1518  0.0611
  258NAA     NA 2978  10.059   8.632   9.031 -0.1200  0.1250  0.0263
  259NAA     NA 2979  11.040  10.157  10.910  0.2450 -0.5888 -0.0419
  260NAA     NA 2980  11.019   8.750   9.369  0.1745  0.1445 -0.3156
  261NAA     NA 2981  10.068  10.170  10.619  0.0250  0.0009  0.1547
  262NAA     NA 2982  11.037   8.048  10.610  0.2303  0.1009 -0.0332
  263NAA     NA 2983  11.131  10.102   9.613 -0.0158  0.2988 -0.1527
  264NAA     NA 2984   9.791   8.317  10.259  0.5300 -0.2186  0.1355
  265NAA     NA 2985   9.519  10.120  10.418  0.2134  0.1747 -0.0999
  266NAA     NA 2986  10.151   9.979   9.290 -0.0337 -0.1408  0.1316
  267NAA     NA 2987   9.135   9.871   8.943  0.1993  0.0305 -0.0059
  268NAA     NA 2988   9.106   8.562   8.722  0.2720  0.0009  0.1375
  269NAA     NA 2989   8.531  10.055  10.090  0.2502  0.1883 -0.2287
  270NAA     NA 2990   8.086   8.470   8.393  0.1312  0.1763  0.3131
  271NAA     NA 2991   7.910   9.513   9.840 -0.1463  0.4714  0.0280
  272NAA     NA 2992   8.033   7.120   8.178  0.0394  0.2586 -0.0211
  273NAA     NA 2993   7.104   9.950   9.644 -0.4715  0.1611 -0.0373
  274NAA     NA 2994   7.855   8.099   9.582 -0.1136  0.2644 -0.1181
  275NAA     NA 2995   8.209   9.836   8.605  0.0014 -0.0725  0.0389
  276NAA     NA 2996   7.127   7.640   9.286 -0.0844  0.1712  0.3395
  277NAA     NA 2997   6.384   9.370   9.321  0.1322  0.5163 -0.3218
  278NAA     NA 2998   7.151   8.400   8.045 -0.2018 -0.5352 -0.2296
  279NAA     NA 2999   7.213   9.732   8.262 -0.2399 -0.0952 -0.1205
  280NAA     NA 3000   5.969  10.032   8.322 -0.0359 -0.0742  0.1132
  281NAA     NA 3001  15.595   7.503  11.987 -0.1420 -0.0391  0.0409
  282NAA     NA 3002  15.957   6.136  11.940  0.0312 -0.0676  0.1999
  283NAA     NA 3003  15.361   7.769  10.598 -0.0884 -0.0363 -0.0224
  284NAA     NA 3004  15.790   6.497  10.551 -0.1677 -0.0854  0.0645
  285NAA     NA 3005  15.224   7.919  11.987  0.2148 -0.0203  0.1038
  286NAA     NA 3006  14.404   7.679  10.303 -0.0233 -0.3405  0.0926
  287NAA     NA 3007  14.269   7.823  11.649  0.1664 -0.3635 -0.1716
  288NAA     NA 3008  14.344   4.922  13.103 -0.0938  0.3147 -0.0299
  289NAA     NA 3009  13.274   7.760  11.282  0.0582 -0.2689 -0.1018
  290NAA     NA 3010  14.194   6.541  11.399 -0.1890 -0.1527 -0.1634
  291NAA     NA 3011  13.415   7.618   9.942  0.0766  0.0585 -0.1060
  292NAA     NA 3012  13.049   5.870  10.879 -0.1267 -0.1757  0.0847
  293NAA     NA 3013  12.672   7.265  11.002  0.0141  0.3141  0.0069
  294NAA     NA 3014  14.360   6.346  10.038 -0.2331 -0.0030  0.6227
  295NAA     NA 3015  12.465   7.531   9.621  0.1567 -0.2001 -0.0093
  296NAA     NA 3016  13.380   6.282   9.701  0.0855  0.0440 -0.0594
  297NAA     NA 3017  12.015   8.022  10.915 -0.1795  0.1413 -0.3845
  298NAA     NA 3018  12.376   6.171   9.348 -0.3526 -0.0922 -0.0872
  299NAA     NA 3019  11.346   7.461  10.604  0.2656  0.2582 -0.0982
  300NAA     NA 3020  11.085   6.516   8.998  0.1333  0.6046  0.0479
  301NAA     NA 3021  10.387   7.492  10.301  0.1365  0.1754 -0.0509
  302NAA     NA 3022  11.451   6.678  10.519  0.0859  0.2807  0.0034
  303NAA     NA 3023  11.455   7.445   9.290 -0.1149 -0.2690 -0.3173
  304NAA     NA 3024  10.224   5.567   9.946  0.1100  0.3688  0.1106
  305NAA     NA 3025   9.746   6.929  10.031  0.3533 -0.0729 -0.0298
  306NAA     NA 3026   9.141   5.143   8.527  0.3383 -0.0534  0.0491
  307NAA     NA 3027   9.601   6.393   8.548 -0.1742 -0.0354 -0.2510
  308NAA     NA 3028  10.935   4.627  11.876  0.0682  0.3181 -0.1127
  309NAA     NA 3029   8.635   7.730   9.796 -0.4472  0.5382 -0.3963
  310NAA     NA 3030  10.012   7.372   8.791 -0.2876 -0.1756  0.0071
  311NAA     NA 3031   8.713   6.932   9.693  0.4321 -0.4019  0.0155
  312NAA     NA 3032   7.977   5.765   7.897 -0.1564  0.0343 -0.4998
  313NAA     NA 3033   7.477   7.165   9.341 -0.0946  0.0187  0.0103
  314NAA     NA 3034   8.341   6.020   9.454 -0.3043 -0.2580  0.0063
  315NAA     NA 3035   8.982   7.235   8.488 -0.0807 -0.1680 -0.1177
  316NAA     NA 3036   7.205   5.348   9.013 -0.4395  0.1952 -0.2853
  317NAA     NA 3037   6.716   6.703   9.091  0.1242 -0.4689 -0.0979
  318NAA     NA 3038   7.031   7.019   7.841 -0.1008  0.2965  0.0453
  319NAA     NA 3039   6.187   7.410   8.185 -0.3444  0.0225 -0.1763
  320NAA     NA 3040   6.382   5.731   8.053 -0.1219 -0.1087 -0.1328
    1CGG    AL1 3041  14.682  16.172  13.676  0.3626  0.1545 -0.5184
    1CGG    AL2 3042  14.531  15.409  13.543 -0.4230 -0.0633 -0.2663
    1CGG    AL3 3043  14.492  15.707  13.569 -0.3049 -0.2215 -0.1034
    1CGG    AL4 3044  14.723  15.885  13.662  0.6228  0.3225  0.3354
    1CGG   AL41 3045  14.801  15.288  13.618 -0.2614 -0.1486  0.2213
    1CGG   AL42 3046  14.635  14.528  13.459 -0.1761  0.2481  0.3408
    1CGG   AL43 3047  14.602  14.809  13.489 -0.1956 -0.0360 -0.1596
    1CGG   AL44 3048  14.836  14.987  13.582 -0.0129  0.1691 -0.5303
    1CGG   AL81 3049  14.903  14.390  13.542 -0.0453  0.1923  0.3521
    1CGG   AL82 3050  14.740  13.626  13.369 -0.2639  0.2898  0.0865
    1CGG   AL83 3051  14.718  13.916  13.406  0.3910  0.4718 -0.1174
    1CGG   AL84 3052  14.930  14.087  13.514  0.0459  0.0265 -0.1362
    1CGG    SI5 3053  14.617  15.372  13.853  0.5097 -0.0337 -0.1226
    1CGG    SI6 3054  14.544  15.987  13.906  0.7759 -0.3082 -0.6215
    1CGG    SI7 3055  14.593  16.211  13.371 -0.2060 -0.0774  0.0439
    1CGG    SI8 3056  14.675  15.599  13.329  0.2809 -0.1291 -0.0714
    1CGG    SI9 3057  14.326  15.804  13.807 -0.0672  0.3323 -0.1303
    1CGG   SI10 3058  14.362  15.504  13.788 -0.5308 -0.0511 -0.1845
    1CGG   SI11 3059  14.906  15.776  13.433 -0.0231 -0.0484  0.1699
    1CGG   SI12 3060  14.851  16.072  13.434  0.1437 -0.0582 -0.1719
    1CGG   SI45 3061  14.712  14.486  13.771  0.0364 -0.0645 -0.0619
    1CGG   SI46 3062  14.650  15.080  13.820 -0.0084  0.0708  0.1356
    1CGG   SI47 3063  14.717  15.310  13.309 -0.5106 -0.0630 -0.1088
    1CGG   SI48 3064  14.787  14.711  13.246  0.0539 -0.1462 -0.1031
    1CGG   SI49 3065  14.412  14.909  13.723 -0.0897  0.3955  0.1938
    1CGG   SI50 3066  14.460  14.617  13.702  0.1428  0.0885  0.0143
    1CGG   SI51 3067  15.018  14.900  13.347  0.1592  0.2276  0.1041
    1CGG   SI52 3068  14.975  15.186  13.374 -0.0993  0.0854 -0.1433
    1CGG   SI85 3069  14.814  13.583  13.679 -0.5385 -0.2372 -0.0391
    1CGG   SI86 3070  14.750  14.190  13.750  0.0997 -0.0463  0.2497
    1CGG   SI87 3071  14.824  14.416  13.227 -0.3342 -0.5489 -0.0527
    1CGG   SI88 3072  14.894  13.817  13.171  0.0665  0.0697  0.0426
    1CGG   SI89 3073  14.529  14.021  13.628 -0.3150  0.0897 -0.1278
    1CGG   SI90 3074  14.566  13.727  13.615  0.4306  0.0957  0.1054
    1CGG   SI91 3075  15.123  13.985  13.288  0.3667 -0.1532  0.4178
    1CGG   SI92 3076  15.081  14.279  13.297 -0.0152  0.1357 -0.2583
    2CGG    AL1 3077  14.186  16.121  13.524  0.0472 -0.0119 -0.3711
    2CGG    AL2 3078  14.050  15.355  13.369  0.0184 -0.2834  0.7094
    2CGG    AL3 3079  14.013  15.668  13.400 -0.1476 -0.1247 -0.0052
    2CGG    AL4 3080  14.243  15.828  13.498 -0.2197 -0.1587 -0.1064
    2CGG   AL41 3081  14.309  15.231  13.434  0.2150  0.2386 -0.3431
    2CGG   AL42 3082  14.143  14.478  13.276  0.0477  0.3626  0.3185
    2CGG   AL43 3083  14.111  14.770  13.305  0.2664 -0.5953 -0.0951
    2CGG   AL44 3084  14.342  14.940  13.410  0.1211 -0.3194 -0.2771
    2CGG   AL81 3085  14.414  14.340  13.347  0.0007  0.2642  0.4287
    2CGG   AL82 3086  14.261  13.578  13.193  0.3683  0.3118 -0.3504
    2CGG   AL83 3087  14.225  13.880  13.223 -0.2573 -0.0442  0.1443
    2CGG   AL84 3088  14.449  14.053  13.322 -0.4829  0.0767  0.1754
    2CGG    SI5 3089  14.134  15.337  13.678 -0.2368 -0.2656 -0.1603
    2CGG    SI6 3090  14.060  15.922  13.744  0.0609  0.2511  0.1118
    2CGG    SI7 3091  14.106  16.150  13.211 -0.2712 -0.4391  0.1188
    2CGG    SI8 3092  14.183  15.554  13.157  0.0207  0.3303  0.2962
    2CGG    SI9 3093  13.828  15.751  13.638 -0.1754  0.3257  0.1487
    2CGG   SI10 3094  13.877  15.465  13.605  0.2805 -0.0017 -0.0613
    2CGG   SI11 3095  14.422  15.732  13.257  0.0389 -0.2225  0.2629
    2CGG   SI12 3096  14.368  16.023  13.275  0.5035 -0.0627 -0.0995
    2CGG   SI45 3097  14.231  14.450  13.584  0.2916 -0.2905  0.2042
    2CGG   SI46 3098  14.155  15.041  13.653 -0.0512 -0.1960  0.3141
    2CGG   SI47 3099  14.226  15.265  13.124  0.0328  0.0695 -0.5704
    2CGG   SI48 3100  14.297  14.669  13.070 -0.1373 -0.2328  0.0197
    2CGG   SI49 3101  13.926  14.865  13.549 -0.1230 -0.0401  0.2644
    2CGG   SI50 3102  13.970  14.574  13.519 -0.1425 -0.6302  0.2948
    2CGG   SI51 3103  14.526  14.836  13.179 -0.3230 -0.4118 -0.2505
    2CGG   SI52 3104  14.484  15.129  13.200 -0.2710  0.3653 -0.1060
    2CGG   SI85 3105  14.333  13.549  13.513  0.2099 -0.1658  0.0517
    2CGG   SI86 3106  14.270  14.152  13.564  0.3502 -0.2102  0.1311
    2CGG   SI87 3107  14.329  14.374  13.043  0.4247 -0.3331  0.0891
    2CGG   SI88 3108  14.405  13.776  12.980 -0.2495  0.2583 -0.2062
    2CGG   SI89 3109  14.039  13.989  13.458  0.3441  0.1159  0.0710
    2CGG   SI90 3110  14.081  13.687  13.426 -0.2059 -0.3463 -0.8903
    2CGG   SI91 3111  14.640  13.950  13.090  0.3930  0.1668 -0.6676
    2CGG   SI92 3112  14.596  14.249  13.109  0.2433  0.3600 -0.5180
    3CGG    AL1 3113  13.715  16.089  13.359  0.2321  0.2925  0.1374
    3CGG    AL2 3114  13.562  15.331  13.205  0.3804 -0.1349 -0.1202
    3CGG    AL3 3115  13.514  15.628  13.226  0.0357  0.2319  0.3565
    3CGG    AL4 3116  13.745  15.793  13.328  0.4611 -0.4435 -0.2858
    3CGG   AL41 3117  13.823  15.196  13.265  0.6030  0.3319 -0.5311
    3CGG   AL42 3118  13.665  14.448  13.100 -0.2151  0.5612 -0.4146
    3CGG   AL43 3119  13.631  14.736  13.129  0.1630  0.1910 -0.0336
    3CGG   AL44 3120  13.853  14.899  13.233  0.0433 -0.0727  0.1294
    3CGG   AL81 3121  13.923  14.305  13.170 -0.5207 -0.2316 -0.0463
    3CGG   AL82 3122  13.788  13.539  13.014  0.3561 -0.4517  0.2908
    3CGG   AL83 3123  13.741  13.841  13.042 -0.6979 -0.2275  0.6303
    3CGG   AL84 3124  13.961  14.018  13.145 -0.8070  0.0667  0.0077
    3CGG    SI5 3125  13.651  15.297  13.506  0.1785  0.0712 -0.1003
    3CGG    SI6 3126  13.574  15.900  13.577 -0.0570  0.6596  0.0536
    3CGG    SI7 3127  13.620  16.133  13.047  0.4188  0.0103 -0.3594
    3CGG    SI8 3128  13.697  15.529  12.985 -0.2620 -0.4122 -0.1644
    3CGG    SI9 3129  13.342  15.720  13.468 -0.1674 -0.0692 -0.5013
    3CGG   SI10 3130  13.388  15.425  13.447  0.0434  0.1459  0.1297
    3CGG   SI11 3131  13.934  15.700  13.090  0.2484  0.1996  0.1702
    3CGG   SI12 3132  13.881  15.988  13.108  0.3762 -0.5106  0.5030
    3CGG   SI45 3133  13.756  14.411  13.410  0.2872  0.2491 -0.2901
    3CGG   SI46 3134  13.676  15.005  13.474  0.2179  0.2195  0.4417
    3CGG   SI47 3135  13.743  15.236  12.961 -0.4317  0.0354 -0.1715
    3CGG   SI48 3136  13.808  14.634  12.892 -0.0108  0.0106 -0.2983
    3CGG   SI49 3137  13.454  14.827  13.380  0.0378 -0.1249 -0.3050
    3CGG   SI50 3138  13.496  14.538  13.340 -0.4666  0.3024  0.0407
    3CGG   SI51 3139  14.040  14.805  12.995 -0.0653 -0.2525 -0.0814
    3CGG   SI52 3140  14.002  15.097  13.031  0.2505 -0.2102 -0.1407
    3CGG   SI85 3141  13.865  13.517  13.322  0.3150  0.1480 -0.2742
    3CGG   SI86 3142  13.783  14.113  13.378 -0.2176  0.1261  0.0072
    3CGG   SI87 3143  13.840  14.342  12.857  0.3766 -0.3812 -0.3101
    3CGG   SI88 3144  13.921  13.737  12.796 -0.1677 -0.0919 -0.2155
    3CGG   SI89 3145  13.558  13.936  13.276 -0.0488  0.0056  0.2980
    3CGG   SI90 3146  13.606  13.639  13.255  0.3679 -0.0229 -0.3091
    3CGG   SI91 3147  14.142  13.917  12.911 -0.4308 -0.0258  0.3096
    3CGG   SI92 3148  14.105  14.211  12.933 -0.2568 -0.3181  0.2822
    4CGG    AL1 3149  13.226  16.046  13.188 -0.0477 -0.0367 -0.3464
    4CGG    AL2 3150  13.068  15.290  13.034  0.5713 -0.0752  0.3153
    4CGG    AL3 3151  13.036  15.582  13.061  0.7436 -0.7415 -0.0764
    4CGG    AL4 3152  13.260  15.746  13.156  0.2473 -0.3407 -0.1669
    4CGG   AL41 3153  13.332  15.151  13.099 -0.4338 -0.0653  0.4655
    4CGG   AL42 3154  13.186  14.399  12.930 -0.1945  0.0762 -0.2294
    4CGG   AL43 3155  13.146  14.694  12.964 -0.0517  0.2166 -0.1040
    4CGG   AL44 3156  13.370  14.865  13.069  0.0107  0.3757 -0.1148
    4CGG   AL81 3157  13.447  14.270  12.993 -0.0397 -0.0204  0.1480
    4CGG   AL82 3158  13.299  13.504  12.836  0.4727  0.1120  0.2767
    4CGG   AL83 3159  13.258  13.800  12.874 -0.0778 -0.3656  0.2424
    4CGG   AL84 3160  13.487  13.960  12.964  0.0387 -0.0717 -0.2449
    4CGG    SI5 3161  13.156  15.242  13.339  0.0706 -0.1961  0.2547
    4CGG    SI6 3162  13.086  15.847  13.408 -0.2932 -0.2237 -0.1552
    4CGG    SI7 3163  13.140  16.079  12.879 -0.1652 -0.1162  0.4578
    4CGG    SI8 3164  13.209  15.490  12.812 -0.1167 -0.1706 -0.4379
    4CGG    SI9 3165  12.849  15.671  13.299 -0.6029  0.3162 -0.5931
    4CGG   SI10 3166  12.899  15.374  13.266  0.0092 -0.5122 -0.0022
    4CGG   SI11 3167  13.444  15.660  12.911 -0.0142 -0.0482  0.2548
    4CGG   SI12 3168  13.396  15.951  12.945 -0.2755 -0.1294  0.2332
    4CGG   SI45 3169  13.267  14.361  13.239  0.3069  0.4421 -0.0551
    4CGG   SI46 3170  13.196  14.952  13.314  0.3243  0.0349 -0.0180
    4CGG   SI47 3171  13.249  15.192  12.788 -0.1531 -0.0794 -0.3002
    4CGG   SI48 3172  13.326  14.596  12.723 -0.1515 -0.3232 -0.2636
    4CGG   SI49 3173  12.963  14.779  13.207  0.7076  0.0312 -0.1621
    4CGG   SI50 3174  13.006  14.485  13.171  0.0062  0.0839 -0.4668
    4CGG   SI51 3175  13.556  14.770  12.820 -0.0795 -0.1562  0.2098
    4CGG   SI52 3176  13.514  15.058  12.856 -0.1012  0.1670  0.2450
    4CGG   SI85 3177  13.376  13.467  13.141  0.0942 -0.2173  0.2760
    4CGG   SI86 3178  13.307  14.064  13.202  0.1929  0.0568 -0.5392
    4CGG   SI87 3179  13.362  14.302  12.682  0.3177  0.3494 -0.1642
    4CGG   SI88 3180  13.435  13.698  12.630  0.3023  0.5762 -0.2531
    4CGG   SI89 3181  13.078  13.891  13.109  0.4086 -0.1083  0.1981
    4CGG   SI90 3182  13.118  13.593  13.074  0.1528 -0.3505 -0.2985
    4CGG   SI91 3183  13.669  13.871  12.731 -0.0898 -0.4531 -0.2192
    4CGG   SI92 3184  13.620  14.165  12.750  0.0376  0.0342  0.0913
    5CGG    AL1 3185  12.733  16.011  13.019 -0.3678 -0.3498  0.3515
    5CGG    AL2 3186  12.583  15.243  12.855  0.2589 -0.2809 -0.3046
    5CGG    AL3 3187  12.548  15.538  12.885 -0.4654 -0.5598  0.2214
    5CGG    AL4 3188  12.780  15.704  12.989 -0.2451  0.4410 -0.1840
    5CGG   AL41 3189  12.849  15.111  12.929 -0.0162  0.0742 -0.2205
    5CGG   AL42 3190  12.710  14.350  12.761  0.4005 -0.4148  0.1146
    5CGG   AL43 3191  12.670  14.643  12.790  0.2429  0.0782 -0.1331
    5CGG   AL44 3192  12.890  14.819  12.899 -0.2523  0.4166  0.2385
    5CGG   AL81 3193  12.961  14.221  12.826 -0.2459 -0.2159  0.0614
    5CGG   AL82 3194  12.806  13.460  12.665 -0.7703  0.7698 -0.0173
    5CGG   AL83 3195  12.769  13.765  12.698 -0.0718  0.2940 -0.0887
    5CGG   AL84 3196  13.002  13.921  12.805 -0.1135 -0.4488  0.0637
    5CGG    SI5 3197  12.670  15.214  13.167 -0.2080 -0.4073  0.2429
    5CGG    SI6 3198  12.598  15.810  13.223 -0.2049  0.2462 -0.3568
    5CGG    SI7 3199  12.659  16.034  12.712 -0.2986  0.3705  0.1540
    5CGG    SI8 3200  12.723  15.436  12.648  0.2133  0.1797 -0.1652
    5CGG    SI9 3201  12.367  15.633  13.120 -0.1248 -0.3823 -0.0659
    5CGG   SI10 3202  12.406  15.345  13.100  0.1245  0.3766 -0.3544
    5CGG   SI11 3203  12.956  15.616  12.746 -0.0271  0.2438  0.4319
    5CGG   SI12 3204  12.914  15.909  12.784 -0.1798 -0.1861 -0.2928
    5CGG   SI45 3205  12.791  14.313  13.070 -0.1370 -0.0065 -0.0854
    5CGG   SI46 3206  12.705  14.915  13.136 -0.1842  0.3956  0.0074
    5CGG   SI47 3207  12.767  15.138  12.622  0.1533 -0.6233  0.2221
    5CGG   SI48 3208  12.846  14.557  12.546 -0.0568  0.2919  0.0473
    5CGG   SI49 3209  12.482  14.732  13.023  0.1475 -0.1366  0.0065
    5CGG   SI50 3210  12.533  14.445  13.004  0.0987  0.0634  0.1271
    5CGG   SI51 3211  13.075  14.728  12.658 -0.0961 -0.2066  0.1039
    5CGG   SI52 3212  13.025  15.013  12.687 -0.1721  0.0760 -0.1108
    5CGG   SI85 3213  12.901  13.428  12.971  0.8547 -0.5068  0.1122
    5CGG   SI86 3214  12.821  14.028  13.042 -0.0212  0.1048  0.2742
    5CGG   SI87 3215  12.887  14.263  12.514 -0.2934  0.1324 -0.8179
    5CGG   SI88 3216  12.953  13.663  12.456 -0.0217  0.4258  0.3206
    5CGG   SI89 3217  12.593  13.851  12.944 -0.5810  0.3920  0.1801
    5CGG   SI90 3218  12.635  13.559  12.910  0.1325 -0.5108 -0.3720
    5CGG   SI91 3219  13.179  13.829  12.563 -0.0169 -0.4802 -0.4395
    5CGG   SI92 3220  13.139  14.125  12.591 -0.0564 -0.0368  0.0081
    6CGG    AL1 3221  12.248  15.968  12.834  0.1033 -0.4557 -0.0941
    6CGG    AL2 3222  12.101  15.205  12.683 -0.0169  0.5637  0.2358
    6CGG    AL3 3223  12.061  15.496  12.711  0.1507  0.3856  0.2760
    6CGG    AL4 3224  12.289  15.669  12.813 -0.1253 -0.0519  0.4655
    6CGG   AL41 3225  12.359  15.068  12.746  0.1563  0.4470 -0.0740
    6CGG   AL42 3226  12.213  14.313  12.581 -0.0347 -0.2678  0.3831
    6CGG   AL43 3227  12.171  14.602  12.619 -0.3038  0.5155 -0.2218
    6CGG   AL44 3228  12.399  14.765  12.713  0.0521 -0.1113 -0.7151
    6CGG   AL81 3229  12.479  14.182  12.651 -0.1146  0.5581 -0.5516
    6CGG   AL82 3230  12.316  13.430  12.496 -0.0685  0.2995  0.0559
    6CGG   AL83 3231  12.296  13.719  12.526 -0.1396 -0.1840  0.2827
    6CGG   AL84 3232  12.510  13.893  12.625  0.1948 -0.2084  0.0884
    6CGG    SI5 3233  12.186  15.165  12.994 -0.2697 -0.0694 -0.1085
    6CGG    SI6 3234  12.109  15.769  13.052 -0.4067  0.3868  0.1164
    6CGG    SI7 3235  12.175  15.982  12.523  0.1170 -0.1235 -0.0629
    6CGG    SI8 3236  12.233  15.397  12.466  0.0205  0.5460  0.1240
    6CGG    SI9 3237  11.880  15.593  12.958  0.1842  0.7431  0.5423
    6CGG   SI10 3238  11.928  15.298  12.926 -0.0531  0.1158  0.1121
    6CGG   SI11 3239  12.470  15.559  12.576 -0.2792  0.3831  0.1150
    6CGG   SI12 3240  12.435  15.853  12.595 -0.0682 -0.0158 -0.1142
    6CGG   SI45 3241  12.308  14.277  12.894  0.3075 -0.0705 -0.0882
    6CGG   SI46 3242  12.225  14.872  12.957 -0.3922  0.3332 -0.0655
    6CGG   SI47 3243  12.276  15.102  12.440 -0.0697  0.5803 -0.4269
    6CGG   SI48 3244  12.354  14.503  12.381  0.3531  0.1689  0.2514
    6CGG   SI49 3245  11.992  14.693  12.856 -0.6375 -0.3049 -0.0309
    6CGG   SI50 3246  12.044  14.404  12.829 -0.2047  0.1839 -0.1559
    6CGG   SI51 3247  12.586  14.684  12.475 -0.0107  0.0859  0.0339
    6CGG   SI52 3248  12.533  14.970  12.510 -0.1230 -0.1632  0.8157
    6CGG   SI85 3249  12.401  13.392  12.803  0.0232  0.2769 -0.0445
    6CGG   SI86 3250  12.339  13.987  12.867  0.0368 -0.2811  0.0826
    6CGG   SI87 3251  12.390  14.213  12.342  0.2986  0.2724  0.3033
    6CGG   SI88 3252  12.465  13.622  12.273  0.1405 -0.5504 -0.3093
    6CGG   SI89 3253  12.105  13.816  12.761  0.2168  0.0468  0.1844
    6CGG   SI90 3254  12.146  13.524  12.729 -0.1062  0.2593  0.3581
    6CGG   SI91 3255  12.696  13.791  12.387  0.4150 -0.2098 -0.1217
    6CGG   SI92 3256  12.654  14.090  12.408 -0.0875  0.3407  0.1380
    7CGG    AL1 3257  11.786  15.922  12.675 -0.0075 -0.0013  0.0374
    7CGG    AL2 3258  11.611  15.163  12.513 -0.0163 -0.2468 -0.5941
    7CGG    AL3 3259  11.585  15.455  12.545  0.0022  0.4956  0.5235
    7CGG    AL4 3260  11.807  15.630  12.640  0.3765 -0.0537 -0.0446
    7CGG   AL41 3261  11.876  15.030  12.575 -0.3830 -0.1198 -0.4577
    7CGG   AL42 3262  11.725  14.270  12.416  0.0847 -0.7097 -0.1233
    7CGG   AL43 3263  11.689  14.561  12.444 -0.1969  0.0257 -0.2755
    7CGG   AL44 3264  11.918  14.733  12.550  0.0163  0.1705  0.1547
    7CGG   AL81 3265  11.988  14.143  12.476  0.0089 -0.7049  0.1021
    7CGG   AL82 3266  11.838  13.387  12.330  0.0908 -0.0172 -0.1819
    7CGG   AL83 3267  11.805  13.668  12.362 -0.0729 -0.0865  0.6914
    7CGG   AL84 3268  12.027  13.853  12.446  0.4033  0.0517  0.2422
    7CGG    SI5 3269  11.710  15.132  12.822 -0.0529 -0.2240 -0.0376
    7CGG    SI6 3270  11.634  15.732  12.886 -0.4576 -0.5088  0.3699
    7CGG    SI7 3271  11.684  15.952  12.371  0.3049 -0.1030 -0.4001
    7CGG    SI8 3272  11.756  15.351  12.296 -0.1549 -0.2648  0.4252
    7CGG    SI9 3273  11.405  15.553  12.784 -0.1704  0.2396 -0.2191
    7CGG   SI10 3274  11.444  15.260  12.760 -0.0962 -0.1945 -0.0229
    7CGG   SI11 3275  11.984  15.524  12.397 -0.2817  0.0240  0.0252
    7CGG   SI12 3276  11.951  15.817  12.419 -0.2192 -0.2305  0.4771
    7CGG   SI45 3277  11.816  14.243  12.719 -0.6851  0.1584  0.0366
    7CGG   SI46 3278  11.745  14.836  12.792  0.1150 -0.0184 -0.2828
    7CGG   SI47 3279  11.788  15.066  12.267 -0.0817 -0.4635 -0.4778
    7CGG   SI48 3280  11.871  14.469  12.202  0.0923 -0.5395  0.2523
    7CGG   SI49 3281  11.518  14.662  12.688  0.1557 -0.4895 -0.0492
    7CGG   SI50 3282  11.554  14.370  12.664 -0.2236 -0.0487  0.0435
    7CGG   SI51 3283  12.095  14.637  12.307 -0.5941 -0.0580 -0.0318
    7CGG   SI52 3284  12.052  14.932  12.333  0.2796  0.0548 -0.3165
    7CGG   SI85 3285  11.925  13.352  12.637 -0.2000  0.0072 -0.0394
    7CGG   SI86 3286  11.848  13.952  12.687 -0.2665 -0.1405  0.3169
    7CGG   SI87 3287  11.903  14.182  12.167  0.5356  0.0541 -0.4404
    7CGG   SI88 3288  11.978  13.573  12.113 -0.5060 -0.4553 -0.2100
    7CGG   SI89 3289  11.618  13.774  12.594  0.2933 -0.1999  0.2592
    7CGG   SI90 3290  11.664  13.486  12.576  0.2700  0.1322  0.4298
    7CGG   SI91 3291  12.209  13.751  12.209  0.1039  0.6393  0.1096
    7CGG   SI92 3292  12.166  14.050  12.237  0.3262  0.1949  0.2393
    8CGG    AL1 3293  11.279  15.893  12.490 -0.3009 -0.0597 -0.0380
    8CGG    AL2 3294  11.129  15.125  12.348  0.0722 -0.0422 -0.0025
    8CGG    AL3 3295  11.101  15.416  12.383  0.0546 -0.5057  0.0349
    8CGG    AL4 3296  11.325  15.588  12.480 -0.1975  0.2917 -0.0863
    8CGG   AL41 3297  11.390  14.995  12.409 -0.2264  0.4006  0.1363
    8CGG   AL42 3298  11.235  14.226  12.249  0.1518  0.1732 -0.1167
    8CGG   AL43 3299  11.208  14.528  12.293 -0.3939 -0.0170  0.1891
    8CGG   AL44 3300  11.434  14.697  12.385  0.2151  0.0048  0.1438
    8CGG   AL81 3301  11.505  14.096  12.311 -0.1345  0.1256 -0.4828
    8CGG   AL82 3302  11.349  13.342  12.165 -0.4677 -0.3939 -0.2257
    8CGG   AL83 3303  11.306  13.642  12.189  0.3305 -0.2875 -0.0205
    8CGG   AL84 3304  11.540  13.798  12.286 -0.4072 -0.0977  0.2547
    8CGG    SI5 3305  11.216  15.091  12.657  0.2558  0.0876  0.4210
    8CGG    SI6 3306  11.159  15.693  12.717  0.1531 -0.2054 -0.1998
    8CGG    SI7 3307  11.193  15.904  12.183  0.3359 -0.0247  0.5035
    8CGG    SI8 3308  11.263  15.318  12.129 -0.0612 -0.2895  0.0693
    8CGG    SI9 3309  10.925  15.511  12.629  0.1648 -0.7626  0.4599
    8CGG   SI10 3310  10.960  15.222  12.593  0.2451  0.1178 -0.2900
    8CGG   SI11 3311  11.496  15.489  12.229 -0.3300 -0.2930 -0.1181
    8CGG   SI12 3312  11.458  15.776  12.249  0.3922  0.1399 -0.5077
    8CGG   SI45 3313  11.326  14.194  12.558 -0.1555  0.1841  0.2355
    8CGG   SI46 3314  11.261  14.800  12.629  0.1580  0.2969 -0.1441
    8CGG   SI47 3315  11.301  15.021  12.106  0.1819 -0.0205  0.4120
    8CGG   SI48 3316  11.378  14.426  12.046 -0.4925 -0.0888 -0.0422
    8CGG   SI49 3317  11.026  14.622  12.534  0.3843  0.2968  0.3342
    8CGG   SI50 3318  11.066  14.326  12.497 -0.2216 -0.2449  0.2454
    8CGG   SI51 3319  11.611  14.596  12.139  0.1198 -0.0698  0.4520
    8CGG   SI52 3320  11.566  14.893  12.161  0.2149 -0.1074  0.0466
    8CGG   SI85 3321  11.440  13.304  12.467  0.1417  0.1697 -0.3562
    8CGG   SI86 3322  11.364  13.898  12.524 -0.1408 -0.3841  0.1460
    8CGG   SI87 3323  11.411  14.127  12.007  0.1258 -0.6346  0.2940
    8CGG   SI88 3324  11.484  13.536  11.945  0.0928  0.0622  0.1828
    8CGG   SI89 3325  11.131  13.725  12.432 -0.1437  0.4051  0.1032
    8CGG   SI90 3326  11.181  13.435  12.399  0.2195 -0.0546  0.0729
    8CGG   SI91 3327  11.720  13.703  12.049  0.3708 -0.1580  0.1978
    8CGG   SI92 3328  11.673  14.002  12.066  0.1892 -0.2677  0.0770
    9CGG    AL1 3329  10.810  15.843  12.356 -0.1606  0.5392 -0.0016
    9CGG    AL2 3330  10.643  15.079  12.188  0.1170  0.0421  0.0937
    9CGG    AL3 3331  10.601  15.385  12.219 -0.6557  0.3867 -0.3688
    9CGG    AL4 3332  10.841  15.536  12.315  0.0690  0.2297 -0.2505
    9CGG   AL41 3333  10.910  14.944  12.246  0.3553 -0.2540  0.3287
    9CGG   AL42 3334  10.752  14.190  12.089  0.1185  0.3144 -0.2470
    9CGG   AL43 3335  10.721  14.495  12.124 -0.2865  0.7120  0.1345
    9CGG   AL44 3336  10.943  14.665  12.221  0.0568 -0.2029 -0.2678
    9CGG   AL81 3337  11.008  14.061  12.146 -0.1761  0.1148 -0.2124
    9CGG   AL82 3338  10.857  13.301  11.998 -0.0188 -0.3355  0.0115
    9CGG   AL83 3339  10.822  13.598  12.021 -0.0639  0.3431 -0.1956
    9CGG   AL84 3340  11.056  13.772  12.121 -0.0217  0.2015  0.2735
    9CGG    SI5 3341  10.735  15.055  12.494 -0.4109  0.0757  0.2504
    9CGG    SI6 3342  10.669  15.647  12.561  0.1470 -0.4009  0.6455
    9CGG    SI7 3343  10.704  15.878  12.052 -0.5614 -0.1916  0.3792
    9CGG    SI8 3344  10.775  15.281  11.978 -0.0207  0.1823  0.4591
    9CGG    SI9 3345  10.425  15.476  12.463 -0.1413 -0.0127  0.5061
    9CGG   SI10 3346  10.476  15.184  12.433  0.4579  0.2004 -0.3231
    9CGG   SI11 3347  11.012  15.451  12.072 -0.0292  0.0280 -0.2064
    9CGG   SI12 3348  10.966  15.743  12.101 -0.2048  0.1049 -0.1150
    9CGG   SI45 3349  10.842  14.154  12.401 -0.0756  0.1378 -0.2650
    9CGG   SI46 3350  10.772  14.762  12.465  0.1750  0.3220  0.2335
    9CGG   SI47 3351  10.826  14.989  11.946 -0.3949  0.1395  0.0310
    9CGG   SI48 3352  10.887  14.390  11.877  0.3695 -0.0672  0.0442
    9CGG   SI49 3353  10.539  14.581  12.368 -0.1638  0.0463  0.0590
    9CGG   SI50 3354  10.582  14.290  12.333 -0.2505  0.0152  0.0166
    9CGG   SI51 3355  11.120  14.553  11.987  0.0236 -0.5576  0.1011
    9CGG   SI52 3356  11.086  14.853  12.004  0.7890 -0.2080  0.0656
    9CGG   SI85 3357  10.951  13.275  12.299  0.3354  0.8083 -0.0424
    9CGG   SI86 3358  10.876  13.867  12.370 -0.1968  0.0122 -0.5390
    9CGG   SI87 3359  10.928  14.102  11.838 -0.3808  0.2840  0.2663
    9CGG   SI88 3360  10.996  13.499  11.781 -0.1471  0.6317  0.2876
    9CGG   SI89 3361  10.646  13.695  12.265 -0.1988  0.0493  0.5760
    9CGG   SI90 3362  10.690  13.399  12.242  0.0278  0.2642 -0.0464
    9CGG   SI91 3363  11.228  13.671  11.874  0.1093  0.2069 -0.2243
    9CGG   SI92 3364  11.189  13.968  11.906  0.6453 -0.0630 -0.0888
   10CGG    AL1 3365  10.306  15.805  12.181  0.0154 -0.2694  0.3203
   10CGG    AL2 3366  10.152  15.048  12.021  0.0981  0.1022  0.1044
   10CGG    AL3 3367  10.112  15.345  12.058  0.0289 -0.1686  0.1495
   10CGG    AL4 3368  10.340  15.513  12.157  0.0635 -0.2491  0.3585
   10CGG   AL41 3369  10.416  14.918  12.083 -0.1857  0.2399  0.3979
   10CGG   AL42 3370  10.260  14.152  11.921  0.3818  0.2243 -0.1369
   10CGG   AL43 3371  10.230  14.446  11.957 -0.1609  0.2740 -0.0988
   10CGG   AL44 3372  10.455  14.623  12.060  0.1502  0.2441  0.3327
   10CGG   AL81 3373  10.523  14.018  11.987 -0.0443 -0.2826 -0.0630
   10CGG   AL82 3374  10.371  13.254  11.824  0.2217 -0.5264 -0.0598
   10CGG   AL83 3375  10.329  13.553  11.850 -0.3595 -0.0206 -0.1429
   10CGG   AL84 3376  10.561  13.727  11.955 -0.4301  0.1709  0.0736
   10CGG    SI5 3377  10.244  15.017  12.322  0.4791 -0.0096 -0.2705
   10CGG    SI6 3378  10.169  15.618  12.398  0.0079  0.3311  0.3110
   10CGG    SI7 3379  10.218  15.828  11.867 -0.3276 -0.2113  0.6594
   10CGG    SI8 3380  10.291  15.243  11.809  0.3238  0.0820  0.0244
   10CGG    SI9 3381   9.933  15.441  12.296 -0.2989  0.2088 -0.1233
   10CGG   SI10 3382   9.981  15.144  12.267  0.1596 -0.2216  0.5881
   10CGG   SI11 3383  10.516  15.409  11.911 -0.2147  0.0546  0.3157
   10CGG   SI12 3384  10.476  15.703  11.938  0.1460 -0.0241  0.1605
   10CGG   SI45 3385  10.349  14.119  12.229 -0.6588 -0.2765  0.5520
   10CGG   SI46 3386  10.278  14.724  12.307  0.1049 -0.1152  0.0506
   10CGG   SI47 3387  10.330  14.950  11.778  0.3682  0.3593 -0.2357
   10CGG   SI48 3388  10.393  14.343  11.709 -0.2503  0.0827  0.2917
   10CGG   SI49 3389  10.054  14.539  12.208 -0.2432  0.0662  0.2630
   10CGG   SI50 3390  10.088  14.246  12.173  0.1142  0.2651  0.1340
   10CGG   SI51 3391  10.629  14.517  11.809 -0.2316  0.4351 -0.3089
   10CGG   SI52 3392  10.594  14.818  11.837  0.0878  0.0521 -0.2997
   10CGG   SI85 3393  10.457  13.222  12.137  0.3452 -0.2930  0.0446
   10CGG   SI86 3394  10.385  13.824  12.202  0.1515  0.0052 -0.0053
   10CGG   SI87 3395  10.439  14.050  11.678  0.3067 -0.2005  0.3541
   10CGG   SI88 3396  10.504  13.454  11.613 -0.8804  0.1220 -0.1428
   10CGG   SI89 3397  10.159  13.647  12.095  0.5951  0.1391 -0.4773
   10CGG   SI90 3398  10.200  13.355  12.062 -0.1102 -0.6236  0.1290
   10CGG   SI91 3399  10.741  13.633  11.711  0.2762 -0.0505 -0.2383
   10CGG   SI92 3400  10.699  13.923  11.747 -0.5200  0.3537 -0.0405
   11CGG    AL1 3401   9.826  15.768  12.012 -0.2911 -0.0539  0.1411
   11CGG    AL2 3402   9.666  15.000  11.865 -0.0524  0.2539  0.0732
   11CGG    AL3 3403   9.622  15.296  11.888  0.0131  0.6481  0.2025
   11CGG    AL4 3404   9.850  15.470  11.984  0.0348 -0.4011 -0.2173
   11CGG   AL41 3405   9.935  14.862  11.925  0.2268 -0.2635 -0.2216
   11CGG   AL42 3406   9.771  14.114  11.755  0.4558  0.3349 -0.5575
   11CGG   AL43 3407   9.743  14.404  11.793  0.1262  0.0770  0.1197
   11CGG   AL44 3408   9.967  14.576  11.894 -0.2292  0.1370 -0.5604
   11CGG   AL81 3409  10.042  13.976  11.818  0.2008 -0.0247 -0.1883
   11CGG   AL82 3410   9.883  13.222  11.653  0.1121  0.5833  0.1357
   11CGG   AL83 3411   9.847  13.515  11.684  0.1849  0.7693 -0.6646
   11CGG   AL84 3412  10.071  13.682  11.785  0.1662 -0.0764  0.2991
   11CGG    SI5 3413   9.761  14.970  12.170  0.6536 -0.0885 -0.1329
   11CGG    SI6 3414   9.678  15.573  12.225  0.0128 -0.0571  0.4063
   11CGG    SI7 3415   9.729  15.796  11.709 -0.3451  0.3065 -0.1672
   11CGG    SI8 3416   9.801  15.194  11.642  0.4791 -0.0882 -0.3440
   11CGG    SI9 3417   9.446  15.392  12.135 -0.0142 -0.2315 -0.0452
   11CGG   SI10 3418   9.493  15.097  12.107 -0.0550 -0.0097 -0.2718
   11CGG   SI11 3419  10.032  15.368  11.740 -0.2774 -0.9076 -0.4113
   11CGG   SI12 3420   9.990  15.663  11.767 -0.1239 -0.1278  0.1061
   11CGG   SI45 3421   9.868  14.081  12.060  0.0644  0.2244 -0.1667
   11CGG   SI46 3422   9.793  14.673  12.146 -0.2771  0.2980  0.2777
   11CGG   SI47 3423   9.846  14.906  11.614  0.1518 -0.2141 -0.0396
   11CGG   SI48 3424   9.906  14.304  11.545  0.0689  0.2080  0.3836
   11CGG   SI49 3425   9.562  14.499  12.043 -0.1624  0.2941 -0.1141
   11CGG   SI50 3426   9.606  14.208  12.008 -0.0328 -0.4789  0.1764
   11CGG   SI51 3427  10.138  14.483  11.648  0.4583  0.3118  0.4405
   11CGG   SI52 3428  10.104  14.776  11.676 -0.1058 -0.3753 -0.0595
   11CGG   SI85 3429   9.980  13.187  11.962 -0.4692 -0.1085 -0.2232
   11CGG   SI86 3430   9.901  13.787  12.030  0.4361  0.6469 -0.0696
   11CGG   SI87 3431   9.945  14.015  11.512 -0.2727  0.4097  0.2364
   11CGG   SI88 3432  10.023  13.414  11.442  0.3226  0.2231  0.3172
   11CGG   SI89 3433   9.675  13.607  11.927 -0.5742  0.0343  0.0748
   11CGG   SI90 3434   9.717  13.313  11.904  0.3116 -0.2591  0.2038
   11CGG   SI91 3435  10.253  13.587  11.544  0.1453 -0.0937  0.5325
   11CGG   SI92 3436  10.215  13.881  11.571  0.0214 -0.1109 -0.5111
   12CGG    AL1 3437   9.318  15.729  11.865 -0.4899  0.1924 -0.0266
   12CGG    AL2 3438   9.174  14.956  11.691 -0.1571  0.1792 -0.2081
   12CGG    AL3 3439   9.140  15.252  11.722 -0.1309  0.0325  0.3390
   12CGG    AL4 3440   9.359  15.431  11.823  0.4575 -0.0838 -0.1500
   12CGG   AL41 3441   9.437  14.832  11.757 -0.1135 -0.2499  0.4357
   12CGG   AL42 3442   9.286  14.062  11.597 -0.2277  0.2614  0.1685
   12CGG   AL43 3443   9.244  14.362  11.631  0.1478  0.0364  0.1902
   12CGG   AL44 3444   9.475  14.527  11.728  0.0455  0.4745 -0.0457
   12CGG   AL81 3445   9.549  13.933  11.660 -0.3526  0.0213  0.0903
   12CGG   AL82 3446   9.395  13.163  11.502  0.0758 -0.0291 -0.1842
   12CGG   AL83 3447   9.361  13.468  11.533 -0.2411  0.7723 -0.2196
   12CGG   AL84 3448   9.586  13.645  11.627 -0.3379 -0.3482  0.1636
   12CGG    SI5 3449   9.261  14.927  12.002  0.1199  0.0173 -0.3853
   12CGG    SI6 3450   9.184  15.524  12.074  0.1591 -0.3937  0.2058
   12CGG    SI7 3451   9.225  15.763  11.556  0.0678  0.5592  0.1409
   12CGG    SI8 3452   9.312  15.157  11.474  0.2437 -0.4567  0.2373
   12CGG    SI9 3453   8.958  15.349  11.963 -0.2665 -0.0082  0.4567
   12CGG   SI10 3454   8.998  15.062  11.939  0.0288 -0.4685  0.4582
   12CGG   SI11 3455   9.545  15.336  11.580 -0.2213  0.2152  0.2372
   12CGG   SI12 3456   9.490  15.624  11.612 -0.1134 -0.1010  0.2914
   12CGG   SI45 3457   9.376  14.035  11.905  0.4225 -0.2291  0.2874
   12CGG   SI46 3458   9.302  14.633  11.968  0.1617 -0.1155  0.0306
   12CGG   SI47 3459   9.354  14.860  11.446 -0.1171  0.5575 -0.1773
   12CGG   SI48 3460   9.415  14.264  11.383  0.1316 -0.0369  0.1621
   12CGG   SI49 3461   9.070  14.468  11.873 -0.0252  0.4143 -0.0960
   12CGG   SI50 3462   9.116  14.169  11.838 -0.0609 -0.0106 -0.1578
   12CGG   SI51 3463   9.649  14.436  11.484 -0.0639 -0.2362  0.2776
   12CGG   SI52 3464   9.615  14.729  11.516 -0.1007 -0.0152 -0.0697
   12CGG   SI85 3465   9.488  13.128  11.810 -0.1088 -0.2494 -0.1448
   12CGG   SI86 3466   9.417  13.739  11.874  0.1911 -0.0304 -0.3519
   12CGG   SI87 3467   9.459  13.973  11.349  0.2547  0.5887  0.3017
   12CGG   SI88 3468   9.536  13.365  11.286 -0.2652  0.2977 -0.2111
   12CGG   SI89 3469   9.183  13.558  11.781 -0.1115  0.5223  0.3932
   12CGG   SI90 3470   9.222  13.263  11.750  0.2398  0.5036 -0.2273
   12CGG   SI91 3471   9.764  13.544  11.381  0.3247  0.1509 -0.0460
   12CGG   SI92 3472   9.720  13.844  11.407 -0.0048  0.2525 -0.2291
   13CGG    AL1 3473   8.835  15.669  11.700 -0.5594  0.0784 -0.2651
   13CGG    AL2 3474   8.672  14.928  11.538 -0.0642 -0.0503  0.0530
   13CGG    AL3 3475   8.642  15.205  11.568 -0.4107  0.1578 -0.5488
   13CGG    AL4 3476   8.871  15.390  11.657  0.0463  0.0991  0.7912
   13CGG   AL41 3477   8.942  14.790  11.597 -0.5357  0.5255  0.4213
   13CGG   AL42 3478   8.790  14.030  11.440  0.2295  0.1316 -0.0326
   13CGG   AL43 3479   8.747  14.323  11.471 -0.2211  0.1365  0.1176
   13CGG   AL44 3480   8.977  14.495  11.569 -0.1047 -0.0382  0.3270
   13CGG   AL81 3481   9.059  13.891  11.499 -0.3652  0.0733 -0.2558
   13CGG   AL82 3482   8.911  13.123  11.344 -0.0932  0.2043  0.0874
   13CGG   AL83 3483   8.872  13.426  11.378  0.1095 -0.0203  0.4094
   13CGG   AL84 3484   9.096  13.594  11.477  0.0541  0.0145  0.0271
   13CGG    SI5 3485   8.769  14.892  11.846  0.2044  0.3703  0.1906
   13CGG    SI6 3486   8.702  15.475  11.909  0.1379 -0.0237 -0.2272
   13CGG    SI7 3487   8.747  15.720  11.391  0.3253  0.1604 -0.0765
   13CGG    SI8 3488   8.817  15.117  11.320 -0.0240  0.0896  0.0324
   13CGG    SI9 3489   8.467  15.304  11.807 -0.0671  0.2495  0.0500
   13CGG   SI10 3490   8.506  15.022  11.791 -0.3971  0.2809  0.3737
   13CGG   SI11 3491   9.055  15.297  11.414  0.4452  0.4516 -0.1353
   13CGG   SI12 3492   9.008  15.590  11.447 -0.2730 -0.1283  0.3485
   13CGG   SI45 3493   8.894  13.997  11.745 -0.0302  0.2122  0.1727
   13CGG   SI46 3494   8.804  14.596  11.814 -0.3718 -0.1490 -0.3661
   13CGG   SI47 3495   8.852  14.827  11.286 -0.1938  0.0181 -0.0240
   13CGG   SI48 3496   8.929  14.223  11.226 -0.3807 -0.0363  0.0511
   13CGG   SI49 3497   8.569  14.420  11.712  0.2866 -0.1135  0.0460
   13CGG   SI50 3498   8.623  14.122  11.690  0.0569  0.3059 -0.6699
   13CGG   SI51 3499   9.157  14.401  11.321 -0.5386 -0.7244 -0.1370
   13CGG   SI52 3500   9.116  14.691  11.352 -0.6070  0.1996 -0.0819
   13CGG   SI85 3501   8.998  13.087  11.652  0.1902 -0.1282 -0.1357
   13CGG   SI86 3502   8.929  13.698  11.722  0.5210 -0.3529  0.4785
   13CGG   SI87 3503   8.973  13.931  11.198 -0.2276 -0.2390  0.0615
   13CGG   SI88 3504   9.047  13.324  11.127  0.8287 -0.3379 -0.2083
   13CGG   SI89 3505   8.701  13.526  11.618  0.2103  0.1735  0.2456
   13CGG   SI90 3506   8.742  13.231  11.587 -0.0044  0.3128  0.0581
   13CGG   SI91 3507   9.277  13.505  11.222 -0.0371 -0.3135 -0.2980
   13CGG   SI92 3508   9.232  13.799  11.257 -0.2088  0.2952  0.8472
   14CGG    AL1 3509   8.342  15.647  11.535 -0.2077  0.0227 -0.2058
   14CGG    AL2 3510   8.189  14.879  11.370  0.1236  0.4593  0.2001
   14CGG    AL3 3511   8.153  15.172  11.403  0.0923  0.8950  0.2338
   14CGG    AL4 3512   8.380  15.336  11.503 -0.1191  0.0385  0.0916
   14CGG   AL41 3513   8.449  14.750  11.431  0.0542 -0.4431  0.0869
   14CGG   AL42 3514   8.301  13.978  11.282  0.2832  0.0537  0.2548
   14CGG   AL43 3515   8.263  14.274  11.315  0.2362 -0.2114  0.1607
   14CGG   AL44 3516   8.480  14.457  11.400 -0.0617 -0.3236 -0.0606
   14CGG   AL81 3517   8.566  13.851  11.341  0.2121 -0.1558  0.2577
   14CGG   AL82 3518   8.416  13.092  11.184  0.1127  0.0945 -0.4876
   14CGG   AL83 3519   8.378  13.387  11.210 -0.5232  0.2211  0.2323
   14CGG   AL84 3520   8.601  13.559  11.312 -0.3355  0.0191 -0.1890
   14CGG    SI5 3521   8.278  14.847  11.679 -0.3307  0.2002 -0.1882
   14CGG    SI6 3522   8.210  15.440  11.747  0.1973 -0.1021 -0.1371
   14CGG    SI7 3523   8.258  15.664  11.226 -0.0038 -0.0861  0.0742
   14CGG    SI8 3524   8.321  15.071  11.156 -0.0036 -0.1596  0.2725
   14CGG    SI9 3525   7.984  15.260  11.647  0.4373  0.0067  0.3068
   14CGG   SI10 3526   8.020  14.974  11.609 -0.0972 -0.0600 -0.2056
   14CGG   SI11 3527   8.561  15.243  11.257 -0.0260  0.0258 -0.0911
   14CGG   SI12 3528   8.516  15.535  11.293  0.3645 -0.0866  0.3748
   14CGG   SI45 3529   8.390  13.953  11.589  0.2068  0.5252 -0.2747
   14CGG   SI46 3530   8.310  14.552  11.649  0.2180 -0.1780 -0.2648
   14CGG   SI47 3531   8.364  14.779  11.127 -0.1515 -0.1408 -0.0850
   14CGG   SI48 3532   8.436  14.175  11.074 -0.2350 -0.3511 -0.1493
   14CGG   SI49 3533   8.085  14.367  11.552 -0.2453  0.0514 -0.3166
   14CGG   SI50 3534   8.126  14.069  11.524 -0.1154  0.0871  0.0430
   14CGG   SI51 3535   8.665  14.353  11.166  0.4233 -0.3763  0.1951
   14CGG   SI52 3536   8.627  14.646  11.185  0.6752 -0.1727  0.1221
   14CGG   SI85 3537   8.513  13.046  11.482  0.1315  0.2325 -0.2231
   14CGG   SI86 3538   8.436  13.656  11.567  0.0191  0.0895 -0.1498
   14CGG   SI87 3539   8.476  13.880  11.029  0.0319  0.2064 -0.2485
   14CGG   SI88 3540   8.546  13.285  10.960 -0.2027 -0.0715 -0.2017
   14CGG   SI89 3541   8.203  13.482  11.458  0.3258  0.0912  0.4491
   14CGG   SI90 3542   8.246  13.186  11.428  0.0464  0.1722 -0.1721
   14CGG   SI91 3543   8.782  13.462  11.068 -0.0619 -0.3469 -0.2767
   14CGG   SI92 3544   8.740  13.759  11.096  0.3348  0.3463  0.1842
   15CGG    AL1 3545   7.854  15.603  11.364 -0.2465 -0.5203 -0.1965
   15CGG    AL2 3546   7.693  14.821  11.209  0.0383  0.2117 -0.5688
   15CGG    AL3 3547   7.664  15.128  11.248 -0.2484 -0.0476  0.2813
   15CGG    AL4 3548   7.895  15.305  11.340 -0.1263 -0.3594  0.2899
   15CGG   AL41 3549   7.964  14.704  11.274  0.1403  0.4364  0.3125
   15CGG   AL42 3550   7.803  13.938  11.125  0.0952  0.0739  0.1609
   15CGG   AL43 3551   7.777  14.228  11.154 -0.0510  0.1101  0.1073
   15CGG   AL44 3552   7.998  14.408  11.247 -0.1720 -0.0778 -0.0159
   15CGG   AL81 3553   8.084  13.797  11.188  0.8180 -0.3385 -0.0577
   15CGG   AL82 3554   7.919  13.046  11.020  0.0778  0.5015  0.2566
   15CGG   AL83 3555   7.892  13.341  11.053  0.0751 -0.5933 -0.2226
   15CGG   AL84 3556   8.112  13.517  11.147 -0.2646 -0.2584 -0.0442
   15CGG    SI5 3557   7.791  14.802  11.519 -0.0489 -0.1008 -0.3247
   15CGG    SI6 3558   7.729  15.406  11.581 -0.0604  0.4113  0.1571
   15CGG    SI7 3559   7.762  15.614  11.061  0.0502  0.2096  0.2591
   15CGG    SI8 3560   7.832  15.026  11.003 -0.3352 -0.1498 -0.1207
   15CGG    SI9 3561   7.493  15.232  11.488  0.1832  0.3937  0.0904
   15CGG   SI10 3562   7.533  14.932  11.461  0.1517  0.1318 -0.0278
   15CGG   SI11 3563   8.065  15.205  11.099 -0.3033  0.2190 -0.1821
   15CGG   SI12 3564   8.028  15.492  11.118  0.0638 -0.2594 -0.3643
   15CGG   SI45 3565   7.912  13.905  11.427  0.2351  0.1740 -0.1760
   15CGG   SI46 3566   7.828  14.506  11.488 -0.2099  0.2330 -0.2751
   15CGG   SI47 3567   7.875  14.730  10.964 -0.0832 -0.6427 -0.0736
   15CGG   SI48 3568   7.947  14.128  10.911  0.1093 -0.1156  0.2874
   15CGG   SI49 3569   7.597  14.321  11.391  0.1428  0.0694  0.0467
   15CGG   SI50 3570   7.644  14.032  11.372 -0.2007 -0.0410 -0.2579
   15CGG   SI51 3571   8.181  14.309  11.003 -0.5888 -0.2681  0.3922
   15CGG   SI52 3572   8.147  14.599  11.031  0.6513 -0.6209  0.2280
   15CGG   SI85 3573   8.019  13.010  11.329 -0.1725  0.4239  0.0950
   15CGG   SI86 3574   7.936  13.604  11.396 -0.1375 -0.1085 -0.6610
   15CGG   SI87 3575   7.985  13.842  10.883 -0.4518  0.0607  0.3975
   15CGG   SI88 3576   8.057  13.249  10.803  0.0717  0.5852 -0.1770
   15CGG   SI89 3577   7.706  13.431  11.302  0.1679  0.2309 -0.0611
   15CGG   SI90 3578   7.759  13.138  11.275  0.3865 -0.3155 -0.1170
   15CGG   SI91 3579   8.287  13.423  10.901 -0.0757  0.3067  0.2704
   15CGG   SI92 3580   8.246  13.716  10.934 -0.1127 -0.1657 -0.4523
   16CGG    AL1 3581   7.356  15.548  11.213 -0.5837 -0.2902  0.5417
   16CGG    AL2 3582   7.211  14.784  11.069  0.1258  0.1410  0.1691
   16CGG    AL3 3583   7.173  15.076  11.096  0.0613  0.3944  0.0824
   16CGG    AL4 3584   7.398  15.249  11.187 -0.3559 -0.0985 -0.2427
   16CGG   AL41 3585   7.468  14.656  11.116 -0.0148  0.4429  0.1736
   16CGG   AL42 3586   7.321  13.892  10.965  0.0792  0.2286 -0.0015
   16CGG   AL43 3587   7.288  14.178  10.992  0.2654  0.2544  0.2718
   16CGG   AL44 3588   7.514  14.356  11.087  0.6025 -0.0040  0.1530
   16CGG   AL81 3589   7.581  13.756  11.028 -0.2657 -0.2309  0.1290
   16CGG   AL82 3590   7.432  12.995  10.867  0.0332 -0.1725 -0.0982
   16CGG   AL83 3591   7.391  13.291  10.905 -0.1124  0.0625  0.4214
   16CGG   AL84 3592   7.616  13.468  10.997 -0.2629  0.0192  0.0694
   16CGG    SI5 3593   7.298  14.759  11.365 -0.3427 -0.0710 -0.0375
   16CGG    SI6 3594   7.225  15.354  11.431 -0.0418  0.2015  0.1549
   16CGG    SI7 3595   7.269  15.571  10.902  0.6363 -0.1278  0.2560
   16CGG    SI8 3596   7.337  14.976  10.845  0.5428 -0.2177 -0.4771
   16CGG    SI9 3597   6.994  15.169  11.343 -0.0083  0.2888  0.3483
   16CGG   SI10 3598   7.033  14.881  11.314  0.0570  0.0974 -0.4119
   16CGG   SI11 3599   7.572  15.157  10.940 -0.3726 -0.0610 -0.2599
   16CGG   SI12 3600   7.529  15.441  10.965 -0.0157  0.3741 -0.5954
   16CGG   SI45 3601   7.412  13.856  11.276  0.2634 -0.2238  0.1086
   16CGG   SI46 3602   7.337  14.462  11.332  0.2184  0.2280  0.0484
   16CGG   SI47 3603   7.377  14.683  10.814  0.2482 -0.0731  0.2473
   16CGG   SI48 3604   7.465  14.086  10.742  0.6644 -0.1050  0.1601
   16CGG   SI49 3605   7.107  14.277  11.232 -0.0777  0.6297 -0.5057
   16CGG   SI50 3606   7.149  13.981  11.211 -0.2762  0.0700  0.0949
   16CGG   SI51 3607   7.693  14.264  10.845  0.1467 -0.3788  0.0087
   16CGG   SI52 3608   7.638  14.559  10.866  0.2297  0.2129 -0.8228
   16CGG   SI85 3609   7.532  12.955  11.173  0.0166 -0.2982  0.3289
   16CGG   SI86 3610   7.448  13.560  11.242  0.4305 -0.2492  0.3703
   16CGG   SI87 3611   7.496  13.793  10.718  0.4712 -0.2177  0.3821
   16CGG   SI88 3612   7.562  13.186  10.651  0.1603 -0.5115  0.1904
   16CGG   SI89 3613   7.216  13.381  11.153 -0.3995 -0.0273  0.4705
   16CGG   SI90 3614   7.267  13.087  11.120 -0.1905  0.0363 -0.4416
   16CGG   SI91 3615   7.794  13.380  10.749  0.2221  0.3820  0.4387
   16CGG   SI92 3616   7.753  13.668  10.780  0.1209  0.5758 -0.2789
   17CGG    AL1 3617   6.869  15.493  11.076  0.3919 -0.6874 -0.1942
   17CGG    AL2 3618   6.708  14.734  10.909  0.0254  0.2736 -0.3369
   17CGG    AL3 3619   6.678  15.035  10.944  0.1785  0.1309  0.2403
   17CGG    AL4 3620   6.906  15.203  11.038  0.0115  0.4438  0.0385
   17CGG   AL41 3621   6.983  14.610  10.960  0.1673  0.0086  0.0394
   17CGG   AL42 3622   6.827  13.842  10.806  0.7671  0.0500 -0.1796
   17CGG   AL43 3623   6.792  14.134  10.838  0.1675 -0.2107 -0.0129
   17CGG   AL44 3624   7.026  14.311  10.930  0.0802  0.1945  0.2516
   17CGG   AL81 3625   7.097  13.713  10.862  0.1454  0.3125  0.1757
   17CGG   AL82 3626   6.937  12.945  10.717 -0.3029 -0.1471  0.4389
   17CGG   AL83 3627   6.914  13.249  10.751  0.3560 -0.1513 -0.0884
   17CGG   AL84 3628   7.135  13.423  10.844  0.0879  0.3891  0.0793
   17CGG    SI5 3629   6.815  14.709  11.207 -0.1063 -0.5134 -0.1792
   17CGG    SI6 3630   6.735  15.294  11.282  0.6207 -0.4916 -0.1214
   17CGG    SI7 3631   6.777  15.531  10.775  0.4520  0.4887 -0.2227
   17CGG    SI8 3632   6.842  14.928  10.697 -0.2076 -0.2720  0.1762
   17CGG    SI9 3633   6.500  15.132  11.180 -0.1972  0.1856  0.0015
   17CGG   SI10 3634   6.553  14.838  11.155  0.6472  0.2943  0.1773
   17CGG   SI11 3635   7.074  15.106  10.788 -0.3454 -0.0594 -0.4088
   17CGG   SI12 3636   7.038  15.400  10.813 -0.4364  0.3070  0.1699
   17CGG   SI45 3637   6.930  13.817  11.112 -0.5676  0.1133  0.4305
   17CGG   SI46 3638   6.852  14.414  11.178  0.6000 -0.1373 -0.1735
   17CGG   SI47 3639   6.885  14.642  10.662 -0.1260 -0.1715  0.1415
   17CGG   SI48 3640   6.963  14.040  10.589  0.3883  0.1925  0.1493
   17CGG   SI49 3641   6.620  14.229  11.082 -0.4708  0.3160  0.1736
   17CGG   SI50 3642   6.668  13.937  11.062  0.1736 -0.5267  0.5774
   17CGG   SI51 3643   7.201  14.218  10.682 -0.2260 -0.1161 -0.2598
   17CGG   SI52 3644   7.151  14.516  10.717 -0.2326 -0.1013  0.3668
   17CGG   SI85 3645   7.042  12.919  11.020 -0.2045 -0.3087  0.3428
   17CGG   SI86 3646   6.963  13.519  11.083  0.0902 -0.0445 -0.2381
   17CGG   SI87 3647   6.995  13.744  10.556  0.2187 -0.2179 -0.2111
   17CGG   SI88 3648   7.075  13.141  10.501 -0.0809 -0.1602  0.1883
   17CGG   SI89 3649   6.735  13.344  10.994 -0.1335  0.2792  0.0455
   17CGG   SI90 3650   6.781  13.050  10.962  0.3144 -0.2976  0.0526
   17CGG   SI91 3651   7.309  13.323  10.592  0.0969 -0.3402 -0.0112
   17CGG   SI92 3652   7.266  13.618  10.620 -0.8127  0.4085  0.4542
   18CGG    AL1 3653   6.367  15.454  10.920 -0.4484  0.5315  0.5340
   18CGG    AL2 3654   6.222  14.691  10.751  0.0666 -0.0635  0.1113
   18CGG    AL3 3655   6.182  14.982  10.775 -0.1532  0.0356 -0.0531
   18CGG    AL4 3656   6.398  15.162  10.877  0.1108 -0.0187  0.1401
   18CGG   AL41 3657   6.494  14.552  10.811  0.4351 -0.2351  0.0310
   18CGG   AL42 3658   6.329  13.792  10.658 -0.0158 -0.0830  0.0824
   18CGG   AL43 3659   6.289  14.089  10.686 -0.1980 -0.0566  0.0239
   18CGG   AL44 3660   6.515  14.266  10.781 -0.3494  0.1135 -0.0928
   18CGG   AL81 3661   6.602  13.659  10.712  0.1579  0.1758  0.0176
   18CGG   AL82 3662   6.448  12.897  10.558 -0.5457  0.5029 -0.1344
   18CGG   AL83 3663   6.420  13.198  10.592  0.1574  0.3553 -0.1845
   18CGG   AL84 3664   6.644  13.377  10.688  0.3482  0.3853 -0.1893
   18CGG    SI5 3665   6.327  14.657  11.061 -0.3398  0.3769  0.3701
   18CGG    SI6 3666   6.239  15.249  11.132 -0.2000 -0.0420  0.3350
   18CGG    SI7 3667   6.267  15.495  10.621 -0.3723  0.2736  0.0848
   18CGG    SI8 3668   6.358  14.882  10.532 -0.1398 -0.0433 -0.2170
   18CGG    SI9 3669   6.010  15.078  11.020 -0.6664  0.6302  0.0128
   18CGG   SI10 3670   6.056  14.783  11.004 -0.1896 -0.0556  0.0209
   18CGG   SI11 3671   6.583  15.064  10.642  0.0864  0.1374  0.0364
   18CGG   SI12 3672   6.541  15.359  10.665 -0.2681 -0.0114 -0.4096
   18CGG   SI45 3673   6.436  13.767  10.961  0.4276 -0.1045 -0.6830
   18CGG   SI46 3674   6.363  14.364  11.028  0.2686 -0.0296  0.3976
   18CGG   SI47 3675   6.393  14.586  10.507  0.2117  0.0655 -0.7448
   18CGG   SI48 3676   6.465  13.985  10.438  0.3182 -0.2867 -0.3814
   18CGG   SI49 3677   6.123  14.182  10.940  0.0467  0.1945 -0.2085
   18CGG   SI50 3678   6.165  13.889  10.907 -0.1703  0.0748 -0.0232
   18CGG   SI51 3679   6.693  14.167  10.531 -0.9154 -0.0491 -0.2601
   18CGG   SI52 3680   6.654  14.457  10.559 -0.0640  0.4758  0.0785
   18CGG   SI85 3681   6.548  12.875  10.867  0.1623  0.2674  0.2223
   18CGG   SI86 3682   6.474  13.478  10.937  0.5475  0.1850 -0.2041
   18CGG   SI87 3683   6.501  13.694  10.412 -0.0284  0.0269  0.0671
   18CGG   SI88 3684   6.583  13.100  10.341  0.0317  0.1279  0.1723
   18CGG   SI89 3685   6.250  13.295  10.837 -0.0936  0.5525  0.3303
   18CGG   SI90 3686   6.286  13.003  10.807 -0.7771  0.3989 -0.0621
   18CGG   SI91 3687   6.819  13.270  10.446  0.2080 -0.1344  0.4298
   18CGG   SI92 3688   6.766  13.563  10.463 -0.5537 -0.1099  0.1789
   19CGG    AL1 3689   5.878  15.411  10.756  0.5839 -0.6232  0.1677
   19CGG    AL2 3690   5.729  14.642  10.594  0.2308 -0.1284  0.2669
   19CGG    AL3 3691   5.698  14.936  10.621  0.2408 -0.1022 -0.6915
   19CGG    AL4 3692   5.915  15.107  10.714 -0.2786  0.2236  0.2045
   19CGG   AL41 3693   6.000  14.513  10.652 -0.0351 -0.2131 -0.1061
   19CGG   AL42 3694   5.840  13.746  10.500 -0.1658  0.2673  0.1156
   19CGG   AL43 3695   5.808  14.045  10.537 -0.0324 -0.0675  0.1682
   19CGG   AL44 3696   6.034  14.212  10.623 -0.0529  0.1321 -0.2549
   19CGG   AL81 3697   6.107  13.611  10.563  0.0473 -0.4461  0.5174
   19CGG   AL82 3698   5.945  12.853  10.421  0.0391 -0.2655 -0.4500
   19CGG   AL83 3699   5.902  13.160  10.445 -0.2522  0.2405 -0.1100
   19CGG   AL84 3700   6.141  13.331  10.536 -0.0858 -0.0385 -0.1291
   19CGG    SI5 3701   5.832  14.616  10.903 -0.2529  0.4712  0.0205
   19CGG    SI6 3702   5.747  15.208  10.967 -0.2819 -0.5095  0.0947
   19CGG    SI7 3703   5.782  15.434  10.451  0.0220  0.0500 -0.0420
   19CGG    SI8 3704   5.860  14.837  10.378  0.1219 -0.0985  0.0700
   19CGG    SI9 3705   5.519  15.025  10.872 -0.0032 -0.1041 -0.1065
   19CGG   SI10 3706   5.569  14.738  10.839  0.6413 -0.0843 -0.5712
   19CGG   SI11 3707   6.099  15.022  10.471  0.0010 -0.1865  0.1380
   19CGG   SI12 3708   6.050  15.316  10.499  0.1990 -0.0596 -0.1712
   19CGG   SI45 3709   5.944  13.716  10.809  0.1007  0.0412 -0.2633
   19CGG   SI46 3710   5.872  14.316  10.871  0.3951 -0.2302  0.0493
   19CGG   SI47 3711   5.902  14.543  10.345 -0.2676 -0.6685  0.1998
   19CGG   SI48 3712   5.978  13.941  10.281 -0.0195  0.0672 -0.0337
   19CGG   SI49 3713   5.634  14.138  10.784 -0.0980  0.1078  0.1623
   19CGG   SI50 3714   5.686  13.841  10.755  0.0907  0.0146 -0.2028
   19CGG   SI51 3715   6.205  14.117  10.378 -0.2793  0.3193  0.3790
   19CGG   SI52 3716   6.166  14.415  10.405  0.1642 -0.1344 -0.1079
   19CGG   SI85 3717   6.060  12.836  10.721  0.3170 -0.2716  0.0972
   19CGG   SI86 3718   5.982  13.425  10.791 -0.3267 -0.2625 -0.1562
   19CGG   SI87 3719   6.018  13.651  10.256  0.3386  0.2447  0.3134
   19CGG   SI88 3720   6.076  13.051  10.199 -0.3004 -0.2502  0.0266
   19CGG   SI89 3721   5.744  13.259  10.690 -0.0703  0.8635 -0.0404
   19CGG   SI90 3722   5.792  12.961  10.671  0.1728 -0.6411 -0.0826
   19CGG   SI91 3723   6.318  13.229  10.292  0.0338 -0.3472  0.0590
   19CGG   SI92 3724   6.282  13.522  10.321  0.0872  0.0648 -0.2353
   20CGG    AL1 3725   5.377  15.339  10.604 -0.0533  0.1668  0.6827
   20CGG    AL2 3726   5.244  14.604  10.447 -0.0724 -0.0894  0.0064
   20CGG    AL3 3727   5.184  14.879  10.471 -0.5740 -0.1503 -0.1288
   20CGG    AL4 3728   5.424  15.045  10.568  0.4480 -0.3738  0.0891
   20CGG   AL41 3729   5.502  14.464  10.502 -0.2082 -0.1178 -0.3688
   20CGG   AL42 3730   5.351  13.699  10.360  0.2539  0.3797  0.4831
   20CGG   AL43 3731   5.305  14.002  10.384 -0.1177  0.1162  0.0696
   20CGG   AL44 3732   5.536  14.168  10.475 -0.1479 -0.1644 -0.3603
   20CGG   AL81 3733   5.612  13.579  10.405  0.7973  0.0686 -0.1611
   20CGG   AL82 3734   5.443  12.808  10.283 -0.5894 -0.3947 -0.2454
   20CGG   AL83 3735   5.408  13.107  10.305  0.1071 -0.2160 -0.0783
   20CGG   AL84 3736   5.645  13.274  10.383 -0.0210 -0.3830 -0.1445
   20CGG    SI5 3737   5.333  14.566  10.750  0.4473 -0.2856 -0.0599
   20CGG    SI6 3738   5.255  15.141  10.811  0.4150 -0.5092 -0.2261
   20CGG    SI7 3739   5.309  15.389  10.289 -0.4149 -0.1164  0.3738
   20CGG    SI8 3740   5.373  14.792  10.226 -0.4090 -0.2650  0.0536
   20CGG    SI9 3741   5.017  14.972  10.725 -0.1163 -0.1534 -0.4726
   20CGG   SI10 3742   5.061  14.689  10.698 -0.1245 -0.2289  0.1985
   20CGG   SI11 3743   5.607  14.966  10.324  0.2083  0.3613  0.5186
   20CGG   SI12 3744   5.557  15.257  10.358  0.2081  0.3930 -0.6601
   20CGG   SI45 3745   5.452  13.681  10.661  0.2891  0.3171  0.2522
   20CGG   SI46 3746   5.370  14.270  10.723  0.1120  0.1404 -0.3200
   20CGG   SI47 3747   5.414  14.500  10.195 -0.1417 -0.1593 -0.0798
   20CGG   SI48 3748   5.474  13.903  10.135 -0.1946  0.5531 -0.2856
   20CGG   SI49 3749   5.136  14.084  10.642  0.0274 -0.2461  0.3618
   20CGG   SI50 3750   5.188  13.794  10.607  0.2863  0.3318 -0.3256
   20CGG   SI51 3751   5.715  14.072  10.227  0.2581 -0.2796 -0.1538
   20CGG   SI52 3752   5.676  14.366  10.255 -0.6124 -0.0898 -0.3079
   20CGG   SI85 3753   5.558  12.775  10.585  0.0947  0.4524  0.1432
   20CGG   SI86 3754   5.484  13.389  10.628  0.1912  0.0991 -0.3042
   20CGG   SI87 3755   5.519  13.611  10.109 -0.0397  0.1720  0.3020
   20CGG   SI88 3756   5.571  13.000  10.056 -0.0028  0.1174 -0.1820
   20CGG   SI89 3757   5.254  13.201  10.563  0.0764  0.5395  0.0401
   20CGG   SI90 3758   5.301  12.910  10.539 -0.2064  0.1068  0.3786
   20CGG   SI91 3759   5.814  13.179  10.143  0.3565  0.0132 -0.0901
   20CGG   SI92 3760   5.772  13.472  10.166 -0.6230 -0.2422  0.3427
   21CGG    AL1 3761  15.002  13.482  13.447  0.3574  0.2634 -0.0385
   21CGG    AL2 3762  14.860  12.729  13.292 -0.0715  0.1971  0.3870
   21CGG    AL3 3763  14.816  13.027  13.319  0.0633  0.6432  0.0124
   21CGG    AL4 3764  15.041  13.188  13.413  0.2622 -0.3590  0.2009
   21CGG   AL41 3765  15.112  12.600  13.358 -0.0789 -0.2429  0.0551
   21CGG   AL42 3766  14.963  11.838  13.193 -0.3250 -0.4384  0.3126
   21CGG   AL43 3767  14.929  12.133  13.218 -0.5113 -0.0526 -0.1432
   21CGG   AL44 3768  15.152  12.304  13.324 -0.2043 -0.0765 -0.1219
   21CGG   AL81 3769  15.229  11.708  13.263 -0.5694 -0.0188 -0.0658
   21CGG   AL82 3770  15.070  10.957  13.096  0.6423 -0.5353 -0.1440
   21CGG   AL83 3771  15.035  11.243  13.125 -0.7688 -0.1163 -0.4991
   21CGG   AL84 3772  15.264  11.413  13.234  0.4488 -0.3211 -0.0821
   21CGG    SI5 3773  14.934  12.694  13.606  0.0528 -0.0723  0.3951
   21CGG    SI6 3774  14.860  13.285  13.661 -0.2021 -0.4027 -0.0720
   21CGG    SI7 3775  14.929  13.526  13.139  0.0885 -0.5277  0.2363
   21CGG    SI8 3776  14.986  12.924  13.077 -0.2356  0.0761 -0.0223
   21CGG    SI9 3777  14.634  13.127  13.551  0.5170 -0.0585 -0.3567
   21CGG   SI10 3778  14.672  12.829  13.528  0.0920 -0.2385  0.5221
   21CGG   SI11 3779  15.225  13.096  13.168  0.6258 -0.3998 -0.0737
   21CGG   SI12 3780  15.180  13.383  13.203 -0.2009 -0.0965  0.0635
   21CGG   SI45 3781  15.041  11.800  13.498 -0.0778 -0.0597 -0.4361
   21CGG   SI46 3782  14.973  12.402  13.565 -0.3020 -0.1525 -0.3383
   21CGG   SI47 3783  15.040  12.635  13.047  0.5542  0.0657 -0.2215
   21CGG   SI48 3784  15.104  12.033  12.976  0.5668  0.4749 -0.0107
   21CGG   SI49 3785  14.743  12.226  13.453 -0.2896  0.0474  0.2029
   21CGG   SI50 3786  14.787  11.936  13.435  0.1666 -0.1360 -0.1181
   21CGG   SI51 3787  15.334  12.203  13.086  0.3794  0.1351  0.1652
   21CGG   SI52 3788  15.292  12.497  13.115  0.2165 -0.1333  0.4489
   21CGG   SI85 3789  15.138  10.915  13.408 -0.2218  0.0483  0.5620
   21CGG   SI86 3790  15.082  11.511  13.470  0.3127 -0.0259  0.0980
   21CGG   SI87 3791  15.150  11.740  12.953 -0.1946  0.3642 -0.1524
   21CGG   SI88 3792  15.216  11.152  12.886  0.1755  0.2853 -0.4794
   21CGG   SI89 3793  14.852  11.338  13.363  0.1444 -0.2521 -0.3018
   21CGG   SI90 3794  14.885  11.051  13.340 -0.5685  0.2706  0.1144
   21CGG   SI91 3795  15.456  11.311  12.999  0.0991  0.3339 -0.1821
   21CGG   SI92 3796  15.409  11.599  13.024 -0.0919  0.0337  0.2474
   22CGG    AL1 3797  14.514  13.449  13.266  0.2245  0.0999 -0.3183
   22CGG    AL2 3798  14.365  12.692  13.100 -0.3366 -0.2842 -0.3074
   22CGG    AL3 3799  14.329  12.988  13.137 -0.1509 -0.1110 -0.3388
   22CGG    AL4 3800  14.552  13.157  13.238  0.1419  0.1158 -0.1761
   22CGG   AL41 3801  14.636  12.562  13.176  0.0997  0.0945  0.3508
   22CGG   AL42 3802  14.480  11.800  13.013  0.2057  0.2955 -0.0982
   22CGG   AL43 3803  14.449  12.092  13.041  0.0258 -0.1748  0.0499
   22CGG   AL44 3804  14.667  12.263  13.146 -0.2174 -0.2061 -0.4861
   22CGG   AL81 3805  14.744  11.669  13.083 -0.0626  0.1800  0.2156
   22CGG   AL82 3806  14.586  10.921  12.909  0.0087  0.0757 -0.4295
   22CGG   AL83 3807  14.560  11.212  12.943  0.6600  0.0290 -0.2145
   22CGG   AL84 3808  14.781  11.374  13.054 -0.7490 -0.4171 -0.2154
   22CGG    SI5 3809  14.449  12.653  13.406  0.0501 -0.1190 -0.0706
   22CGG    SI6 3810  14.376  13.259  13.484  0.2495  0.2358  0.2030
   22CGG    SI7 3811  14.445  13.480  12.959  0.5510  0.0623  0.4319
   22CGG    SI8 3812  14.507  12.892  12.897 -0.0712 -0.2880 -0.5138
   22CGG    SI9 3813  14.148  13.081  13.373 -0.1416 -0.2694 -0.1892
   22CGG   SI10 3814  14.195  12.790  13.337  0.4568 -0.4288 -0.6001
   22CGG   SI11 3815  14.738  13.056  13.008  0.0722  0.1083  0.4692
   22CGG   SI12 3816  14.701  13.354  13.031  0.2567 -0.2569  0.4619
   22CGG   SI45 3817  14.558  11.766  13.325  0.0264  0.2951  0.5077
   22CGG   SI46 3818  14.485  12.366  13.384  0.5962  0.2822 -0.3418
   22CGG   SI47 3819  14.559  12.602  12.866  0.3752 -0.1725 -0.1856
   22CGG   SI48 3820  14.627  11.990  12.806 -0.0637  0.3610  0.3272
   22CGG   SI49 3821  14.255  12.190  13.271 -0.4097 -0.0360  0.0679
   22CGG   SI50 3822  14.297  11.898  13.243 -0.1293 -0.0759 -0.1060
   22CGG   SI51 3823  14.855  12.169  12.905  0.3087  0.3061 -0.3905
   22CGG   SI52 3824  14.809  12.463  12.929 -0.0524  0.2152  0.2659
   22CGG   SI85 3825  14.668  10.884  13.221 -0.1759  0.5824  0.0191
   22CGG   SI86 3826  14.598  11.471  13.289 -0.1855 -0.6936 -0.1792
   22CGG   SI87 3827  14.665  11.699  12.773 -0.0159 -0.3580  0.2383
   22CGG   SI88 3828  14.729  11.109  12.698  0.2858  0.2290  0.1670
   22CGG   SI89 3829  14.368  11.312  13.180  0.1692 -0.0579  0.1791
   22CGG   SI90 3830  14.414  11.024  13.155  0.4956 -0.0883 -0.0923
   22CGG   SI91 3831  14.961  11.286  12.813  0.0842  0.5545  0.2999
   22CGG   SI92 3832  14.919  11.573  12.837  0.6785  0.1567 -0.1586
   23CGG    AL1 3833  14.043  13.405  13.080 -0.1562 -0.0978 -0.3562
   23CGG    AL2 3834  13.884  12.659  12.914 -0.1584  0.1226  0.4151
   23CGG    AL3 3835  13.854  12.951  12.953 -0.3353 -0.0724 -0.2506
   23CGG    AL4 3836  14.083  13.114  13.064 -0.3256  0.1330  0.0567
   23CGG   AL41 3837  14.146  12.525  12.985  0.0697  0.0682  0.1081
   23CGG   AL42 3838  13.995  11.768  12.828  0.3766 -0.5942  0.4356
   23CGG   AL43 3839  13.967  12.057  12.860 -0.1806 -0.0456 -0.1021
   23CGG   AL44 3840  14.191  12.234  12.961  0.2999  0.2754  0.2275
   23CGG   AL81 3841  14.255  11.631  12.893 -0.0385 -0.2377 -0.1303
   23CGG   AL82 3842  14.107  10.876  12.742  0.3594  0.3674  0.4416
   23CGG   AL83 3843  14.066  11.165  12.764 -0.0342 -0.0749 -0.3597
   23CGG   AL84 3844  14.288  11.342  12.864 -0.6051 -0.3079  0.2591
   23CGG    SI5 3845  13.972  12.630  13.218  0.6451 -0.0424  0.0459
   23CGG    SI6 3846  13.901  13.220  13.299  0.0470  0.0608  0.1940
   23CGG    SI7 3847  13.963  13.436  12.766  0.2686 -0.2088 -0.1567
   23CGG    SI8 3848  14.023  12.852  12.708  0.0977 -0.3472 -0.4035
   23CGG    SI9 3849  13.668  13.044  13.193  0.1782 -0.1119  0.3108
   23CGG   SI10 3850  13.715  12.750  13.157  0.2204  0.0342  0.0736
   23CGG   SI11 3851  14.253  13.017  12.821  0.0799 -0.1168 -0.1480
   23CGG   SI12 3852  14.227  13.309  12.842 -0.1167  0.0663  0.0519
   23CGG   SI45 3853  14.078  11.731  13.139  0.1784  0.0277  0.2492
   23CGG   SI46 3854  14.013  12.334  13.202  0.2690  0.1589 -0.2938
   23CGG   SI47 3855  14.072  12.560  12.674  0.1302 -0.0576  0.0218
   23CGG   SI48 3856  14.143  11.963  12.610 -0.2650  0.6227 -0.0442
   23CGG   SI49 3857  13.776  12.154  13.102 -0.6286  0.0775  0.4927
   23CGG   SI50 3858  13.824  11.863  13.070 -0.0132  0.0793 -0.3430
   23CGG   SI51 3859  14.377  12.135  12.731  0.4611 -0.3433  0.0880
   23CGG   SI52 3860  14.337  12.434  12.759  0.1367 -0.0732  0.2545
   23CGG   SI85 3861  14.193  10.853  13.051  0.1316 -0.2681  0.2032
   23CGG   SI86 3862  14.113  11.439  13.102 -0.0253 -0.3353  0.0647
   23CGG   SI87 3863  14.178  11.665  12.582 -0.0437 -0.0774  0.1642
   23CGG   SI88 3864  14.245  11.070  12.522  0.2432  0.1600  0.0560
   23CGG   SI89 3865  13.884  11.264  12.995  0.3948  0.3948  0.3909
   23CGG   SI90 3866  13.931  10.976  12.985  0.0126  0.1367  0.2306
   23CGG   SI91 3867  14.477  11.240  12.630  0.1106 -0.5300  0.2964
   23CGG   SI92 3868  14.442  11.533  12.661  0.5073  0.0324  0.2588
   24CGG    AL1 3869  13.555  13.377  12.902 -0.2596  0.0361  0.3866
   24CGG    AL2 3870  13.395  12.614  12.747 -0.0914  0.5031 -0.4337
   24CGG    AL3 3871  13.368  12.907  12.773 -0.2702 -0.4023 -0.4123
   24CGG    AL4 3872  13.594  13.081  12.880  0.2322 -0.2942 -0.1205
   24CGG   AL41 3873  13.665  12.485  12.814  0.0675  0.2220  0.0492
   24CGG   AL42 3874  13.511  11.716  12.664  0.1547  0.0925  0.2186
   24CGG   AL43 3875  13.484  12.021  12.681  0.2063 -0.1289 -0.3170
   24CGG   AL44 3876  13.705  12.188  12.788  0.1634 -0.3224  0.0267
   24CGG   AL81 3877  13.776  11.590  12.720 -0.5702  0.3433  0.2552
   24CGG   AL82 3878  13.615  10.824  12.566 -0.3473 -0.3211 -0.2464
   24CGG   AL83 3879  13.585  11.120  12.591  0.0832 -0.0432 -0.5207
   24CGG   AL84 3880  13.805  11.295  12.688  0.1409 -0.1054 -0.3349
   24CGG    SI5 3881  13.482  12.581  13.055 -0.1910  0.0005 -0.0824
   24CGG    SI6 3882  13.415  13.174  13.116 -0.4485 -0.1169  0.0403
   24CGG    SI7 3883  13.474  13.405  12.592 -0.0784 -0.1587 -0.0629
   24CGG    SI8 3884  13.542  12.808  12.530  0.0908  0.0384  0.1806
   24CGG    SI9 3885  13.186  12.996  13.010  0.0360 -0.3016 -0.2698
   24CGG   SI10 3886  13.227  12.715  12.983  0.3683  0.3638 -0.0982
   24CGG   SI11 3887  13.772  12.985  12.637  0.1987  0.1256  0.3950
   24CGG   SI12 3888  13.733  13.276  12.662 -0.0268  0.1468  0.0384
   24CGG   SI45 3889  13.599  11.685  12.964 -0.4793 -0.1892 -0.0908
   24CGG   SI46 3890  13.524  12.291  13.029 -0.0698 -0.2966 -0.0200
   24CGG   SI47 3891  13.579  12.511  12.506 -0.2044 -0.4602 -0.5184
   24CGG   SI48 3892  13.654  11.916  12.445  0.2605  0.4327  0.3282
   24CGG   SI49 3893  13.290  12.117  12.918 -0.3239  0.1281 -0.0432
   24CGG   SI50 3894  13.339  11.825  12.893  0.1814 -0.4677 -0.2177
   24CGG   SI51 3895  13.887  12.090  12.548  0.6163 -0.4172  0.1120
   24CGG   SI52 3896  13.849  12.385  12.572  0.4575 -0.4884 -0.3004
   24CGG   SI85 3897  13.700  10.807  12.879 -0.4135 -0.5031  0.5834
   24CGG   SI86 3898  13.632  11.395  12.932  0.0405  0.2669 -0.1768
   24CGG   SI87 3899  13.684  11.621  12.416  0.1299  0.1496 -0.0510
   24CGG   SI88 3900  13.756  11.019  12.354 -0.6132 -0.5555 -0.0801
   24CGG   SI89 3901  13.403  11.224  12.825  0.1780  0.0627  0.2129
   24CGG   SI90 3902  13.445  10.931  12.805  0.2350 -0.0982  0.1113
   24CGG   SI91 3903  13.990  11.198  12.450  0.2279  0.7869  0.1444
   24CGG   SI92 3904  13.951  11.493  12.474 -0.0005  0.2413  0.1523
   25CGG    AL1 3905  13.073  13.340  12.730  0.1047  0.2213  0.1168
   25CGG    AL2 3906  12.920  12.574  12.575 -0.7545 -0.1948  0.5285
   25CGG    AL3 3907  12.877  12.869  12.602 -0.2055 -0.0265  0.2810
   25CGG    AL4 3908  13.105  13.035  12.701 -0.3843 -0.2188 -0.0352
   25CGG   AL41 3909  13.179  12.434  12.641  0.0412  0.2943  0.2222
   25CGG   AL42 3910  13.029  11.692  12.482  0.0997  0.4574  0.3776
   25CGG   AL43 3911  12.994  11.977  12.509  0.2869 -0.4990 -0.1887
   25CGG   AL44 3912  13.216  12.141  12.608  0.1217 -0.2960 -0.0694
   25CGG   AL81 3913  13.281  11.560  12.549 -0.0393 -0.2973 -0.3334
   25CGG   AL82 3914  13.144  10.784  12.391  0.0978 -0.1833 -0.1216
   25CGG   AL83 3915  13.105  11.089  12.424  0.3939 -0.3522 -0.0368
   25CGG   AL84 3916  13.325  11.262  12.520 -0.1351  0.2016 -0.0008
   25CGG    SI5 3917  13.003  12.545  12.880 -0.3300 -0.1363 -0.0065
   25CGG    SI6 3918  12.931  13.139  12.947  0.2004  0.3566  0.0882
   25CGG    SI7 3919  12.995  13.369  12.422  0.1959  0.0486  0.1488
   25CGG    SI8 3920  13.062  12.772  12.355  0.3780  0.4114 -0.3165
   25CGG    SI9 3921  12.697  12.968  12.842 -0.4317  0.0744 -0.1507
   25CGG   SI10 3922  12.747  12.671  12.819  0.3512 -0.0522 -0.1229
   25CGG   SI11 3923  13.293  12.941  12.469 -0.1593 -0.2369  0.2789
   25CGG   SI12 3924  13.249  13.230  12.490 -0.3525 -0.1433  0.2080
   25CGG   SI45 3925  13.119  11.662  12.790  0.3546  0.2974 -0.1626
   25CGG   SI46 3926  13.042  12.248  12.856 -0.0566  0.1094  0.4117
   25CGG   SI47 3927  13.106  12.477  12.332  0.6565 -0.1181 -0.1910
   25CGG   SI48 3928  13.171  11.886  12.266  0.0626  0.2767 -0.0987
   25CGG   SI49 3929  12.816  12.071  12.759 -0.1086  0.0595  0.0819
   25CGG   SI50 3930  12.856  11.783  12.729 -0.2864 -0.1477 -0.4345
   25CGG   SI51 3931  13.400  12.051  12.372  0.4846 -0.3310 -0.1357
   25CGG   SI52 3932  13.358  12.347  12.395  0.1860  0.0188 -0.2877
   25CGG   SI85 3933  13.229  10.753  12.700  0.6736 -0.2589 -0.2955
   25CGG   SI86 3934  13.147  11.362  12.764  0.0087  0.0304  0.1178
   25CGG   SI87 3935  13.209  11.585  12.234  0.0118 -0.1004 -0.0692
   25CGG   SI88 3936  13.281  10.976  12.183 -0.0130  0.0355 -0.2053
   25CGG   SI89 3937  12.918  11.178  12.667 -0.0401  0.1952  0.2516
   25CGG   SI90 3938  12.972  10.882  12.631  0.2059 -0.3100 -0.1250
   25CGG   SI91 3939  13.510  11.161  12.287  0.0591 -0.3793  0.8556
   25CGG   SI92 3940  13.467  11.457  12.313  0.0076  0.2788  0.1823
   26CGG    AL1 3941  12.579  13.292  12.562 -0.0946 -0.6522 -0.2481
   26CGG    AL2 3942  12.435  12.534  12.409  0.2932  0.0957  0.0604
   26CGG    AL3 3943  12.385  12.835  12.435 -0.1726 -0.0053 -0.1890
   26CGG    AL4 3944  12.613  13.004  12.537 -0.0205  0.2814 -0.6900
   26CGG   AL41 3945  12.689  12.403  12.473 -0.1930  0.0741 -0.0149
   26CGG   AL42 3946  12.547  11.635  12.319 -0.0059  0.0126  0.1374
   26CGG   AL43 3947  12.511  11.927  12.340 -0.2973 -0.2124  0.0092
   26CGG   AL44 3948  12.736  12.094  12.449 -0.0982 -0.0338 -0.3052
   26CGG   AL81 3949  12.808  11.507  12.378  0.0060 -0.1244  0.3825
   26CGG   AL82 3950  12.649  10.744  12.224 -0.2854  0.0369  0.3340
   26CGG   AL83 3951  12.612  11.036  12.257 -0.1965  0.2145  0.0939
   26CGG   AL84 3952  12.835  11.203  12.354 -0.1671 -0.5765 -0.1015
   26CGG    SI5 3953  12.518  12.508  12.719 -0.1274 -0.0041 -0.2793
   26CGG    SI6 3954  12.446  13.100  12.779 -0.0188 -0.0585  0.2366
   26CGG    SI7 3955  12.495  13.330  12.252 -0.1294 -0.3894 -0.0393
   26CGG    SI8 3956  12.564  12.735  12.192  0.0663  0.4207 -0.2226
   26CGG    SI9 3957  12.213  12.933  12.678  0.4454  0.1216  0.1255
   26CGG   SI10 3958  12.257  12.634  12.650 -0.0861 -0.0641 -0.0923
   26CGG   SI11 3959  12.794  12.905  12.299  0.0429  0.2260 -0.2312
   26CGG   SI12 3960  12.758  13.206  12.323  0.1574  0.3314 -0.7221
   26CGG   SI45 3961  12.632  11.596  12.631 -0.0243 -0.3109 -0.1114
   26CGG   SI46 3962  12.562  12.208  12.696 -0.0510  0.4242  0.4124
   26CGG   SI47 3963  12.612  12.433  12.165 -0.2802 -0.2444  0.0798
   26CGG   SI48 3964  12.688  11.828  12.099  0.1227 -0.1721 -0.1083
   26CGG   SI49 3965  12.338  12.024  12.580  0.0061  0.2481 -0.1112
   26CGG   SI50 3966  12.382  11.734  12.561  0.0902  0.3746 -0.2868
   26CGG   SI51 3967  12.914  12.004  12.204  0.4855  0.2011 -0.0850
   26CGG   SI52 3968  12.869  12.298  12.235  0.2586 -0.1874  0.3858
   26CGG   SI85 3969  12.740  10.711  12.532  0.0465 -0.1664  0.2841
   26CGG   SI86 3970  12.669  11.309  12.593  0.5833 -0.2475  0.3094
   26CGG   SI87 3971  12.730  11.536  12.069 -0.0252 -0.2511 -0.5694
   26CGG   SI88 3972  12.794  10.943  12.015  0.3941 -0.1042 -0.0246
   26CGG   SI89 3973  12.433  11.132  12.494  0.0021 -0.1489 -0.1924
   26CGG   SI90 3974  12.470  10.836  12.466  0.4638  0.5613 -0.0696
   26CGG   SI91 3975  13.026  11.113  12.114  0.1317  0.2764 -0.3014
   26CGG   SI92 3976  12.985  11.398  12.143 -0.1966  0.3515  0.4804
   27CGG    AL1 3977  12.104  13.253  12.387  0.0064 -0.5563 -0.0079
   27CGG    AL2 3978  11.947  12.483  12.227 -0.0274 -0.1146 -0.1668
   27CGG    AL3 3979  11.911  12.792  12.263  0.1017  0.1986 -0.0126
   27CGG    AL4 3980  12.132  12.962  12.362 -0.0040 -0.1927  0.0584
   27CGG   AL41 3981  12.214  12.353  12.302 -0.1855  0.5461 -0.0865
   27CGG   AL42 3982  12.054  11.590  12.154 -0.1475 -0.2532  0.0518
   27CGG   AL43 3983  12.024  11.894  12.185  0.1975  0.3307 -0.1545
   27CGG   AL44 3984  12.249  12.064  12.274 -0.4704 -0.1447  0.3538
   27CGG   AL81 3985  12.314  11.466  12.214 -0.3508  0.2867  0.3367
   27CGG   AL82 3986  12.160  10.700  12.055 -0.1844 -0.0159  0.4617
   27CGG   AL83 3987  12.129  10.999  12.086 -0.2665  0.4323  0.0750
   27CGG   AL84 3988  12.347  11.172  12.183  0.0360  0.4639 -0.3958
   27CGG    SI5 3989  12.042  12.459  12.544  0.0492 -0.2698  0.1641
   27CGG    SI6 3990  11.960  13.064  12.600  0.0146  0.1589 -0.5612
   27CGG    SI7 3991  12.018  13.283  12.082  0.0236 -0.2990 -0.1724
   27CGG    SI8 3992  12.086  12.687  12.023 -0.2030  0.2316 -0.3231
   27CGG    SI9 3993  11.739  12.886  12.503 -0.1705  0.1132  0.4278
   27CGG   SI10 3994  11.778  12.591  12.476  0.1871 -0.3562  0.3631
   27CGG   SI11 3995  12.309  12.861  12.125 -0.0822 -0.2497  0.3172
   27CGG   SI12 3996  12.280  13.151  12.154  0.6191 -0.5035 -0.1747
   27CGG   SI45 3997  12.154  11.560  12.463  0.0395 -0.0437  0.1939
   27CGG   SI46 3998  12.077  12.161  12.518 -0.2630  0.7231 -0.2716
   27CGG   SI47 3999  12.133  12.391  11.990  0.2676 -0.0323 -0.1788
   27CGG   SI48 4000  12.189  11.793  11.943 -0.0028  0.1361  0.4755
   27CGG   SI49 4001  11.841  11.994  12.422 -0.1667 -0.0531  0.2431
   27CGG   SI50 4002  11.892  11.697  12.401 -0.2161 -0.2311 -0.2736
   27CGG   SI51 4003  12.432  11.967  12.032  0.2059  0.0124 -0.1844
   27CGG   SI52 4004  12.389  12.263  12.060 -0.0896  0.4341  0.1404
   27CGG   SI85 4005  12.252  10.676  12.358  0.2532 -0.1229  0.1226
   27CGG   SI86 4006  12.182  11.266  12.428 -0.1561 -0.0848 -0.3849
   27CGG   SI87 4007  12.235  11.504  11.908 -0.1708 -0.0564 -0.6142
   27CGG   SI88 4008  12.297  10.900  11.837 -0.1080 -0.2121 -0.4314
   27CGG   SI89 4009  11.957  11.095  12.329 -0.1160  0.1431 -0.4803
   27CGG   SI90 4010  11.993  10.803  12.294  0.4080  0.1566 -0.5633
   27CGG   SI91 4011  12.527  11.070  11.946 -0.0939 -0.0977  0.0230
   27CGG   SI92 4012  12.500  11.365  11.971  0.4029 -0.1630  0.0756
   28CGG    AL1 4013  11.613  13.203  12.222  0.1461  0.0632  0.1203
   28CGG    AL2 4014  11.457  12.454  12.068 -0.1506  0.1552 -0.0651
   28CGG    AL3 4015  11.421  12.749  12.100  0.2610  0.2422  0.2973
   28CGG    AL4 4016  11.655  12.920  12.198  0.3971  0.6351  0.6611
   28CGG   AL41 4017  11.722  12.316  12.134  0.3421 -0.1872  0.6109
   28CGG   AL42 4018  11.571  11.548  11.985  0.1209 -0.1282 -0.3925
   28CGG   AL43 4019  11.527  11.850  12.007 -0.4356  0.3579  0.1533
   28CGG   AL44 4020  11.750  12.024  12.109 -0.0309  0.5473 -0.2510
   28CGG   AL81 4021  11.827  11.422  12.048  0.3276  0.0520 -0.0801
   28CGG   AL82 4022  11.681  10.669  11.886  0.6859  0.0497  0.1799
   28CGG   AL83 4023  11.637  10.958  11.916  0.0215  0.1057 -0.2912
   28CGG   AL84 4024  11.867  11.133  12.023  0.1960  0.2171  0.4253
   28CGG    SI5 4025  11.548  12.420  12.375  0.2666  0.1633 -0.1136
   28CGG    SI6 4026  11.478  13.006  12.445  0.0904  0.0100 -0.4531
   28CGG    SI7 4027  11.523  13.244  11.919 -0.3474  0.2888 -0.4205
   28CGG    SI8 4028  11.590  12.648  11.852 -0.0867 -0.2957 -0.5225
   28CGG    SI9 4029  11.244  12.841  12.342  0.4089  0.1902  0.3807
   28CGG   SI10 4030  11.288  12.552  12.314  0.1897  0.1543 -0.2637
   28CGG   SI11 4031  11.833  12.818  11.948 -0.0607 -0.2135 -0.1492
   28CGG   SI12 4032  11.790  13.111  11.980 -0.0831 -0.0841  0.5162
   28CGG   SI45 4033  11.663  11.524  12.294 -0.2030  0.3545 -0.1295
   28CGG   SI46 4034  11.585  12.128  12.356  0.2555  0.0626  0.2789
   28CGG   SI47 4035  11.634  12.358  11.822 -0.0384 -0.6035 -0.0946
   28CGG   SI48 4036  11.704  11.745  11.770 -0.3299 -0.1695 -0.1097
   28CGG   SI49 4037  11.359  11.950  12.256  0.0734 -0.1370 -0.0946
   28CGG   SI50 4038  11.403  11.651  12.227 -0.1173  0.1193 -0.1762
   28CGG   SI51 4039  11.935  11.922  11.875 -0.0169 -0.4666  0.0578
   28CGG   SI52 4040  11.891  12.218  11.887  0.3437 -0.5111 -0.1821
   28CGG   SI85 4041  11.762  10.635  12.203  0.1010  0.6041 -0.1730
   28CGG   SI86 4042  11.696  11.227  12.270  0.0127  0.3439  0.2115
   28CGG   SI87 4043  11.742  11.451  11.740  0.4972  0.0575 -0.0441
   28CGG   SI88 4044  11.817  10.857  11.668  0.1258 -0.3395 -0.3147
   28CGG   SI89 4045  11.461  11.054  12.166  0.0681  0.4339  0.2414
   28CGG   SI90 4046  11.505  10.765  12.133  0.0634  0.1731 -0.2237
   28CGG   SI91 4047  12.045  11.035  11.781  0.0674  0.2082  0.3532
   28CGG   SI92 4048  12.005  11.326  11.806 -0.1336  0.1170  0.6012
   29CGG    AL1 4049  11.125  13.170  12.064 -0.0608 -0.1891  0.0623
   29CGG    AL2 4050  10.969  12.410  11.906  0.2155  0.6099 -0.3433
   29CGG    AL3 4051  10.935  12.708  11.940 -0.4097 -0.5171  0.1154
   29CGG    AL4 4052  11.166  12.875  12.037  0.0063 -0.5770  0.0422
   29CGG   AL41 4053  11.238  12.273  11.962  0.3758 -0.2370  0.0643
   29CGG   AL42 4054  11.078  11.525  11.808 -0.2325  0.1404 -0.9538
   29CGG   AL43 4055  11.049  11.817  11.844 -0.3333  0.1135 -0.2290
   29CGG   AL44 4056  11.271  11.981  11.948 -0.0084 -0.1677 -0.0558
   29CGG   AL81 4057  11.350  11.380  11.882  0.3730 -0.0045  0.0424
   29CGG   AL82 4058  11.194  10.616  11.723 -0.0593 -0.2430 -0.1919
   29CGG   AL83 4059  11.158  10.918  11.752 -0.4016  0.5399  0.0579
   29CGG   AL84 4060  11.383  11.087  11.856 -0.1735  0.0076  0.4512
   29CGG    SI5 4061  11.070  12.385  12.209  0.0744 -0.1767  0.0723
   29CGG    SI6 4062  10.989  12.977  12.277  0.0984 -0.5401  0.3424
   29CGG    SI7 4063  11.050  13.204  11.752 -0.0197 -0.3187  0.5243
   29CGG    SI8 4064  11.105  12.600  11.695 -0.1743 -0.1167 -0.0854
   29CGG    SI9 4065  10.759  12.805  12.177 -0.1644 -0.3786  0.1756
   29CGG   SI10 4066  10.798  12.511  12.158 -0.2507  0.2260  0.3267
   29CGG   SI11 4067  11.343  12.776  11.786  0.1472 -0.2440 -0.2200
   29CGG   SI12 4068  11.309  13.076  11.827  0.3027 -0.1285  0.1149
   29CGG   SI45 4069  11.171  11.488  12.123 -0.2070  0.0494  0.1532
   29CGG   SI46 4070  11.104  12.094  12.188 -0.0035 -0.0017 -0.2812
   29CGG   SI47 4071  11.147  12.309  11.664 -0.1214  0.1999  0.4186
   29CGG   SI48 4072  11.219  11.717  11.598  0.0105  0.2526  0.1314
   29CGG   SI49 4073  10.869  11.908  12.085 -0.2810  0.0636 -0.5653
   29CGG   SI50 4074  10.917  11.617  12.051  0.0788 -0.1124 -0.5269
   29CGG   SI51 4075  11.449  11.884  11.701  0.3618  0.0258 -0.2544
   29CGG   SI52 4076  11.412  12.176  11.721 -0.1677 -0.3698  0.3111
   29CGG   SI85 4077  11.274  10.587  12.036 -0.1744 -0.5241 -0.3853
   29CGG   SI86 4078  11.211  11.190  12.095 -0.2839  0.0249  0.0996
   29CGG   SI87 4079  11.262  11.421  11.575 -0.0821  0.2942  0.3615
   29CGG   SI88 4080  11.322  10.814  11.508 -0.7065  0.0090  0.1279
   29CGG   SI89 4081  10.981  11.013  11.992  0.3453 -0.4251  0.0611
   29CGG   SI90 4082  11.026  10.722  11.969  0.1438  0.5601 -0.1380
   29CGG   SI91 4083  11.559  10.988  11.611  0.0451 -0.1411  0.0814
   29CGG   SI92 4084  11.516  11.282  11.637  0.1330  0.1023  0.0311
   30CGG    AL1 4085  10.631  13.124  11.894 -0.3207 -0.0050 -0.2712
   30CGG    AL2 4086  10.480  12.362  11.742  0.2815  0.4141 -0.1257
   30CGG    AL3 4087  10.448  12.661  11.765 -0.2941 -0.4438  0.5140
   30CGG    AL4 4088  10.671  12.827  11.870 -0.1855 -0.1461 -0.5577
   30CGG   AL41 4089  10.742  12.227  11.804 -0.0102 -0.2657 -0.2542
   30CGG   AL42 4090  10.595  11.478  11.646  0.4754 -0.1844 -0.0200
   30CGG   AL43 4091  10.555  11.776  11.680 -0.3390  0.4409 -0.0266
   30CGG   AL44 4092  10.791  11.944  11.775  0.4112 -0.3450 -0.1825
   30CGG   AL81 4093  10.858  11.343  11.710 -0.1327 -0.0572  0.1095
   30CGG   AL82 4094  10.694  10.579  11.561  0.2072 -0.0304  0.4684
   30CGG   AL83 4095  10.669  10.873  11.592  0.3525  0.2994  0.1722
   30CGG   AL84 4096  10.892  11.044  11.680 -0.0501  0.0974  0.3937
   30CGG    SI5 4097  10.574  12.332  12.051 -0.0615  0.1717  0.1348
   30CGG    SI6 4098  10.497  12.927  12.112  0.3693 -0.3846 -0.0070
   30CGG    SI7 4099  10.555  13.158  11.584 -0.0013  0.4749 -0.3816
   30CGG    SI8 4100  10.629  12.560  11.524  0.1659 -0.0278  0.0909
   30CGG    SI9 4101  10.273  12.759  12.002  0.1351 -0.1475 -0.1883
   30CGG   SI10 4102  10.308  12.467  11.972  0.4232  0.3560 -0.4061
   30CGG   SI11 4103  10.851  12.735  11.629  0.2099 -0.1724 -0.4391
   30CGG   SI12 4104  10.812  13.027  11.648 -0.0639  0.0435  0.0362
   30CGG   SI45 4105  10.678  11.445  11.957 -0.2136  0.5047  0.8823
   30CGG   SI46 4106  10.606  12.038  12.023  0.0156 -0.1802  0.3426
   30CGG   SI47 4107  10.658  12.263  11.499  0.2969 -0.3779  0.1729
   30CGG   SI48 4108  10.730  11.678  11.429  0.4140 -0.0948  0.0413
   30CGG   SI49 4109  10.371  11.871  11.921 -0.0844  0.4628 -0.4495
   30CGG   SI50 4110  10.417  11.581  11.894 -0.1742  0.1900  0.1511
   30CGG   SI51 4111  10.963  11.843  11.536  0.2382 -0.0716  0.5211
   30CGG   SI52 4112  10.922  12.143  11.560 -0.1512 -0.0952 -0.1407
   30CGG   SI85 4113  10.789  10.546  11.863 -0.4021 -0.6364 -0.6206
   30CGG   SI86 4114  10.720  11.152  11.928 -0.1147  0.4046 -0.0637
   30CGG   SI87 4115  10.769  11.385  11.405  0.1650 -0.0594  0.3131
   30CGG   SI88 4116  10.838  10.774  11.348  0.1116  0.2134  0.2607
   30CGG   SI89 4117  10.490  10.974  11.829 -0.0934 -0.3524  0.3040
   30CGG   SI90 4118  10.520  10.682  11.805  0.3010  0.3746  0.0117
   30CGG   SI91 4119  11.074  10.952  11.440  0.3881 -0.1327  0.1334
   30CGG   SI92 4120  11.029  11.247  11.464 -0.2387 -0.2676  0.2629
   31CGG    AL1 4121  10.148  13.082  11.716  0.2788 -0.2225 -0.3035
   31CGG    AL2 4122   9.987  12.324  11.579 -0.4756  0.0712 -0.4374
   31CGG    AL3 4123   9.952  12.621  11.600 -0.3111  0.1682  0.3950
   31CGG    AL4 4124  10.185  12.793  11.689  0.0650  0.4859  0.1261
   31CGG   AL41 4125  10.253  12.201  11.643  0.2168 -0.1424 -0.1744
   31CGG   AL42 4126  10.113  11.435  11.469 -0.2482 -0.0563 -0.2570
   31CGG   AL43 4127  10.067  11.729  11.511 -0.0527 -0.2045  0.1082
   31CGG   AL44 4128  10.296  11.901  11.607  0.0772 -0.3689 -0.4831
   31CGG   AL81 4129  10.370  11.299  11.540  0.0442  0.0147 -0.1083
   31CGG   AL82 4130  10.205  10.544  11.392  0.0372 -0.3830 -0.4770
   31CGG   AL83 4131  10.174  10.847  11.420 -0.1634 -0.2157 -0.3239
   31CGG   AL84 4132  10.406  11.007  11.518 -0.0447 -0.2771  0.3559
   31CGG    SI5 4133  10.079  12.299  11.882 -0.0583 -0.2574 -0.1429
   31CGG    SI6 4134  10.016  12.896  11.937 -0.1767  0.0326  0.1238
   31CGG    SI7 4135  10.065  13.121  11.411 -0.0243  0.0882 -0.3712
   31CGG    SI8 4136  10.129  12.519  11.360 -0.3648  0.0067  0.3729
   31CGG    SI9 4137   9.777  12.718  11.839 -0.1395  0.0723 -0.1681
   31CGG   SI10 4138   9.819  12.429  11.820  0.0033  0.0849  0.1428
   31CGG   SI11 4139  10.367  12.696  11.452  0.2094  0.3971  0.1448
   31CGG   SI12 4140  10.331  12.992  11.484 -0.1395 -0.1810  0.1917
   31CGG   SI45 4141  10.204  11.405  11.788  0.2336 -0.0716 -0.2117
   31CGG   SI46 4142  10.122  12.001  11.851  0.5645 -0.4408  0.1564
   31CGG   SI47 4143  10.170  12.228  11.336  0.3694 -0.1310 -0.2583
   31CGG   SI48 4144  10.247  11.635  11.260  0.6198 -0.2279  0.1378
   31CGG   SI49 4145   9.892  11.818  11.755  0.2424  0.1823 -0.0321
   31CGG   SI50 4146   9.936  11.533  11.725 -0.3280  0.1188 -0.1653
   31CGG   SI51 4147  10.478  11.810  11.366 -0.1076  0.1907  0.4827
   31CGG   SI52 4148  10.431  12.101  11.400 -0.2596 -0.3702 -0.2658
   31CGG   SI85 4149  10.293  10.512  11.703 -0.4502 -0.2490  0.2436
   31CGG   SI86 4150  10.229  11.109  11.761 -0.3949  0.0056  0.4601
   31CGG   SI87 4151  10.289  11.337  11.228  0.4600 -0.0039  0.0620
   31CGG   SI88 4152  10.349  10.738  11.182 -0.4440 -0.2702  0.1580
   31CGG   SI89 4153   9.997  10.943  11.655 -0.0363  0.1895 -0.2318
   31CGG   SI90 4154  10.036  10.652  11.638 -0.2117 -0.1364  0.1954
   31CGG   SI91 4155  10.583  10.912  11.281 -0.4070  0.3884 -0.2860
   31CGG   SI92 4156  10.548  11.205  11.304  0.5143 -0.1743  0.1187
   32CGG    AL1 4157   9.662  13.034  11.559 -0.5320 -0.3578 -0.0451
   32CGG    AL2 4158   9.501  12.274  11.416 -0.2037 -0.0449  0.1672
   32CGG    AL3 4159   9.467  12.573  11.435 -0.4843  0.0015  0.2217
   32CGG    AL4 4160   9.689  12.752  11.528  0.2671  0.1806  0.1811
   32CGG   AL41 4161   9.763  12.149  11.479  0.1256 -0.0684 -0.2265
   32CGG   AL42 4162   9.606  11.385  11.315 -0.1638  0.0936  0.0367
   32CGG   AL43 4163   9.586  11.688  11.345  0.7011 -0.2992 -0.5986
   32CGG   AL44 4164   9.810  11.855  11.441  0.0045 -0.5215  0.1502
   32CGG   AL81 4165   9.884  11.266  11.374  0.2317  0.2100 -0.2420
   32CGG   AL82 4166   9.716  10.499  11.231 -0.3601 -0.2560 -0.2382
   32CGG   AL83 4167   9.684  10.799  11.254  0.1365 -0.2390  0.2743
   32CGG   AL84 4168   9.914  10.961  11.343 -0.1077 -0.0698 -0.1756
   32CGG    SI5 4169   9.595  12.246  11.724 -0.0334  0.0692  0.2549
   32CGG    SI6 4170   9.520  12.842  11.780 -0.0924 -0.6925  0.1198
   32CGG    SI7 4171   9.568  13.071  11.255  0.2084  0.1354 -0.1544
   32CGG    SI8 4172   9.644  12.468  11.198  0.4604 -0.2205 -0.0464
   32CGG    SI9 4173   9.296  12.675  11.676  0.1456  0.3241 -0.3507
   32CGG   SI10 4174   9.330  12.375  11.652  0.1404 -0.5644 -0.2428
   32CGG   SI11 4175   9.870  12.646  11.294  0.2616 -0.0073  0.0664
   32CGG   SI12 4176   9.835  12.944  11.309  0.1326  0.1740 -0.3044
   32CGG   SI45 4177   9.707  11.361  11.621 -0.0935  0.0638  0.0396
   32CGG   SI46 4178   9.638  11.949  11.692  0.0199 -0.0059 -0.0289
   32CGG   SI47 4179   9.680  12.183  11.166 -0.0889  0.2641 -0.0238
   32CGG   SI48 4180   9.753  11.577  11.108 -0.1852 -0.1396  0.5576
   32CGG   SI49 4181   9.402  11.779  11.590  0.7264 -0.2533 -0.2934
   32CGG   SI50 4182   9.443  11.487  11.556  0.0864 -0.3269  0.3139
   32CGG   SI51 4183   9.985  11.763  11.198 -0.4040 -0.0930 -0.0759
   32CGG   SI52 4184   9.935  12.056  11.224 -0.1971  0.0814 -0.2526
   32CGG   SI85 4185   9.805  10.468  11.542  0.5451  0.0663  0.1240
   32CGG   SI86 4186   9.742  11.065  11.593  0.7571  0.0137 -0.0902
   32CGG   SI87 4187   9.781  11.288  11.068 -0.2658  0.0717 -0.2492
   32CGG   SI88 4188   9.856  10.688  11.014 -0.1402 -0.2167  0.1167
   32CGG   SI89 4189   9.511  10.893  11.497 -0.0582  0.0680 -0.1626
   32CGG   SI90 4190   9.549  10.602  11.471  0.0997 -0.1349  0.4713
   32CGG   SI91 4191  10.093  10.865  11.109  0.4720 -0.1208 -0.3700
   32CGG   SI92 4192  10.047  11.161  11.127  0.0381 -0.2996  0.4597
   33CGG    AL1 4193   9.169  12.992  11.403  0.3326  0.1285  0.1760
   33CGG    AL2 4194   9.013  12.234  11.243  0.0308 -0.2289 -0.1380
   33CGG    AL3 4195   8.990  12.525  11.271  0.2338 -0.3037 -0.3543
   33CGG    AL4 4196   9.211  12.703  11.368  0.0491 -0.0406  0.0803
   33CGG   AL41 4197   9.279  12.107  11.304 -0.4322 -0.4265 -0.2198
   33CGG   AL42 4198   9.125  11.352  11.152 -0.5243  0.1704  0.1713
   33CGG   AL43 4199   9.088  11.638  11.188  0.6843  0.0703  0.8005
   33CGG   AL44 4200   9.319  11.810  11.278 -0.1465 -0.4371 -0.6037
   33CGG   AL81 4201   9.380  11.219  11.214  0.2431  0.1037  0.0004
   33CGG   AL82 4202   9.234  10.457  11.070 -0.3539 -0.4143  0.2303
   33CGG   AL83 4203   9.197  10.745  11.092 -0.1884  0.3587  0.1792
   33CGG   AL84 4204   9.429  10.915  11.180  0.1370 -0.0778 -0.0387
   33CGG    SI5 4205   9.107  12.210  11.551  0.3397  0.1232 -0.1012
   33CGG    SI6 4206   9.030  12.797  11.615  0.0044  0.1003  0.6511
   33CGG    SI7 4207   9.086  13.031  11.093  0.5363  0.0549 -0.1043
   33CGG    SI8 4208   9.156  12.431  11.023  0.1132 -0.6244 -0.1366
   33CGG    SI9 4209   8.807  12.620  11.511 -0.0772  0.1387  0.3762
   33CGG   SI10 4210   8.841  12.335  11.490 -0.7469 -0.1676 -0.1417
   33CGG   SI11 4211   9.385  12.607  11.122 -0.0830  0.4466  0.0033
   33CGG   SI12 4212   9.346  12.899  11.158 -0.0621 -0.1237  0.3771
   33CGG   SI45 4213   9.213  11.327  11.458 -0.6566  0.3687 -0.5077
   33CGG   SI46 4214   9.146  11.918  11.527 -0.0647  0.0850  0.3704
   33CGG   SI47 4215   9.198  12.145  11.004 -0.0992  0.1774 -0.0498
   33CGG   SI48 4216   9.262  11.546  10.933 -0.0326  0.0414  0.1347
   33CGG   SI49 4217   8.915  11.745  11.428  0.0180  0.3105  0.0368
   33CGG   SI50 4218   8.958  11.453  11.393  0.2895  0.1294 -0.0846
   33CGG   SI51 4219   9.498  11.713  11.035 -0.0626  0.0118 -0.3484
   33CGG   SI52 4220   9.462  12.005  11.064  0.2362 -0.1403  0.0411
   33CGG   SI85 4221   9.329  10.428  11.373 -0.0372 -0.3513 -0.3282
   33CGG   SI86 4222   9.252  11.024  11.431  0.1965 -0.8376 -0.2557
   33CGG   SI87 4223   9.298  11.252  10.901  0.0034 -0.0135 -0.1157
   33CGG   SI88 4224   9.370  10.653  10.848  0.2771  0.2215  0.0988
   33CGG   SI89 4225   9.023  10.849  11.331  0.0649  0.4956 -0.4566
   33CGG   SI90 4226   9.068  10.562  11.317  0.1271  0.9181 -0.1449
   33CGG   SI91 4227   9.609  10.828  10.934 -0.3970  0.0363  0.1938
   33CGG   SI92 4228   9.554  11.117  10.972  0.3768  0.2397  0.1831
   34CGG    AL1 4229   8.683  12.949  11.234  0.0306 -0.3186  0.1623
   34CGG    AL2 4230   8.530  12.190  11.078  0.1292  0.0092 -0.4653
   34CGG    AL3 4231   8.495  12.492  11.104  0.1653 -0.5916 -0.3418
   34CGG    AL4 4232   8.726  12.659  11.206  0.2867 -0.0187 -0.3931
   34CGG   AL41 4233   8.786  12.064  11.140 -0.2668 -0.2440 -0.1738
   34CGG   AL42 4234   8.635  11.308  10.991  0.1306  0.4290 -0.1092
   34CGG   AL43 4235   8.603  11.602  11.020  0.0036  0.1389  0.0437
   34CGG   AL44 4236   8.826  11.768  11.119 -0.2032 -0.0951  0.1284
   34CGG   AL81 4237   8.899  11.178  11.052 -0.0254 -0.0710  0.5657
   34CGG   AL82 4238   8.747  10.404  10.912  0.1505 -0.3283 -0.1986
   34CGG   AL83 4239   8.715  10.700  10.934 -0.4626 -0.0525  0.0740
   34CGG   AL84 4240   8.933  10.882  11.025  0.2735  0.1506  0.0307
   34CGG    SI5 4241   8.614  12.165  11.391  0.3169  0.5197  0.0899
   34CGG    SI6 4242   8.552  12.753  11.455  0.4583 -0.3113  0.2238
   34CGG    SI7 4243   8.588  12.998  10.932  0.2050  0.2139  0.3899
   34CGG    SI8 4244   8.662  12.390  10.862  0.1342  0.4141  0.1683
   34CGG    SI9 4245   8.319  12.590  11.343 -0.0887 -0.4615 -0.2937
   34CGG   SI10 4246   8.360  12.298  11.326  0.0497  0.0166  0.1059
   34CGG   SI11 4247   8.898  12.565  10.957  0.3318  0.3103 -0.1630
   34CGG   SI12 4248   8.856  12.856  10.987  0.1901 -0.3490  0.1865
   34CGG   SI45 4249   8.729  11.281  11.292 -0.0024  0.5134 -0.3182
   34CGG   SI46 4250   8.657  11.874  11.362  0.3615  0.2337 -0.0011
   34CGG   SI47 4251   8.707  12.096  10.831  0.1612  0.0541 -0.0824
   34CGG   SI48 4252   8.774  11.500  10.780 -0.1712  0.2153 -0.1341
   34CGG   SI49 4253   8.424  11.698  11.264 -0.2298 -0.3494 -0.5735
   34CGG   SI50 4254   8.464  11.410  11.240 -0.6380 -0.0579 -0.2044
   34CGG   SI51 4255   9.001  11.677  10.880 -0.6949  0.5919  0.0719
   34CGG   SI52 4256   8.966  11.971  10.908 -0.0592 -0.1870  0.6956
   34CGG   SI85 4257   8.841  10.384  11.217 -0.3063  0.1285  0.2170
   34CGG   SI86 4258   8.768  10.984  11.277  0.0175  0.2613  0.2142
   34CGG   SI87 4259   8.807  11.210  10.740 -0.0110  0.2842 -0.0921
   34CGG   SI88 4260   8.885  10.597  10.687  0.1584 -0.1674 -0.4519
   34CGG   SI89 4261   8.530  10.808  11.182  0.0137 -0.0682 -0.0007
   34CGG   SI90 4262   8.577  10.514  11.154  0.0528  0.1950 -0.0459
   34CGG   SI91 4263   9.110  10.786  10.780  0.1546  0.2177  0.3060
   34CGG   SI92 4264   9.065  11.078  10.803  0.1826 -0.2293 -0.4765
   35CGG    AL1 4265   8.194  12.913  11.077  0.3603 -0.0594 -0.2170
   35CGG    AL2 4266   8.044  12.162  10.909  0.0423  0.4921  0.1301
   35CGG    AL3 4267   8.008  12.456  10.945 -0.1959  0.2598  0.4560
   35CGG    AL4 4268   8.229  12.637  11.036  0.2881  0.3903 -0.4158
   35CGG   AL41 4269   8.302  12.023  10.973 -0.6687  0.1007  0.3743
   35CGG   AL42 4270   8.147  11.265  10.831 -0.1960 -0.0263 -0.3300
   35CGG   AL43 4271   8.115  11.552  10.860  0.1738  0.0767  0.1570
   35CGG   AL44 4272   8.338  11.726  10.949 -0.1915  0.0072 -0.1460
   35CGG   AL81 4273   8.408  11.132  10.895  0.2828 -0.1276  0.2921
   35CGG   AL82 4274   8.257  10.367  10.746 -0.2665 -0.5491  0.2381
   35CGG   AL83 4275   8.227  10.668  10.774  0.0032 -0.4677  0.0809
   35CGG   AL84 4276   8.450  10.843  10.873 -0.2951 -0.0310  0.2368
   35CGG    SI5 4277   8.137  12.125  11.221  0.0284 -0.1197  0.0187
   35CGG    SI6 4278   8.055  12.718  11.288 -0.2087  0.0937 -0.1142
   35CGG    SI7 4279   8.099  12.950  10.774  0.3043  0.0803 -0.0279
   35CGG    SI8 4280   8.178  12.360  10.693 -0.0136 -0.3694 -0.0729
   35CGG    SI9 4281   7.829  12.539  11.195 -0.3472 -0.5343 -0.0513
   35CGG   SI10 4282   7.877  12.254  11.161 -0.1055  0.2179 -0.2693
   35CGG   SI11 4283   8.410  12.532  10.803  0.1858  0.0729 -0.1149
   35CGG   SI12 4284   8.366  12.828  10.830  0.2928 -0.0690 -0.0310
   35CGG   SI45 4285   8.241  11.241  11.140  0.2444  0.0846  0.4777
   35CGG   SI46 4286   8.165  11.838  11.198 -0.0816  0.3005  0.2904
   35CGG   SI47 4287   8.219  12.064  10.666 -0.3111  0.2006 -0.2077
   35CGG   SI48 4288   8.290  11.458  10.617  0.0627  0.1053  0.3039
   35CGG   SI49 4289   7.941  11.654  11.108  0.6170  0.1124 -0.1738
   35CGG   SI50 4290   7.978  11.362  11.077 -0.1064  0.0082  0.1142
   35CGG   SI51 4291   8.520  11.633  10.709  0.0935  0.3203  0.1332
   35CGG   SI52 4292   8.478  11.920  10.732  0.0389 -0.5593 -0.2903
   35CGG   SI85 4293   8.353  10.340  11.053  0.1610  0.3452  0.3420
   35CGG   SI86 4294   8.278  10.942  11.118  0.0955 -0.3180  0.1457
   35CGG   SI87 4295   8.320  11.164  10.591 -0.0359 -0.4939  0.2116
   35CGG   SI88 4296   8.389  10.566  10.533 -0.0605  0.0119  0.3168
   35CGG   SI89 4297   8.047  10.761  11.023 -0.1339 -0.0102  0.0956
   35CGG   SI90 4298   8.093  10.469  10.989  0.2675 -0.1026  0.1258
   35CGG   SI91 4299   8.627  10.742  10.626 -0.1085 -0.1090 -0.3607
   35CGG   SI92 4300   8.579  11.036  10.659 -0.0408  0.0103  0.3481
   36CGG    AL1 4301   7.693  12.866  10.919 -0.0689  0.0041 -0.0704
   36CGG    AL2 4302   7.541  12.109  10.771  0.1027  0.3492  0.2173
   36CGG    AL3 4303   7.504  12.404  10.804 -0.2042  0.0410  0.3466
   36CGG    AL4 4304   7.739  12.578  10.890  0.4515  0.2502  0.1702
   36CGG   AL41 4305   7.821  11.973  10.822  0.5812 -0.1170 -0.0251
   36CGG   AL42 4306   7.663  11.218  10.680  0.1769  0.2345 -0.0024
   36CGG   AL43 4307   7.623  11.508  10.705  0.6259 -0.4135 -0.2020
   36CGG   AL44 4308   7.851  11.684  10.798  0.4804 -0.1658  0.1453
   36CGG   AL81 4309   7.921  11.090  10.738  0.0515 -0.5157 -0.5291
   36CGG   AL82 4310   7.758  10.330  10.587 -0.0968 -0.2705  0.1999
   36CGG   AL83 4311   7.726  10.620  10.618  0.2248 -0.0039  0.1278
   36CGG   AL84 4312   7.954  10.796  10.712 -0.4486  0.1350 -0.0898
   36CGG    SI5 4313   7.643  12.078  11.066  0.4687  0.4573  0.0202
   36CGG    SI6 4314   7.571  12.664  11.145  0.4458 -0.4099 -0.4288
   36CGG    SI7 4315   7.597  12.898  10.617 -0.2943 -0.2580  0.1524
   36CGG    SI8 4316   7.678  12.308  10.556 -0.1362  0.2891  0.4700
   36CGG    SI9 4317   7.333  12.496  11.050 -0.0275  0.2280 -0.2462
   36CGG   SI10 4318   7.374  12.201  11.022  0.1142 -0.5653 -0.0742
   36CGG   SI11 4319   7.917  12.488  10.642 -0.0189 -0.2131 -0.4423
   36CGG   SI12 4320   7.862  12.773  10.667 -0.2172  0.1362  0.0464
   36CGG   SI45 4321   7.751  11.188  10.987  0.0340 -0.2080  0.1580
   36CGG   SI46 4322   7.680  11.787  11.043 -0.3687 -0.0561 -0.0843
   36CGG   SI47 4323   7.720  12.008  10.519  0.3166 -0.2291  0.1588
   36CGG   SI48 4324   7.789  11.409  10.459 -0.1041  0.0572  0.6582
   36CGG   SI49 4325   7.450  11.608  10.953  0.1018 -0.0196  0.4349
   36CGG   SI50 4326   7.491  11.314  10.929  0.0707 -0.4299  0.2269
   36CGG   SI51 4327   8.024  11.583  10.552  0.0159 -0.1706 -0.1445
   36CGG   SI52 4328   7.982  11.875  10.576 -0.0298 -0.0653  0.5494
   36CGG   SI85 4329   7.854  10.296  10.892 -0.2489  0.1449 -0.2039
   36CGG   SI86 4330   7.785  10.889  10.959 -0.0096 -0.2718  0.7510
   36CGG   SI87 4331   7.833  11.115  10.436 -0.0160 -0.0437  0.2510
   36CGG   SI88 4332   7.898  10.523  10.372  0.1370  0.0800  0.1434
   36CGG   SI89 4333   7.550  10.709  10.860  0.1046 -0.7426 -0.8811
   36CGG   SI90 4334   7.591  10.419  10.835 -0.1934 -0.1907 -0.3567
   36CGG   SI91 4335   8.134  10.696  10.472 -0.6010 -0.2340  0.0003
   36CGG   SI92 4336   8.088  10.991  10.501  0.4430  0.2951  0.1664
   37CGG    AL1 4337   7.205  12.825  10.769 -0.1955  0.3944 -0.0133
   37CGG    AL2 4338   7.046  12.059  10.619 -0.5680  0.0925 -0.2898
   37CGG    AL3 4339   7.013  12.356  10.652 -0.3768 -0.3157  0.2038
   37CGG    AL4 4340   7.241  12.527  10.746 -0.0968 -0.0703  0.6960
   37CGG   AL41 4341   7.326  11.928  10.681  0.7337  0.0856  0.3269
   37CGG   AL42 4342   7.169  11.166  10.533 -0.0927  0.1759 -0.4396
   37CGG   AL43 4343   7.129  11.465  10.561  0.2107 -0.4416  0.2081
   37CGG   AL44 4344   7.354  11.637  10.643  0.3504 -0.0873  0.0205
   37CGG   AL81 4345   7.428  11.045  10.589  0.2497  0.2364  0.3361
   37CGG   AL82 4346   7.273  10.278  10.440 -0.1320 -0.1667  0.2124
   37CGG   AL83 4347   7.231  10.574  10.470 -0.2040 -0.0308  0.1030
   37CGG   AL84 4348   7.461  10.751  10.561 -0.4048 -0.0633 -0.0677
   37CGG    SI5 4349   7.160  12.034  10.923  0.0172 -0.0759  0.1279
   37CGG    SI6 4350   7.073  12.631  10.997 -0.3807 -0.5600 -0.1633
   37CGG    SI7 4351   7.115  12.851  10.461 -0.1539 -0.0180 -0.0807
   37CGG    SI8 4352   7.180  12.260  10.396  0.4754 -0.3190  0.0905
   37CGG    SI9 4353   6.848  12.450  10.906  0.1629 -0.2316  0.5852
   37CGG   SI10 4354   6.896  12.158  10.872  0.1567 -0.2651  0.2154
   37CGG   SI11 4355   7.415  12.428  10.501  0.2913 -0.3817  0.2285
   37CGG   SI12 4356   7.374  12.719  10.524 -0.1671 -0.0554  0.1770
   37CGG   SI45 4357   7.267  11.141  10.839  0.2675 -0.6525 -0.1351
   37CGG   SI46 4358   7.189  11.738  10.899  0.6094 -0.3718 -0.2743
   37CGG   SI47 4359   7.225  11.967  10.375  0.5936  0.0583  0.1276
   37CGG   SI48 4360   7.294  11.368  10.314 -0.0263  0.0961  0.6430
   37CGG   SI49 4361   6.952  11.561  10.803  0.1586  0.0149  0.3668
   37CGG   SI50 4362   7.005  11.273  10.781  0.0739  0.0481  0.0136
   37CGG   SI51 4363   7.531  11.543  10.401 -0.1249 -0.4190 -0.2627
   37CGG   SI52 4364   7.491  11.831  10.431  0.1439  0.0181 -0.1901
   37CGG   SI85 4365   7.365  10.259  10.745 -0.4926  0.5898 -0.0859
   37CGG   SI86 4366   7.297  10.848  10.809 -0.0245 -0.6119  0.6222
   37CGG   SI87 4367   7.344  11.074  10.285 -0.2103  0.3125 -0.2742
   37CGG   SI88 4368   7.401  10.480  10.217  0.7234  0.0964 -0.2938
   37CGG   SI89 4369   7.057  10.671  10.715 -0.3098 -0.3871  0.3035
   37CGG   SI90 4370   7.105  10.376  10.688  0.0607  0.1948  0.1452
   37CGG   SI91 4371   7.638  10.651  10.308 -0.2144 -0.2989  0.0398
   37CGG   SI92 4372   7.604  10.947  10.342  0.1936  0.1241 -0.2556
   38CGG    AL1 4373   6.710  12.775  10.618 -0.1348  0.6558  0.1750
   38CGG    AL2 4374   6.558  12.016  10.469 -0.1383 -0.6277 -0.0176
   38CGG    AL3 4375   6.521  12.316  10.504  0.0563  0.1178 -0.0587
   38CGG    AL4 4376   6.751  12.481  10.600 -0.4757  0.1437  0.0674
   38CGG   AL41 4377   6.823  11.882  10.523  0.5352  0.1277  0.1289
   38CGG   AL42 4378   6.683  11.135  10.376  0.2027  0.5821  0.1614
   38CGG   AL43 4379   6.640  11.422  10.414 -0.1179  0.1832 -0.3512
   38CGG   AL44 4380   6.860  11.594  10.496 -0.3478 -0.2377 -0.0988
   38CGG   AL81 4381   6.936  10.994  10.437  0.0193 -0.0674 -0.3582
   38CGG   AL82 4382   6.786  10.243  10.281 -0.4637 -0.0832  0.2027
   38CGG   AL83 4383   6.743  10.529  10.308  0.3089  0.3836 -0.4227
   38CGG   AL84 4384   6.969  10.701  10.404 -0.3202 -0.1273 -0.0479
   38CGG    SI5 4385   6.658  11.982  10.771  0.1529 -0.0761 -0.2778
   38CGG    SI6 4386   6.584  12.580  10.843 -0.4000 -0.1646  0.1975
   38CGG    SI7 4387   6.620  12.804  10.312 -0.1112  0.2669 -0.2374
   38CGG    SI8 4388   6.684  12.213  10.245  0.0368  0.5120 -0.1115
   38CGG    SI9 4389   6.346  12.398  10.757 -0.0769 -0.3679 -0.2755
   38CGG   SI10 4390   6.396  12.112  10.725  0.1365 -0.0004 -0.0957
   38CGG   SI11 4391   6.917  12.384  10.344 -0.1347 -0.3171 -0.2715
   38CGG   SI12 4392   6.877  12.672  10.375 -0.2871 -0.0861  0.0742
   38CGG   SI45 4393   6.772  11.095  10.685 -0.5628  0.1464  0.2496
   38CGG   SI46 4394   6.693  11.693  10.747 -0.0345  0.0419  0.1393
   38CGG   SI47 4395   6.734  11.921  10.220 -0.4369  0.0338  0.1922
   38CGG   SI48 4396   6.804  11.328  10.157  0.3529  0.1304 -0.1156
   38CGG   SI49 4397   6.463  11.509  10.651  0.1178  0.1093  0.1148
   38CGG   SI50 4398   6.518  11.220  10.627 -0.2871  0.0794  0.0475
   38CGG   SI51 4399   7.034  11.499  10.256 -0.0543 -0.1887  0.2495
   38CGG   SI52 4400   6.993  11.793  10.279  0.2662  0.0502  0.6276
   38CGG   SI85 4401   6.880  10.204  10.581 -0.2122 -0.1858  0.0799
   38CGG   SI86 4402   6.800  10.799  10.655 -0.1086  0.1976  0.0815
   38CGG   SI87 4403   6.847  11.032  10.131  0.0526  0.4060 -0.0136
   38CGG   SI88 4404   6.909  10.438  10.056 -0.5201 -0.3140  0.1706
   38CGG   SI89 4405   6.567  10.625  10.554  0.1542  0.1870 -0.1755
   38CGG   SI90 4406   6.612  10.331  10.522  0.4927 -0.0392 -0.3331
   38CGG   SI91 4407   7.144  10.604  10.166 -0.0561  0.4584 -0.3101
   38CGG   SI92 4408   7.108  10.893  10.183 -0.1136  0.2435 -0.2235
   39CGG    AL1 4409   6.215  12.720  10.467  0.0880 -0.1544  0.4563
   39CGG    AL2 4410   6.067  11.971  10.334 -0.1076  0.2825  0.0251
   39CGG    AL3 4411   6.024  12.269  10.356 -0.1839  0.2769 -0.1244
   39CGG    AL4 4412   6.259  12.429  10.450 -0.1242 -0.4661 -0.2181
   39CGG   AL41 4413   6.337  11.834  10.376  0.3576  0.4408  0.0840
   39CGG   AL42 4414   6.177  11.085  10.223 -0.2149  0.1020 -0.2636
   39CGG   AL43 4415   6.146  11.384  10.259 -0.0052  0.2951 -0.6186
   39CGG   AL44 4416   6.378  11.554  10.347 -0.1618  0.1884  0.1338
   39CGG   AL81 4417   6.451  10.958  10.269  0.0392 -0.2720  0.1604
   39CGG   AL82 4418   6.285  10.199  10.125 -0.4390  0.1561  0.5318
   39CGG   AL83 4419   6.251  10.486  10.152  0.2159 -0.1556  0.4682
   39CGG   AL84 4420   6.481  10.662  10.249 -0.4127 -0.1696 -0.1010
   39CGG    SI5 4421   6.169  11.935  10.630 -0.3203 -0.2562 -0.0085
   39CGG    SI6 4422   6.091  12.537  10.695  0.0469 -0.4000 -0.1099
   39CGG    SI7 4423   6.108  12.757  10.166  0.4511 -0.2258  0.4854
   39CGG    SI8 4424   6.191  12.172  10.111  0.4026 -0.0588 -0.1535
   39CGG    SI9 4425   5.855  12.361  10.607  0.1611  0.3220 -0.0586
   39CGG   SI10 4426   5.909  12.069  10.580  0.2669 -0.4992 -0.3548
   39CGG   SI11 4427   6.427  12.342  10.200 -0.0816  0.2571 -0.2006
   39CGG   SI12 4428   6.385  12.627  10.226  0.0470 -0.2396 -0.1067
   39CGG   SI45 4429   6.293  11.065  10.525  0.0507  0.2518  0.2047
   39CGG   SI46 4430   6.212  11.643  10.606  0.1571  0.1272  0.1661
   39CGG   SI47 4431   6.239  11.879  10.074  0.2258  0.0183 -0.2297
   39CGG   SI48 4432   6.308  11.286  10.008 -0.1135  0.2654  0.2762
   39CGG   SI49 4433   5.974  11.469  10.509 -0.1971 -0.2200 -0.4132
   39CGG   SI50 4434   6.021  11.181  10.479 -0.3814  0.2289 -0.0329
   39CGG   SI51 4435   6.543  11.456  10.102  0.1050  0.0425 -0.3700
   39CGG   SI52 4436   6.503  11.746  10.127 -0.1806 -0.3619  0.2397
   39CGG   SI85 4437   6.384  10.165  10.428 -0.1014  0.1721 -0.5098
   39CGG   SI86 4438   6.318  10.771  10.492 -0.1561  0.1962  0.1187
   39CGG   SI87 4439   6.352  10.989   9.970 -0.2314 -0.5200 -0.5610
   39CGG   SI88 4440   6.421  10.392   9.905  0.2527  0.5729  0.2547
   39CGG   SI89 4441   6.082  10.590  10.402 -0.8564  0.1013  0.2610
   39CGG   SI90 4442   6.121  10.288  10.378  0.0158 -0.7038 -0.0328
   39CGG   SI91 4443   6.652  10.568  10.000  0.1538 -0.0651  0.1437
   39CGG   SI92 4444   6.619  10.863  10.028 -0.1224 -0.2197 -0.5235
   40CGG    AL1 4445   5.717  12.673  10.325  0.0691 -0.3135 -0.2000
   40CGG    AL2 4446   5.570  11.920  10.191  0.1740 -0.2017  0.0640
   40CGG    AL3 4447   5.531  12.212  10.221 -0.3994 -0.1473 -0.0168
   40CGG    AL4 4448   5.757  12.386  10.303 -0.1343 -0.2457 -0.4005
   40CGG   AL41 4449   5.844  11.803  10.237  0.4959  0.3008 -0.1362
   40CGG   AL42 4450   5.694  11.035  10.066  0.0374 -0.1648  0.0564
   40CGG   AL43 4451   5.658  11.323  10.116 -0.0456  0.4222  0.0419
   40CGG   AL44 4452   5.884  11.503  10.202  0.2684  0.2215 -0.0549
   40CGG   AL81 4453   5.954  10.905  10.116 -0.0929  0.0160 -0.2116
   40CGG   AL82 4454   5.792  10.147   9.971 -0.2928  0.0611  0.0478
   40CGG   AL83 4455   5.756  10.456   9.988  0.3348 -0.5101 -0.0197
   40CGG   AL84 4456   5.989  10.619  10.091  0.3525  0.2341  0.6383
   40CGG    SI5 4457   5.682  11.895  10.490  0.5343 -0.1414  0.5858
   40CGG    SI6 4458   5.591  12.482  10.548 -0.1150 -0.1170 -0.0617
   40CGG    SI7 4459   5.600  12.709  10.033 -0.1883  0.0021  0.3446
   40CGG    SI8 4460   5.680  12.112   9.960 -0.3941 -0.2644 -0.1960
   40CGG    SI9 4461   5.344  12.311  10.452 -0.5606  0.0154 -0.2066
   40CGG   SI10 4462   5.414  12.019  10.449  0.2701 -0.1880 -0.0269
   40CGG   SI11 4463   5.925  12.294  10.050  0.0452  0.1894  0.2121
   40CGG   SI12 4464   5.871  12.588  10.075  0.2714 -0.0040  0.0256
   40CGG   SI45 4465   5.800  11.005  10.374 -0.2323 -0.0830  0.5708
   40CGG   SI46 4466   5.720  11.602  10.451  0.0438 -0.0450  0.1284
   40CGG   SI47 4467   5.737  11.836   9.933  0.3022  0.3188 -0.6246
   40CGG   SI48 4468   5.823  11.232   9.851  0.3236 -0.1273 -0.0914
   40CGG   SI49 4469   5.486  11.418  10.362  0.1291  0.0636  0.5534
   40CGG   SI50 4470   5.532  11.122  10.324 -0.3691 -0.1310 -0.1479
   40CGG   SI51 4471   6.054  11.417   9.954  0.2703  0.4997  0.2357
   40CGG   SI52 4472   6.010  11.699   9.981  0.4509 -0.2521  0.2733
   40CGG   SI85 4473   5.892  10.114  10.277  0.2695 -0.6364 -0.0801
   40CGG   SI86 4474   5.828  10.715  10.336  0.3011 -0.1302  0.4348
   40CGG   SI87 4475   5.861  10.940   9.806 -0.1292 -0.0182 -0.4456
   40CGG   SI88 4476   5.924  10.349   9.749 -0.1244 -0.0584 -0.2141
   40CGG   SI89 4477   5.587  10.559  10.230  0.3500  0.0283 -0.0931
   40CGG   SI90 4478   5.635  10.263  10.222 -0.4648 -0.1960  0.0949
   40CGG   SI91 4479   6.163  10.525   9.844 -0.0883 -0.1996  0.3540
   40CGG   SI92 4480   6.122  10.812   9.869  0.7521  0.6178  0.0008
   41CGG    AL1 4481  15.325  10.825  13.166  0.0324 -0.1455 -0.4694
   41CGG    AL2 4482  15.186  10.063  12.995 -0.0186  0.0620 -0.0360
   41CGG    AL3 4483  15.146  10.365  13.033  0.2339  0.1409 -0.2098
   41CGG    AL4 4484  15.373  10.531  13.143  0.2003 -0.1826 -0.5173
   41CGG   AL41 4485  15.443   9.948  13.071  0.2067 -0.5464  0.0836
   41CGG   AL42 4486  15.292   9.165  12.914 -0.0241 -0.0952 -0.0698
   41CGG   AL43 4487  15.265   9.470  12.942  0.3002  0.0456  0.0685
   41CGG   AL44 4488  15.480   9.648  13.037 -0.0413 -0.1456 -0.0670
   41CGG   AL81 4489  15.553   9.032  12.984 -0.3155 -0.2179 -0.1690
   41CGG   AL82 4490  15.392   8.272  12.814  0.0467  0.0365 -0.2639
   41CGG   AL83 4491  15.370   8.564  12.857  0.4422  0.3557 -0.0978
   41CGG   AL84 4492  15.585   8.739  12.961 -0.0779  0.1273  0.1200
   41CGG    SI5 4493  15.265  10.041  13.308 -0.4309 -0.3681  0.1153
   41CGG    SI6 4494  15.186  10.625  13.382 -0.3146 -0.6597  0.0638
   41CGG    SI7 4495  15.257  10.859  12.860  0.2406  0.1787  0.0186
   41CGG    SI8 4496  15.326  10.270  12.788  0.1463 -0.2355  0.0765
   41CGG    SI9 4497  14.956  10.454  13.272 -0.0509 -0.2280  0.1837
   41CGG   SI10 4498  15.010  10.166  13.240 -0.1642  0.1585 -0.0371
   41CGG   SI11 4499  15.550  10.444  12.896 -0.2147 -0.0814 -0.6707
   41CGG   SI12 4500  15.523  10.733  12.941  0.1343 -0.4317  0.1284
   41CGG   SI45 4501  15.370   9.135  13.225 -0.0799 -0.0150  0.2954
   41CGG   SI46 4502  15.311   9.754  13.277 -0.2565  0.2498 -0.0648
   41CGG   SI47 4503  15.366   9.976  12.753 -0.0594 -0.4599  0.1809
   41CGG   SI48 4504  15.443   9.358  12.704 -0.2096 -0.3620 -0.6573
   41CGG   SI49 4505  15.082   9.566  13.182 -0.0023 -0.2606  0.3899
   41CGG   SI50 4506  15.117   9.278  13.150 -0.1955 -0.2227 -0.1032
   41CGG   SI51 4507  15.669   9.545  12.810 -0.0214 -0.0209  0.0777
   41CGG   SI52 4508  15.627   9.842  12.824  0.1154 -0.1615 -0.5932
   41CGG   SI85 4509  15.470   8.231  13.121  0.5414 -0.2394  0.4023
   41CGG   SI86 4510  15.398   8.841  13.191  0.2420  0.1202 -0.0352
   41CGG   SI87 4511  15.488   9.068  12.677  0.3520  0.1124  0.2009
   41CGG   SI88 4512  15.547   8.466  12.616  0.1220  0.2076 -0.1860
   41CGG   SI89 4513  15.172   8.659  13.092 -0.4912 -0.3948  0.0212
   41CGG   SI90 4514  15.216   8.367  13.055 -0.6489  0.0675  0.2806
   41CGG   SI91 4515  15.773   8.626  12.734  0.6171 -0.2087  0.2922
   41CGG   SI92 4516  15.736   8.929  12.748  0.1826 -0.0334 -0.3617
   42CGG    AL1 4517  14.849  10.786  12.985  0.1451 -0.1447 -0.0777
   42CGG    AL2 4518  14.702  10.028  12.819  0.7030 -0.6691 -0.5302
   42CGG    AL3 4519  14.670  10.313  12.851 -0.3526 -0.3498  0.1512
   42CGG    AL4 4520  14.888  10.493  12.958  0.3672  0.0234 -0.4978
   42CGG   AL41 4521  14.967   9.884  12.883  0.3982  0.2312 -0.0033
   42CGG   AL42 4522  14.816   9.123  12.730  0.4933  0.4504  0.0108
   42CGG   AL43 4523  14.781   9.427  12.764 -0.0720 -0.0003 -0.2201
   42CGG   AL44 4524  15.006   9.596  12.867 -0.1793  0.0823  0.0200
   42CGG   AL81 4525  15.074   8.989  12.807 -0.0850 -0.4657 -0.1104
   42CGG   AL82 4526  14.921   8.233  12.635  0.3887 -0.0668  0.2042
   42CGG   AL83 4527  14.888   8.534  12.669  0.0888 -0.4542  0.0724
   42CGG   AL84 4528  15.106   8.699  12.779 -0.3953  0.1373 -0.3932
   42CGG    SI5 4529  14.782   9.993  13.122 -0.3094  0.0136 -0.3226
   42CGG    SI6 4530  14.710  10.593  13.194  0.0056  0.2967 -0.1511
   42CGG    SI7 4531  14.766  10.822  12.676 -0.0984 -0.4161  0.3142
   42CGG    SI8 4532  14.848  10.225  12.610  0.1395  0.6454 -0.0602
   42CGG    SI9 4533  14.486  10.415  13.087  0.3624 -0.2205 -0.3192
   42CGG   SI10 4534  14.525  10.123  13.058 -0.3054 -0.5659 -0.4221
   42CGG   SI11 4535  15.069  10.399  12.720  0.1972  0.5430 -0.0311
   42CGG   SI12 4536  15.023  10.689  12.747 -0.3562  0.2023 -0.4118
   42CGG   SI45 4537  14.899   9.098  13.039  0.0017  0.1802  0.2907
   42CGG   SI46 4538  14.824   9.692  13.103  0.0469  0.2043  0.0853
   42CGG   SI47 4539  14.882   9.928  12.580 -0.2441 -0.2738  0.3053
   42CGG   SI48 4540  14.959   9.325  12.522  0.3824 -0.2501  0.2396
   42CGG   SI49 4541  14.596   9.517  13.004  0.2825  0.1708  0.7497
   42CGG   SI50 4542  14.635   9.220  12.971 -0.1060 -0.1956 -0.1940
   42CGG   SI51 4543  15.187   9.497  12.633 -0.1395  0.2394  0.3584
   42CGG   SI52 4544  15.140   9.793  12.649 -0.2214  0.1543 -0.1993
   42CGG   SI85 4545  14.989   8.196  12.946 -0.1432  0.3732  0.4808
   42CGG   SI86 4546  14.926   8.798  13.023  0.1512  0.9841 -0.1979
   42CGG   SI87 4547  14.996   9.029  12.490 -0.1916 -0.1733  0.2141
   42CGG   SI88 4548  15.064   8.430  12.430 -0.6217 -0.0522  0.1154
   42CGG   SI89 4549  14.698   8.629  12.904  0.4439 -0.1514 -0.0162
   42CGG   SI90 4550  14.738   8.335  12.874 -0.1494  0.3595 -0.0342
   42CGG   SI91 4551  15.296   8.602  12.547  0.0919 -0.1217 -0.0942
   42CGG   SI92 4552  15.256   8.896  12.569  0.0464  0.5364  0.0132
   43CGG    AL1 4553  14.367  10.745  12.806 -0.4826 -0.0743  0.0621
   43CGG    AL2 4554  14.214   9.985  12.656  0.0925 -0.1644 -0.0321
   43CGG    AL3 4555  14.180  10.281  12.690 -0.0933  0.0195  0.1209
   43CGG    AL4 4556  14.405  10.458  12.782  0.2710  0.1556  0.0296
   43CGG   AL41 4557  14.482   9.855  12.717 -0.3966 -0.1112 -0.0667
   43CGG   AL42 4558  14.333   9.078  12.556  0.1062 -0.1855 -0.4766
   43CGG   AL43 4559  14.297   9.374  12.591  0.4849 -0.3352  0.3273
   43CGG   AL44 4560  14.516   9.555  12.693 -0.4214  0.6313 -0.2076
   43CGG   AL81 4561  14.592   8.958  12.628  0.4787 -0.2459 -0.8567
   43CGG   AL82 4562  14.437   8.190  12.456 -0.0600 -0.0959  0.0271
   43CGG   AL83 4563  14.399   8.491  12.493 -0.4888 -0.4502 -0.0779
   43CGG   AL84 4564  14.625   8.666  12.596  0.2855  0.2176 -0.0219
   43CGG    SI5 4565  14.302   9.955  12.956 -0.2345 -0.6110 -0.1280
   43CGG    SI6 4566  14.221  10.555  13.024 -0.5077  0.2848  0.8858
   43CGG    SI7 4567  14.286  10.782  12.497 -0.4166  0.8864  0.4210
   43CGG    SI8 4568  14.361  10.186  12.449  0.9857 -0.2484 -0.4811
   43CGG    SI9 4569  13.999  10.374  12.926  0.3833 -0.1143  0.1495
   43CGG   SI10 4570  14.037  10.086  12.896  0.1164 -0.2172 -0.0303
   43CGG   SI11 4571  14.591  10.360  12.547  0.1411  0.1787 -0.4472
   43CGG   SI12 4572  14.547  10.649  12.569  0.0615 -0.3590 -0.4905
   43CGG   SI45 4573  14.414   9.052  12.868  0.0585 -0.1618  0.1019
   43CGG   SI46 4574  14.340   9.659  12.932  0.3734  0.1484  0.1527
   43CGG   SI47 4575  14.398   9.888  12.410 -0.3877 -0.3252 -0.0400
   43CGG   SI48 4576  14.476   9.281  12.346  0.0946  0.3580  0.3449
   43CGG   SI49 4577  14.118   9.480  12.830  0.1916 -0.0798  0.0069
   43CGG   SI50 4578  14.158   9.181  12.795  0.3932 -0.2807 -0.1118
   43CGG   SI51 4579  14.705   9.458  12.456  0.6075 -0.3528 -0.3085
   43CGG   SI52 4580  14.663   9.757  12.478 -0.0188  0.5630 -0.7743
   43CGG   SI85 4581  14.526   8.163  12.764 -0.4226  0.1015 -0.1998
   43CGG   SI86 4582  14.446   8.762  12.837  0.0990 -0.2988 -0.5448
   43CGG   SI87 4583  14.516   8.991  12.316 -0.2913  0.2542 -0.5290
   43CGG   SI88 4584  14.586   8.390  12.247  0.0130 -0.1604 -0.6447
   43CGG   SI89 4585  14.220   8.584  12.732  0.2717 -0.3483 -0.0762
   43CGG   SI90 4586  14.263   8.292  12.703  0.2944 -0.1838 -0.0339
   43CGG   SI91 4587  14.817   8.571  12.361  0.5202  0.1136 -0.1343
   43CGG   SI92 4588  14.769   8.862  12.381 -0.2636  0.1449  0.3232
   44CGG    AL1 4589  13.874  10.701  12.635 -0.2881 -0.0784 -0.2045
   44CGG    AL2 4590  13.731   9.939  12.478 -0.3794  0.0095 -0.8085
   44CGG    AL3 4591  13.693  10.242  12.509  0.0115 -0.0976 -0.6181
   44CGG    AL4 4592  13.917  10.416  12.618  0.3716 -0.0513  0.2260
   44CGG   AL41 4593  13.994   9.805  12.546 -0.4074  0.0500 -0.2355
   44CGG   AL42 4594  13.840   9.047  12.381  0.1839  0.2626 -0.1786
   44CGG   AL43 4595  13.804   9.333  12.417  0.0135  0.3321  0.4342
   44CGG   AL44 4596  14.035   9.505  12.520 -0.5135 -0.0464  0.3751
   44CGG   AL81 4597  14.108   8.911  12.443  0.0843 -0.2763  0.1948
   44CGG   AL82 4598  13.955   8.154  12.281  0.1525 -0.2798 -0.1629
   44CGG   AL83 4599  13.924   8.453  12.311 -0.2449  0.2124 -0.2792
   44CGG   AL84 4600  14.143   8.618  12.418  0.5905  0.0414  0.3831
   44CGG    SI5 4601  13.819   9.906  12.796  0.3480  0.1122  0.1025
   44CGG    SI6 4602  13.736  10.512  12.860 -0.2910 -0.4497  0.2121
   44CGG    SI7 4603  13.800  10.726  12.326  0.4235 -0.1007  0.0700
   44CGG    SI8 4604  13.872  10.130  12.272 -0.1673  0.0564 -0.6515
   44CGG    SI9 4605  13.510  10.325  12.753  0.2269 -0.1450  0.4271
   44CGG   SI10 4606  13.554  10.033  12.720  0.0605 -0.1680 -0.3233
   44CGG   SI11 4607  14.100  10.310  12.378  0.1865  0.1235  0.1737
   44CGG   SI12 4608  14.058  10.601  12.402 -0.0668 -0.0233 -0.2973
   44CGG   SI45 4609  13.934   9.012  12.686  0.1224 -0.1482 -0.2175
   44CGG   SI46 4610  13.860   9.607  12.757 -0.1996  0.0467 -0.4364
   44CGG   SI47 4611  13.917   9.837  12.239  0.1233 -0.5769  0.1879
   44CGG   SI48 4612  13.981   9.242  12.170  0.3414 -0.2265 -0.2800
   44CGG   SI49 4613  13.625   9.435  12.650  0.1275 -0.1674 -0.7644
   44CGG   SI50 4614  13.661   9.142  12.629 -0.2368  0.4404  0.1160
   44CGG   SI51 4615  14.218   9.415  12.274 -0.2434 -0.2115  0.0539
   44CGG   SI52 4616  14.173   9.708  12.312  0.3707 -0.0484  0.0986
   44CGG   SI85 4617  14.032   8.118  12.594  0.0481 -0.0106 -0.1450
   44CGG   SI86 4618  13.964   8.714  12.659  0.1978 -0.0498 -0.0078
   44CGG   SI87 4619  14.017   8.947  12.138  0.2202  0.2816 -0.0665
   44CGG   SI88 4620  14.102   8.350  12.068  0.0652  0.0605  0.1113
   44CGG   SI89 4621  13.739   8.539  12.551 -0.1136  0.2454 -0.2973
   44CGG   SI90 4622  13.773   8.250  12.524  0.2741 -0.0586 -0.1624
   44CGG   SI91 4623  14.335   8.532  12.177 -0.2140  0.4127 -0.7504
   44CGG   SI92 4624  14.286   8.818  12.204  0.1303  0.1708 -0.3527
   45CGG    AL1 4625  13.397  10.644  12.462  0.2624  0.1901 -0.3900
   45CGG    AL2 4626  13.243   9.898  12.300 -0.1759 -0.0599 -0.2848
   45CGG    AL3 4627  13.221  10.185  12.332  0.0026 -0.0464 -0.2937
   45CGG    AL4 4628  13.437  10.361  12.441  0.0247 -0.4871  0.3526
   45CGG   AL41 4629  13.508   9.766  12.369 -0.0255 -0.2268  0.3405
   45CGG   AL42 4630  13.361   9.004  12.213  0.2372  0.7208 -0.0883
   45CGG   AL43 4631  13.327   9.300  12.247 -0.3578  0.3284  0.0168
   45CGG   AL44 4632  13.549   9.473  12.344 -0.1335  0.0238  0.5400
   45CGG   AL81 4633  13.627   8.869  12.276 -0.0031  0.0181 -0.0026
   45CGG   AL82 4634  13.459   8.111  12.113  0.0913  0.0271 -0.1137
   45CGG   AL83 4635  13.429   8.417  12.137  0.0218  0.6602  0.3609
   45CGG   AL84 4636  13.664   8.568  12.241 -0.3227 -0.2278  0.1680
   45CGG    SI5 4637  13.331   9.860  12.618 -0.0171 -0.2403  0.0772
   45CGG    SI6 4638  13.255  10.457  12.683 -0.2106 -0.3947 -0.3587
   45CGG    SI7 4639  13.328  10.678  12.154  0.2557 -0.7419  0.0579
   45CGG    SI8 4640  13.402  10.088  12.095  0.3434 -0.4633  0.2897
   45CGG    SI9 4641  13.032  10.276  12.578 -0.6578  0.2447 -0.1731
   45CGG   SI10 4642  13.072   9.991  12.548 -0.1240  0.0568 -0.1116
   45CGG   SI11 4643  13.627  10.268  12.198 -0.0497 -0.3175 -0.2412
   45CGG   SI12 4644  13.580  10.556  12.228  0.1021 -0.0891  0.5891
   45CGG   SI45 4645  13.447   8.974  12.519 -0.2238 -0.2581  0.3702
   45CGG   SI46 4646  13.363   9.573  12.579 -0.2143  0.0410 -0.3836
   45CGG   SI47 4647  13.431   9.799  12.063 -0.1012  0.3191  0.2740
   45CGG   SI48 4648  13.496   9.202  12.000  0.3804  0.4145  0.1004
   45CGG   SI49 4649  13.143   9.390  12.482  0.3303 -0.6759 -0.1631
   45CGG   SI50 4650  13.185   9.102  12.453  0.0822  0.3607  0.4828
   45CGG   SI51 4651  13.728   9.377  12.098 -0.1542 -0.0026 -0.6838
   45CGG   SI52 4652  13.693   9.671  12.128  0.2647 -0.5061  0.2453
   45CGG   SI85 4653  13.556   8.081  12.426  0.1478 -0.1919  0.0905
   45CGG   SI86 4654  13.487   8.675  12.479  0.5218 -0.5080 -0.1176
   45CGG   SI87 4655  13.544   8.913  11.963  0.3170  0.1328 -0.4013
   45CGG   SI88 4656  13.611   8.311  11.906 -0.0629 -0.3384  0.0681
   45CGG   SI89 4657  13.245   8.509  12.375  0.0961  0.3081  0.4332
   45CGG   SI90 4658  13.299   8.215  12.355  0.0296  0.3306 -0.4978
   45CGG   SI91 4659  13.848   8.488  12.002 -0.0205 -0.4949  0.0270
   45CGG   SI92 4660  13.798   8.777  12.029 -0.2922  0.3675 -0.4472
   46CGG    AL1 4661  12.914  10.612  12.288  0.2060  0.1159 -0.1416
   46CGG    AL2 4662  12.761   9.852  12.131 -0.0192 -0.0411 -0.0105
   46CGG    AL3 4663  12.734  10.152  12.171  0.0911  0.0466  0.0334
   46CGG    AL4 4664  12.961  10.316  12.270 -0.0815  0.0005 -0.1120
   46CGG   AL41 4665  13.026   9.717  12.199  0.1896  0.1239  0.6954
   46CGG   AL42 4666  12.875   8.967  12.041 -0.1536 -0.1543 -0.1301
   46CGG   AL43 4667  12.838   9.256  12.074  0.1421 -0.0139  0.1581
   46CGG   AL44 4668  13.065   9.426  12.178 -0.1332 -0.5980 -0.0113
   46CGG   AL81 4669  13.141   8.832  12.112 -0.3343 -0.1843  0.2255
   46CGG   AL82 4670  12.981   8.071  11.937 -0.5735  0.1567 -0.0750
   46CGG   AL83 4671  12.948   8.367  11.973 -0.1056  0.4739  0.1622
   46CGG   AL84 4672  13.173   8.542  12.066  0.2771  0.1635 -0.3008
   46CGG    SI5 4673  12.844   9.815  12.442 -0.3641  0.2005 -0.4218
   46CGG    SI6 4674  12.779  10.409  12.510 -0.0243  0.1035  0.7258
   46CGG    SI7 4675  12.839  10.644  11.986  0.2170  0.1539 -0.0641
   46CGG    SI8 4676  12.907  10.053  11.926  0.2855 -0.0432 -0.0208
   46CGG    SI9 4677  12.543  10.237  12.408 -0.2973 -0.2788  0.0770
   46CGG   SI10 4678  12.592   9.945  12.372  0.5672 -0.3663 -0.4466
   46CGG   SI11 4679  13.145  10.216  12.024  0.1309 -0.6259  0.2080
   46CGG   SI12 4680  13.097  10.506  12.047 -0.7240 -0.1257 -0.1479
   46CGG   SI45 4681  12.956   8.925  12.356 -0.0289  0.0045 -0.2250
   46CGG   SI46 4682  12.882   9.525  12.413  0.3090  0.0830  0.3704
   46CGG   SI47 4683  12.944   9.752  11.893  0.1473 -0.1613 -0.2529
   46CGG   SI48 4684  13.011   9.164  11.824  0.2116  0.2292 -0.3872
   46CGG   SI49 4685  12.655   9.345  12.309  0.3926 -0.1596  0.0542
   46CGG   SI50 4686  12.698   9.057  12.285 -0.1560  0.0963 -0.2567
   46CGG   SI51 4687  13.245   9.327  11.931  0.4805  0.2884 -0.3640
   46CGG   SI52 4688  13.206   9.616  11.959  0.1688 -0.1400 -0.1529
   46CGG   SI85 4689  13.070   8.038  12.249  0.1702 -0.5321 -0.4715
   46CGG   SI86 4690  12.988   8.636  12.308 -0.2589  0.2805 -0.2320
   46CGG   SI87 4691  13.053   8.868  11.799 -0.1068 -0.4610 -0.3859
   46CGG   SI88 4692  13.124   8.266  11.722  0.1005  0.1900  0.1109
   46CGG   SI89 4693  12.759   8.462  12.212 -0.1058 -0.3357 -0.1450
   46CGG   SI90 4694  12.804   8.172  12.181 -0.4313  0.1303 -0.2975
   46CGG   SI91 4695  13.355   8.441  11.828  0.1030 -0.1750 -0.1278
   46CGG   SI92 4696  13.309   8.742  11.858 -0.1687  0.3997  0.3963
   47CGG    AL1 4697  12.434  10.573  12.123  0.1591  0.2650  0.0806
   47CGG    AL2 4698  12.276   9.813  11.971  0.1822 -0.0299  0.3590
   47CGG    AL3 4699  12.238  10.111  12.000  0.1651 -0.0801  0.2183
   47CGG    AL4 4700  12.467  10.276  12.099 -0.0627  0.4944  0.2136
   47CGG   AL41 4701  12.543   9.683  12.034 -0.0130 -0.0833  0.3975
   47CGG   AL42 4702  12.374   8.929  11.878 -0.1963  0.0060 -0.1976
   47CGG   AL43 4703  12.347   9.216  11.906 -0.3362  0.1662  0.2208
   47CGG   AL44 4704  12.571   9.382  12.005 -0.0169  0.1454  0.0169
   47CGG   AL81 4705  12.654   8.799  11.935  0.1549 -0.0155  0.0403
   47CGG   AL82 4706  12.498   8.036  11.771  0.4141  0.2114  0.5105
   47CGG   AL83 4707  12.462   8.318  11.800  0.0566 -0.0888  0.1140
   47CGG   AL84 4708  12.685   8.496  11.908  0.0727  0.4493  0.0374
   47CGG    SI5 4709  12.363   9.779  12.280 -0.2374  0.1954  0.1582
   47CGG    SI6 4710  12.288  10.381  12.338  0.4720  0.4520  0.0688
   47CGG    SI7 4711  12.349  10.609  11.809 -0.5966 -0.0845 -0.3050
   47CGG    SI8 4712  12.414  10.007  11.757 -0.3784  0.0659 -0.3129
   47CGG    SI9 4713  12.057  10.217  12.239 -0.1533 -0.3042  0.1286
   47CGG   SI10 4714  12.103   9.916  12.220  0.1622 -0.2724  0.3591
   47CGG   SI11 4715  12.649  10.178  11.859  0.0820  0.2831 -0.1694
   47CGG   SI12 4716  12.609  10.480  11.881 -0.2534  0.3219  0.3234
   47CGG   SI45 4717  12.479   8.891  12.181  0.0600 -0.0288  0.5542
   47CGG   SI46 4718  12.403   9.483  12.246 -0.1508  0.0631  0.2958
   47CGG   SI47 4719  12.454   9.713  11.733 -0.2498 -0.0551 -0.0712
   47CGG   SI48 4720  12.525   9.124  11.659 -0.1290 -0.0431  0.2242
   47CGG   SI49 4721  12.169   9.316  12.144  0.1448 -0.2183  0.1695
   47CGG   SI50 4722  12.210   9.021  12.127 -0.3468  0.3274  0.1163
   47CGG   SI51 4723  12.755   9.300  11.758 -0.0465  0.1924  0.2913
   47CGG   SI52 4724  12.716   9.590  11.791  0.2062 -0.0913  0.1146
   47CGG   SI85 4725  12.588   7.996  12.081  0.2400  0.1960  0.0270
   47CGG   SI86 4726  12.507   8.597  12.149 -0.0927 -0.0572  0.0796
   47CGG   SI87 4727  12.566   8.837  11.634 -0.2193 -0.0419  0.2312
   47CGG   SI88 4728  12.637   8.229  11.561 -0.4134  0.2902 -0.0379
   47CGG   SI89 4729  12.283   8.416  12.051  0.4663 -0.0987  0.2157
   47CGG   SI90 4730  12.326   8.124  12.016 -0.4137  0.2214  0.1109
   47CGG   SI91 4731  12.869   8.405  11.669  0.1893  0.0315  0.1440
   47CGG   SI92 4732  12.831   8.697  11.697 -0.1018  0.2809  0.2708
   48CGG    AL1 4733  11.933  10.525  11.954  0.0410  0.0077 -0.1867
   48CGG    AL2 4734  11.787   9.780  11.808  0.0908 -0.2234 -0.2418
   48CGG    AL3 4735  11.751  10.064  11.832  0.4878  0.0950 -0.4438
   48CGG    AL4 4736  11.980  10.236  11.926  0.0533  0.4915 -0.7359
   48CGG   AL41 4737  12.050   9.643  11.870  0.6816 -0.4057 -0.5389
   48CGG   AL42 4738  11.894   8.886  11.708 -0.1733  0.0657  0.4161
   48CGG   AL43 4739  11.864   9.179  11.736 -0.4904 -0.3716  0.2671
   48CGG   AL44 4740  12.092   9.348  11.831 -0.1451  0.6058  0.2563
   48CGG   AL81 4741  12.154   8.751  11.774  0.0474 -0.1489  0.7397
   48CGG   AL82 4742  12.011   7.993  11.600  0.0011 -0.0730  0.1810
   48CGG   AL83 4743  11.974   8.281  11.637  0.0189 -0.1376 -0.0390
   48CGG   AL84 4744  12.202   8.456  11.739 -0.0366 -0.0757  0.1274
   48CGG    SI5 4745  11.873   9.744  12.117 -0.2315  0.0720  0.2496
   48CGG    SI6 4746  11.799  10.338  12.179  0.1648 -0.1763 -0.2253
   48CGG    SI7 4747  11.858  10.565  11.646 -0.3670 -0.6355 -0.1484
   48CGG    SI8 4748  11.931   9.973  11.594 -0.3073  0.6835 -0.2528
   48CGG    SI9 4749  11.568  10.164  12.068 -0.0829  0.1044  0.1728
   48CGG   SI10 4750  11.617   9.870  12.045  0.2894  0.1104 -0.1425
   48CGG   SI11 4751  12.164  10.139  11.690 -0.5833 -0.3167 -0.0428
   48CGG   SI12 4752  12.113  10.433  11.709  0.0744  0.2000 -0.1061
   48CGG   SI45 4753  11.982   8.845  12.016 -0.1791 -0.2170  0.6869
   48CGG   SI46 4754  11.910   9.450  12.079 -0.1068 -0.1015 -0.0895
   48CGG   SI47 4755  11.960   9.674  11.561 -0.2864  0.0712  0.0393
   48CGG   SI48 4756  12.032   9.082  11.491 -0.2105 -0.1512  0.2988
   48CGG   SI49 4757  11.688   9.276  11.979  0.0821 -0.3354  0.0985
   48CGG   SI50 4758  11.722   8.976  11.946 -0.4031  0.0120  0.2057
   48CGG   SI51 4759  12.268   9.244  11.593  0.1892 -0.0623  0.2855
   48CGG   SI52 4760  12.223   9.540  11.622  0.0694 -0.7159 -0.2147
   48CGG   SI85 4761  12.100   7.949  11.907  0.3803 -0.0047 -0.0829
   48CGG   SI86 4762  12.020   8.547  11.988 -0.2114 -0.5568 -0.0218
   48CGG   SI87 4763  12.079   8.784  11.464 -0.1178 -0.5738  0.2814
   48CGG   SI88 4764  12.144   8.191  11.390  0.0650 -0.2180 -0.0185
   48CGG   SI89 4765  11.792   8.369  11.877  0.2001  0.0812 -0.0554
   48CGG   SI90 4766  11.845   8.076  11.848  0.3743 -0.5573 -0.1982
   48CGG   SI91 4767  12.378   8.356  11.494  0.1886 -0.2079 -0.0253
   48CGG   SI92 4768  12.337   8.656  11.534  0.3544 -0.3635  0.1131
   49CGG    AL1 4769  11.457  10.487  11.788 -0.6177 -0.0114  0.0360
   49CGG    AL2 4770  11.299   9.728  11.630 -0.4117  0.2119 -0.1529
   49CGG    AL3 4771  11.264  10.037  11.660 -0.2774  0.2284  0.5048
   49CGG    AL4 4772  11.490  10.201  11.756 -0.0681  0.4973  0.0693
   49CGG   AL41 4773  11.560   9.604  11.694 -0.1169 -0.1880  0.1134
   49CGG   AL42 4774  11.418   8.843  11.543  0.3688 -0.0416  0.0745
   49CGG   AL43 4775  11.374   9.138  11.578  0.0080  0.2995  0.0066
   49CGG   AL44 4776  11.603   9.308  11.671 -0.3298  0.0246 -0.2769
   49CGG   AL81 4777  11.679   8.705  11.604  0.0086  0.0606  0.1502
   49CGG   AL82 4778  11.509   7.951  11.431 -0.3699  0.1510 -0.0593
   49CGG   AL83 4779  11.487   8.252  11.471  0.0324  0.3396 -0.1655
   49CGG   AL84 4780  11.714   8.420  11.572  0.2442 -0.2907 -0.0135
   49CGG    SI5 4781  11.396   9.706  11.938 -0.3289 -0.2647 -0.1772
   49CGG    SI6 4782  11.315  10.295  12.004  0.0588 -0.0235  0.0537
   49CGG    SI7 4783  11.370  10.528  11.476  0.4115  0.0735  0.0590
   49CGG    SI8 4784  11.434   9.928  11.416  0.1446  0.0513 -0.6537
   49CGG    SI9 4785  11.077  10.119  11.898 -0.1599 -0.4343 -0.1445
   49CGG   SI10 4786  11.126   9.833  11.874 -0.0214 -0.1080  0.2743
   49CGG   SI11 4787  11.678  10.109  11.513  0.2057  0.1119  0.0136
   49CGG   SI12 4788  11.627  10.401  11.546 -0.1886  0.7740  0.4695
   49CGG   SI45 4789  11.505   8.799  11.849  0.3857  0.1953  0.2734
   49CGG   SI46 4790  11.428   9.410  11.914  0.1216  0.3615 -0.1445
   49CGG   SI47 4791  11.479   9.636  11.386  0.1656  0.3108 -0.0660
   49CGG   SI48 4792  11.549   9.040  11.333  0.1313 -0.1399  0.3673
   49CGG   SI49 4793  11.194   9.227  11.818 -0.3835 -0.2986  0.0940
   49CGG   SI50 4794  11.245   8.927  11.787 -0.3276  0.1031 -0.1043
   49CGG   SI51 4795  11.780   9.218  11.426 -0.1133 -0.1664  0.5575
   49CGG   SI52 4796  11.740   9.509  11.459 -0.2910 -0.0833  0.1374
   49CGG   SI85 4797  11.613   7.915  11.740  0.1888 -0.1061  0.3158
   49CGG   SI86 4798  11.537   8.510  11.820  0.4726 -0.1004  0.2070
   49CGG   SI87 4799  11.601   8.751  11.298 -0.2429 -0.3639  0.0004
   49CGG   SI88 4800  11.659   8.153  11.221 -0.1223 -0.1190  0.3917
   49CGG   SI89 4801  11.302   8.341  11.716 -0.2738 -0.2396  0.3121
   49CGG   SI90 4802  11.351   8.051  11.689 -0.0708  0.0662  0.0595
   49CGG   SI91 4803  11.888   8.319  11.334  0.2964 -0.1264  0.5770
   49CGG   SI92 4804  11.854   8.615  11.361  0.0054 -0.1960 -0.0980
   50CGG    AL1 4805  10.964  10.451  11.619  0.4186  0.1143  0.1407
   50CGG    AL2 4806  10.811   9.693  11.465 -0.0159 -0.0609 -0.0036
   50CGG    AL3 4807  10.781   9.989  11.490  0.1096  0.3374  0.0380
   50CGG    AL4 4808  11.005  10.153  11.592 -0.0234  0.5214  0.1111
   50CGG   AL41 4809  11.069   9.554  11.531  0.5524 -0.3566 -0.0457
   50CGG   AL42 4810  10.924   8.792  11.375  0.0229 -0.1347  0.2204
   50CGG   AL43 4811  10.887   9.092  11.405  0.0946 -0.4568  0.2375
   50CGG   AL44 4812  11.114   9.266  11.502  0.0632  0.0623 -0.4084
   50CGG   AL81 4813  11.194   8.668  11.441  0.4609 -0.1479 -0.4275
   50CGG   AL82 4814  11.037   7.906  11.273  0.0219  0.0052  0.3565
   50CGG   AL83 4815  10.994   8.201  11.298  0.4498  0.1946 -0.2885
   50CGG   AL84 4816  11.217   8.379  11.405 -0.0751  0.2730  0.0157
   50CGG    SI5 4817  10.900   9.661  11.772 -0.1404 -0.0027  0.0357
   50CGG    SI6 4818  10.826  10.257  11.837 -0.0692 -0.0082 -0.0390
   50CGG    SI7 4819  10.879  10.474  11.319 -0.0319  0.1314  0.2739
   50CGG    SI8 4820  10.945   9.886  11.243 -0.0483 -0.3129 -0.0191
   50CGG    SI9 4821  10.604  10.078  11.742 -0.1093  0.0145  0.0705
   50CGG   SI10 4822  10.642   9.792  11.712 -0.1277 -0.0053 -0.3696
   50CGG   SI11 4823  11.189  10.059  11.347  0.1555 -0.3384  0.0560
   50CGG   SI12 4824  11.140  10.348  11.380 -0.1225 -0.1966  0.2435
   50CGG   SI45 4825  11.011   8.761  11.685 -0.1538  0.3941  0.3558
   50CGG   SI46 4826  10.945   9.364  11.752  0.2180  0.0050  0.0754
   50CGG   SI47 4827  10.991   9.592  11.220  0.1766 -0.0076  0.3043
   50CGG   SI48 4828  11.063   8.992  11.158 -0.0477 -0.0897 -0.1905
   50CGG   SI49 4829  10.715   9.192  11.649 -0.1169 -0.0472  0.0352
   50CGG   SI50 4830  10.753   8.893  11.618 -0.0459 -0.6430 -0.3521
   50CGG   SI51 4831  11.289   9.168  11.261 -0.4809 -0.3019 -0.3365
   50CGG   SI52 4832  11.242   9.462  11.284 -0.0645  0.4071 -0.7075
   50CGG   SI85 4833  11.124   7.881  11.576  0.0368  0.3631 -0.1287
   50CGG   SI86 4834  11.045   8.469  11.653 -0.1605 -0.1909  0.4238
   50CGG   SI87 4835  11.107   8.700  11.132 -0.2596  0.2358 -0.4541
   50CGG   SI88 4836  11.176   8.100  11.057  0.4648 -0.2154 -0.1868
   50CGG   SI89 4837  10.824   8.291  11.546 -0.3790  0.2977  0.2739
   50CGG   SI90 4838  10.860   8.002  11.515 -0.4161 -0.0817  0.0593
   50CGG   SI91 4839  11.401   8.281  11.164  0.3745  0.4674 -0.0883
   50CGG   SI92 4840  11.373   8.572  11.203  0.1377 -0.3445 -0.2224
   51CGG    AL1 4841  10.469  10.414  11.456 -0.1039 -0.1019 -0.3206
   51CGG    AL2 4842  10.326   9.656  11.306 -0.0483 -0.1062  0.0911
   51CGG    AL3 4843  10.293   9.952  11.339 -0.1192 -0.4842  0.1014
   51CGG    AL4 4844  10.524  10.124  11.438  0.0104 -0.1792 -0.1235
   51CGG   AL41 4845  10.588   9.519  11.368  0.0736  0.2838 -0.1086
   51CGG   AL42 4846  10.446   8.752  11.211  0.4324  0.2851  0.0989
   51CGG   AL43 4847  10.405   9.058  11.241 -0.2667  0.2332  0.0727
   51CGG   AL44 4848  10.642   9.220  11.337  0.3471  0.0776  0.1710
   51CGG   AL81 4849  10.704   8.614  11.273 -0.3520  0.0243 -0.0873
   51CGG   AL82 4850  10.547   7.869  11.108  0.2493  0.2559  0.3697
   51CGG   AL83 4851  10.504   8.166  11.136 -0.2710 -0.2973 -0.0241
   51CGG   AL84 4852  10.736   8.324  11.236  0.4295  0.1416 -0.0036
   51CGG    SI5 4853  10.420   9.624  11.616 -0.3211  0.0990  0.0823
   51CGG    SI6 4854  10.341  10.217  11.679 -0.3740 -0.0480  0.0291
   51CGG    SI7 4855  10.389  10.450  11.147 -0.5900 -0.0905  0.1383
   51CGG    SI8 4856  10.472   9.856  11.093  0.3347  0.1900  0.3640
   51CGG    SI9 4857  10.107  10.048  11.576  0.2378 -0.2251 -0.4842
   51CGG   SI10 4858  10.160   9.748  11.556  0.4636 -0.3784 -0.4256
   51CGG   SI11 4859  10.699  10.035  11.187  0.4370 -0.0138  0.3719
   51CGG   SI12 4860  10.651  10.318  11.215 -0.2584 -0.3013 -0.4597
   51CGG   SI45 4861  10.537   8.720  11.520  0.0492 -0.0556  0.1426
   51CGG   SI46 4862  10.459   9.323  11.579 -0.2344  0.2949  0.1278
   51CGG   SI47 4863  10.511   9.558  11.061  0.0376  0.3321 -0.6280
   51CGG   SI48 4864  10.574   8.952  10.997  0.1743 -0.3930  0.4290
   51CGG   SI49 4865  10.221   9.152  11.483 -0.3846  0.1808  0.0483
   51CGG   SI50 4866  10.275   8.858  11.459 -0.2254 -0.1876 -0.4586
   51CGG   SI51 4867  10.809   9.126  11.089 -0.2205 -0.0229 -0.1792
   51CGG   SI52 4868  10.770   9.420  11.121 -0.4891  0.4993  0.2539
   51CGG   SI85 4869  10.644   7.824  11.413  0.0637  0.0945 -0.1169
   51CGG   SI86 4870  10.565   8.423  11.485 -0.1731 -0.0382  0.0652
   51CGG   SI87 4871  10.625   8.658  10.965  0.2388 -0.3041  0.0561
   51CGG   SI88 4872  10.682   8.068  10.896 -0.2985 -0.3711 -0.1744
   51CGG   SI89 4873  10.333   8.256  11.379  0.0757 -0.5719  0.0958
   51CGG   SI90 4874  10.381   7.963  11.351  0.0906  0.1933 -0.3597
   51CGG   SI91 4875  10.915   8.231  10.996  0.0127  0.0478 -0.4653
   51CGG   SI92 4876  10.880   8.525  11.027 -0.5042  0.0056  0.0879
   52CGG    AL1 4877   9.982  10.371  11.298 -0.7461  0.5566 -0.2263
   52CGG    AL2 4878   9.836   9.605  11.143  0.2786  0.3598 -0.3712
   52CGG    AL3 4879   9.803   9.906  11.173  0.1037 -0.1410  0.4550
   52CGG    AL4 4880  10.021  10.077  11.272 -0.0783  0.0547  0.4231
   52CGG   AL41 4881  10.103   9.481  11.207 -0.0933  0.4105  0.0720
   52CGG   AL42 4882   9.952   8.712  11.044  0.0212 -0.4121  0.2942
   52CGG   AL43 4883   9.905   9.022  11.074 -0.2308  0.0784  0.1129
   52CGG   AL44 4884  10.134   9.189  11.171  0.1406 -0.0926 -0.2084
   52CGG   AL81 4885  10.220   8.580  11.100  0.4394  0.0625 -0.3095
   52CGG   AL82 4886  10.056   7.821  10.931  0.0667  0.2578 -0.3883
   52CGG   AL83 4887  10.029   8.125  10.964  0.0247  0.3988 -0.1972
   52CGG   AL84 4888  10.252   8.289  11.066 -0.4189 -0.0876  0.4261
   52CGG    SI5 4889   9.926   9.580  11.445 -0.1643 -0.0603 -0.2873
   52CGG    SI6 4890   9.847  10.174  11.509 -0.1125 -0.2129 -0.2095
   52CGG    SI7 4891   9.902  10.397  10.983  0.1805  0.0473 -0.4399
   52CGG    SI8 4892   9.975   9.806  10.931 -0.0070  0.4106  0.2596
   52CGG    SI9 4893   9.614   9.995  11.410 -0.1239  0.0011  0.0204
   52CGG   SI10 4894   9.660   9.699  11.374  0.0765  0.2107  0.0726
   52CGG   SI11 4895  10.208   9.984  11.030  0.4422  0.1875  0.3168
   52CGG   SI12 4896  10.156  10.273  11.051 -0.0926  0.1715  0.1362
   52CGG   SI45 4897  10.046   8.677  11.349 -0.1623  0.0365 -0.1548
   52CGG   SI46 4898   9.964   9.288  11.423  0.3370 -0.4056 -0.1019
   52CGG   SI47 4899  10.012   9.511  10.899 -0.3446  0.2219 -0.3431
   52CGG   SI48 4900  10.079   8.912  10.834 -0.0432 -0.3892 -0.2842
   52CGG   SI49 4901   9.737   9.110  11.318  0.7712 -0.3065 -0.2314
   52CGG   SI50 4902   9.777   8.817  11.285 -0.1629  0.4625 -0.8673
   52CGG   SI51 4903  10.314   9.095  10.933  0.0666  0.4012  0.1602
   52CGG   SI52 4904  10.277   9.384  10.960  0.2662 -0.2479 -0.1275
   52CGG   SI85 4905  10.155   7.788  11.243  0.0264 -0.0873  0.2838
   52CGG   SI86 4906  10.079   8.388  11.317 -0.1347  0.2736  0.2439
   52CGG   SI87 4907  10.128   8.620  10.796 -0.2846 -0.1130  0.3950
   52CGG   SI88 4908  10.196   8.019  10.723 -0.1123 -0.6302 -0.3120
   52CGG   SI89 4909   9.854   8.214  11.210 -0.4702 -0.1227  0.2429
   52CGG   SI90 4910   9.892   7.921  11.179 -0.4247 -0.1210 -0.2042
   52CGG   SI91 4911  10.432   8.196  10.825  0.9402  0.0514  0.2589
   52CGG   SI92 4912  10.389   8.488  10.855 -0.4624  0.2305  0.2120
   53CGG    AL1 4913   9.497  10.330  11.132 -0.3366 -0.2517 -0.5440
   53CGG    AL2 4914   9.339   9.559  10.974  0.2026  0.3479  0.4889
   53CGG    AL3 4915   9.311   9.856  11.002 -0.0794  0.2537 -0.0138
   53CGG    AL4 4916   9.537  10.024  11.108  0.1716 -0.1272  0.2859
   53CGG   AL41 4917   9.611   9.440  11.033 -0.2747  0.2680 -0.3966
   53CGG   AL42 4918   9.464   8.668  10.881  0.1122 -0.1102  0.2316
   53CGG   AL43 4919   9.437   8.978  10.904  0.1037  0.2053 -0.1536
   53CGG   AL44 4920   9.650   9.150  11.003 -0.0283  0.1630 -0.1822
   53CGG   AL81 4921   9.729   8.540  10.939 -0.1551  0.1390  0.3228
   53CGG   AL82 4922   9.569   7.784  10.776  0.0789  0.5564 -0.1031
   53CGG   AL83 4923   9.540   8.070  10.808 -0.3539 -0.1258 -0.1805
   53CGG   AL84 4924   9.764   8.244  10.901  0.2793  0.2381  0.3910
   53CGG    SI5 4925   9.430   9.530  11.279 -0.1893  0.4662  0.2132
   53CGG    SI6 4926   9.361  10.132  11.345  0.4564  0.0156  0.1133
   53CGG    SI7 4927   9.412  10.360  10.820 -0.5704 -0.1279  0.2305
   53CGG    SI8 4928   9.480   9.758  10.760  0.4271  0.1972  0.1433
   53CGG    SI9 4929   9.135   9.949  11.253  0.4355  0.2792  0.6736
   53CGG   SI10 4930   9.175   9.658  11.217  0.4183 -0.2445 -0.5553
   53CGG   SI11 4931   9.718   9.932  10.858 -0.2965 -0.4826  0.0802
   53CGG   SI12 4932   9.670  10.227  10.889  0.2060  0.0773 -0.0140
   53CGG   SI45 4933   9.560   8.639  11.187 -0.3306 -0.5396  0.2454
   53CGG   SI46 4934   9.479   9.240  11.255 -0.1028 -0.2135  0.1249
   53CGG   SI47 4935   9.517   9.461  10.733 -0.1621 -0.0415 -0.2565
   53CGG   SI48 4936   9.599   8.868  10.657 -0.1540 -0.1639 -0.4795
   53CGG   SI49 4937   9.254   9.062  11.152  0.2718 -0.0129  0.2195
   53CGG   SI50 4938   9.302   8.774  11.124  0.2416 -0.1177 -0.4120
   53CGG   SI51 4939   9.826   9.048  10.762 -0.0417  0.3694 -0.1236
   53CGG   SI52 4940   9.789   9.340  10.793  0.0758 -0.6937  0.4263
   53CGG   SI85 4941   9.666   7.755  11.086 -0.2135 -0.3007 -0.4535
   53CGG   SI86 4942   9.590   8.341  11.157  0.3685 -0.1530  0.0580
   53CGG   SI87 4943   9.638   8.572  10.635 -0.2242  0.1536 -0.0185
   53CGG   SI88 4944   9.706   7.974  10.570  0.2160 -0.2340  0.1126
   53CGG   SI89 4945   9.361   8.166  11.059  0.1880 -0.1886  0.1880
   53CGG   SI90 4946   9.403   7.882  11.023  0.1536  0.0077  0.2890
   53CGG   SI91 4947   9.940   8.147  10.659  0.0882 -0.4798  0.1844
   53CGG   SI92 4948   9.904   8.444  10.692  0.3200 -0.4672 -0.2746
   54CGG    AL1 4949   9.014  10.276  10.972 -0.6303 -0.3773 -0.6733
   54CGG    AL2 4950   8.852   9.512  10.816  0.0842 -0.3939 -0.3152
   54CGG    AL3 4951   8.816   9.812  10.846 -0.5875 -0.1228  0.2900
   54CGG    AL4 4952   9.044   9.980  10.943 -0.0087  0.3765  0.2499
   54CGG   AL41 4953   9.108   9.378  10.868  0.3341 -0.0293  0.0189
   54CGG   AL42 4954   8.971   8.628  10.724  0.3300 -0.0760 -0.1467
   54CGG   AL43 4955   8.930   8.922  10.753  0.1110  0.2083 -0.3883
   54CGG   AL44 4956   9.165   9.099  10.844 -0.0311  0.1963  0.4038
   54CGG   AL81 4957   9.231   8.499  10.777 -0.4193 -0.0338  0.0862
   54CGG   AL82 4958   9.074   7.731  10.615  0.0007 -0.0600  0.3088
   54CGG   AL83 4959   9.044   8.037  10.653  0.2317  0.1966  0.1042
   54CGG   AL84 4960   9.271   8.203  10.744  0.0385 -0.2789 -0.0806
   54CGG    SI5 4961   8.945   9.483  11.120 -0.0023  0.1738 -0.1982
   54CGG    SI6 4962   8.874  10.088  11.194 -0.2822  0.1917  0.0934
   54CGG    SI7 4963   8.921  10.303  10.667 -0.3534  0.1715 -0.4827
   54CGG    SI8 4964   8.983   9.704  10.598  0.0318 -0.2374  0.1285
   54CGG    SI9 4965   8.644   9.907  11.091 -0.0745  0.0531 -0.1213
   54CGG   SI10 4966   8.685   9.617  11.059 -0.1635  0.2264 -0.2123
   54CGG   SI11 4967   9.221   9.884  10.697  0.0339 -0.1168  0.1969
   54CGG   SI12 4968   9.187  10.176  10.735  0.2222  0.2849  0.2393
   54CGG   SI45 4969   9.064   8.598  11.031 -0.3846  0.6999  0.2262
   54CGG   SI46 4970   8.993   9.189  11.096  0.3197  0.5295 -0.3479
   54CGG   SI47 4971   9.025   9.416  10.563  0.3941  0.5679  0.0444
   54CGG   SI48 4972   9.102   8.828  10.507 -0.4915  0.1032  0.0575
   54CGG   SI49 4973   8.759   9.015  11.000  0.1149  0.0619  0.0639
   54CGG   SI50 4974   8.803   8.725  10.970  0.0070 -0.1542 -0.0117
   54CGG   SI51 4975   9.336   9.007  10.596 -0.2333 -0.0509  0.3081
   54CGG   SI52 4976   9.288   9.293  10.621  0.4078  0.0132 -0.0525
   54CGG   SI85 4977   9.167   7.712  10.916 -0.2741  0.2060  0.0259
   54CGG   SI86 4978   9.097   8.300  10.993  0.0827 -0.0047  0.6443
   54CGG   SI87 4979   9.143   8.534  10.473  0.2015  0.1556  0.3410
   54CGG   SI88 4980   9.207   7.933  10.396 -0.6152 -0.3838 -0.2312
   54CGG   SI89 4981   8.869   8.137  10.896 -0.1249 -0.1816  0.0216
   54CGG   SI90 4982   8.906   7.839  10.867  0.1323 -0.0410  0.0794
   54CGG   SI91 4983   9.446   8.099  10.504 -0.3466 -0.0969  0.1210
   54CGG   SI92 4984   9.406   8.402  10.531 -0.3283 -0.1059 -0.0067
   55CGG    AL1 4985   8.525  10.235  10.812 -0.2522  0.1852 -0.1368
   55CGG    AL2 4986   8.365   9.468  10.665  0.0038  0.2768 -0.1277
   55CGG    AL3 4987   8.332   9.762  10.698  0.2118 -0.3845 -0.4812
   55CGG    AL4 4988   8.557   9.939  10.781  0.3516  0.2264 -0.1361
   55CGG   AL41 4989   8.628   9.346  10.717  0.0338  0.2422 -0.1487
   55CGG   AL42 4990   8.473   8.578  10.572  0.1853  0.0468  0.1142
   55CGG   AL43 4991   8.439   8.877  10.598  0.2052 -0.0584  0.0363
   55CGG   AL44 4992   8.675   9.046  10.689  0.1397  0.1776 -0.0342
   55CGG   AL81 4993   8.744   8.463  10.619  0.8259  0.3534 -0.0477
   55CGG   AL82 4994   8.585   7.692  10.465  0.2779 -0.0096 -0.1885
   55CGG   AL83 4995   8.543   7.997  10.500  0.2724 -0.0475  0.3278
   55CGG   AL84 4996   8.777   8.174  10.589 -0.0403  0.5073  0.5902
   55CGG    SI5 4997   8.470   9.446  10.974  0.3455  0.0473 -0.2411
   55CGG    SI6 4998   8.384  10.041  11.034 -0.0743 -0.0442 -0.0956
   55CGG    SI7 4999   8.432  10.271  10.503 -0.3965  0.5695 -0.1452
   55CGG    SI8 5000   8.498   9.669  10.454  0.2612  0.2163  0.1060
   55CGG    SI9 5001   8.155   9.866  10.940  0.2982 -0.4527 -0.0026
   55CGG   SI10 5002   8.201   9.568  10.920 -0.2892 -0.3027  0.3935
   55CGG   SI11 5003   8.729   9.843  10.539  0.0679 -0.2350 -0.6565
   55CGG   SI12 5004   8.693  10.135  10.567  0.2279  0.2965 -0.1161
   55CGG   SI45 5005   8.578   8.554  10.871  0.2580  0.1251 -0.1273
   55CGG   SI46 5006   8.497   9.143  10.931  0.3392 -0.1757  0.4577
   55CGG   SI47 5007   8.543   9.377  10.416  0.8098  0.0348 -0.0003
   55CGG   SI48 5008   8.605   8.779  10.352  0.1642 -0.3225 -0.1987
   55CGG   SI49 5009   8.260   8.971  10.842  0.0520 -0.1107  0.1384
   55CGG   SI50 5010   8.311   8.681  10.814  0.2412  0.2389  0.1240
   55CGG   SI51 5011   8.844   8.956  10.446  0.1252  0.3691  0.0437
   55CGG   SI52 5012   8.805   9.250  10.472  0.2572  0.2899 -0.1897
   55CGG   SI85 5013   8.673   7.678  10.772  0.2627  0.0155  0.6866
   55CGG   SI86 5014   8.611   8.262  10.839  0.2592  0.0378  0.3684
   55CGG   SI87 5015   8.642   8.482  10.316  0.2884 -0.3982  0.0552
   55CGG   SI88 5016   8.718   7.899  10.249  0.4693 -0.4061 -0.2010
   55CGG   SI89 5017   8.374   8.090  10.740  0.2504 -0.0459 -0.0953
   55CGG   SI90 5018   8.411   7.801  10.713 -0.0612  0.0917 -0.0858
   55CGG   SI91 5019   8.951   8.074  10.343  0.2066  0.1874 -0.2497
   55CGG   SI92 5020   8.910   8.361  10.368  0.2154  0.0283  0.0958
   56CGG    AL1 5021   8.027  10.188  10.653 -0.2430 -0.2566  0.4507
   56CGG    AL2 5022   7.873   9.432  10.507  0.0988 -0.2454 -0.0867
   56CGG    AL3 5023   7.841   9.736  10.539  0.1156 -0.6673  0.0299
   56CGG    AL4 5024   8.068   9.899  10.637  0.0372  0.0625  0.2445
   56CGG   AL41 5025   8.135   9.293  10.567  0.1501 -0.0969  0.2052
   56CGG   AL42 5026   7.981   8.542  10.412  0.2982  0.5349 -0.6660
   56CGG   AL43 5027   7.952   8.839  10.443  0.0778  0.6528  0.1294
   56CGG   AL44 5028   8.171   9.006  10.534  0.0610 -0.1626  0.0736
   56CGG   AL81 5029   8.244   8.413  10.467  0.3461  0.2296  0.0065
   56CGG   AL82 5030   8.090   7.654  10.313  0.2190 -0.0659 -0.2889
   56CGG   AL83 5031   8.055   7.948  10.344 -0.0356 -0.0251 -0.1118
   56CGG   AL84 5032   8.277   8.127  10.435 -0.4089 -0.2663  0.0270
   56CGG    SI5 5033   7.968   9.395  10.815  0.0344  0.1249 -0.5859
   56CGG    SI6 5034   7.895  10.000  10.879 -0.4686 -0.1381 -0.1354
   56CGG    SI7 5035   7.941  10.225  10.347 -0.0208 -0.5635  0.4283
   56CGG    SI8 5036   8.010   9.624  10.294 -0.1158  0.1402  0.4548
   56CGG    SI9 5037   7.661   9.835  10.775 -0.1826  0.3411  0.6533
   56CGG   SI10 5038   7.704   9.532  10.753  0.4447 -0.0843  0.1552
   56CGG   SI11 5039   8.236   9.799  10.392 -0.3192 -0.0517  0.9649
   56CGG   SI12 5040   8.198  10.091  10.411 -0.4877 -0.1244 -0.5128
   56CGG   SI45 5041   8.078   8.516  10.721  0.2949  0.3111  0.4033
   56CGG   SI46 5042   7.999   9.105  10.784  0.1372 -0.2234  0.2740
   56CGG   SI47 5043   8.045   9.331  10.258 -0.3571 -0.5869 -0.1999
   56CGG   SI48 5044   8.118   8.730  10.194  0.2282 -0.0363  0.2342
   56CGG   SI49 5045   7.768   8.931  10.688  0.0298  0.2403 -0.1434
   56CGG   SI50 5046   7.815   8.642  10.657 -0.1336 -0.3702  0.3743
   56CGG   SI51 5047   8.347   8.913  10.293  0.0301  0.2352 -0.2078
   56CGG   SI52 5048   8.303   9.201  10.318 -0.0914 -0.1117  0.2124
   56CGG   SI85 5049   8.179   7.619  10.618  0.0502  0.2876  0.0795
   56CGG   SI86 5050   8.109   8.220  10.688 -0.0000 -0.0688 -0.0850
   56CGG   SI87 5051   8.155   8.441  10.163 -0.0899 -0.3855  0.2760
   56CGG   SI88 5052   8.224   7.851  10.103 -0.3649 -0.1944 -0.0343
   56CGG   SI89 5053   7.875   8.043  10.587 -0.2539 -0.4679  0.6742
   56CGG   SI90 5054   7.916   7.747  10.560 -0.1169 -0.1533  0.2902
   56CGG   SI91 5055   8.457   8.025  10.187  0.3463 -0.1306  0.2195
   56CGG   SI92 5056   8.413   8.314  10.222 -0.1093  0.1223  0.4746
   57CGG    AL1 5057   7.538  10.147  10.500 -0.4044  0.0641  0.1780
   57CGG    AL2 5058   7.387   9.392  10.340  0.3360 -0.1467  0.1283
   57CGG    AL3 5059   7.355   9.687  10.372  0.1528  0.1214  0.1542
   57CGG    AL4 5060   7.575   9.862  10.468  0.0496  0.0413 -0.0642
   57CGG   AL41 5061   7.644   9.259  10.403 -0.2100 -0.1129 -0.0071
   57CGG   AL42 5062   7.495   8.503  10.252  0.2402  0.2601  0.1927
   57CGG   AL43 5063   7.458   8.802  10.285 -0.0228  0.4508  0.2138
   57CGG   AL44 5064   7.681   8.972  10.381 -0.0155 -0.3677  0.1532
   57CGG   AL81 5065   7.756   8.368  10.313 -0.0328 -0.1657  0.2711
   57CGG   AL82 5066   7.591   7.611  10.153  0.1615  0.1517 -0.2844
   57CGG   AL83 5067   7.565   7.910  10.184  0.1724  0.3211  0.1062
   57CGG   AL84 5068   7.795   8.083  10.279  0.4631 -0.0130  0.2099
   57CGG    SI5 5069   7.481   9.357  10.651  0.1175 -0.3548 -0.0372
   57CGG    SI6 5070   7.398   9.966  10.716 -0.3251  0.4873  0.3320
   57CGG    SI7 5071   7.448  10.192  10.193  0.1807  0.0256 -0.2266
   57CGG    SI8 5072   7.523   9.587  10.123  0.2595 -0.0100  0.2823
   57CGG    SI9 5073   7.181   9.778  10.611  0.1400 -0.3416  0.2979
   57CGG   SI10 5074   7.222   9.484  10.589  0.1503 -0.1177  0.0755
   57CGG   SI11 5075   7.752   9.759  10.231  0.4135 -0.0256  0.2139
   57CGG   SI12 5076   7.708  10.057  10.254  0.2418  0.1092  0.3147
   57CGG   SI45 5077   7.588   8.473  10.559  0.0691 -0.1255  0.5554
   57CGG   SI46 5078   7.514   9.066  10.626 -0.5818  0.2732 -0.2190
   57CGG   SI47 5079   7.558   9.292  10.102 -0.3256 -0.0186  0.3089
   57CGG   SI48 5080   7.628   8.701  10.036  0.1218  0.3321 -0.4186
   57CGG   SI49 5081   7.284   8.898  10.522  0.2728  0.4377  0.0729
   57CGG   SI50 5082   7.324   8.601  10.500 -0.1764  0.0577 -0.1392
   57CGG   SI51 5083   7.859   8.872  10.141 -0.0475 -0.5362  0.3644
   57CGG   SI52 5084   7.819   9.169  10.164  0.2934 -0.0475  0.0518
   57CGG   SI85 5085   7.695   7.577  10.456  0.1432 -0.1011  0.1194
   57CGG   SI86 5086   7.617   8.176  10.525  0.0024 -0.5717 -0.1584
   57CGG   SI87 5087   7.667   8.402  10.004 -0.0300 -0.1665 -0.0037
   57CGG   SI88 5088   7.733   7.805   9.942 -0.0333  0.0319  0.1067
   57CGG   SI89 5089   7.387   8.004  10.432 -0.2361  0.0837 -0.1047
   57CGG   SI90 5090   7.432   7.712  10.403 -0.0262  0.0523 -0.2290
   57CGG   SI91 5091   7.972   7.987  10.038  0.1652  0.2416  0.0613
   57CGG   SI92 5092   7.924   8.274  10.066 -0.5666 -0.0888  0.1112
   58CGG    AL1 5093   7.045  10.112  10.329 -0.4954  0.4949 -0.0113
   58CGG    AL2 5094   6.893   9.354  10.180 -0.4458  0.1810 -0.0740
   58CGG    AL3 5095   6.853   9.657  10.210 -0.4807 -0.2828  0.0398
   58CGG    AL4 5096   7.083   9.819  10.307  0.1815  0.4356 -0.6815
   58CGG   AL41 5097   7.160   9.223  10.236 -0.0870 -0.0265 -0.1023
   58CGG   AL42 5098   6.997   8.461  10.094 -0.3869  0.1532  0.2845
   58CGG   AL43 5099   6.965   8.747  10.116  0.2173 -0.0404 -0.2047
   58CGG   AL44 5100   7.194   8.921  10.211 -0.2701 -0.4646  0.0641
   58CGG   AL81 5101   7.275   8.316  10.145 -0.1465 -0.0697  0.1953
   58CGG   AL82 5102   7.103   7.561   9.997  0.2808  0.0143 -0.2800
   58CGG   AL83 5103   7.073   7.859  10.034  0.0060  0.0375  0.3635
   58CGG   AL84 5104   7.302   8.035  10.121 -0.1629  0.6142  0.3859
   58CGG    SI5 5105   6.984   9.323  10.482 -0.0961  0.3054 -0.1879
   58CGG    SI6 5106   6.919   9.917  10.556  0.0764 -0.0266  0.0074
   58CGG    SI7 5107   6.954  10.146  10.027 -0.1403  0.0695  0.2121
   58CGG    SI8 5108   7.018   9.550   9.959 -0.1716 -0.1056 -0.0530
   58CGG    SI9 5109   6.684   9.748  10.462 -0.1764  0.1760  0.4371
   58CGG   SI10 5110   6.723   9.452  10.420 -0.0600  0.1421 -0.7658
   58CGG   SI11 5111   7.260   9.716  10.065 -0.4843 -0.2932 -0.3278
   58CGG   SI12 5112   7.217  10.015  10.087 -0.2773  0.3093 -0.2900
   58CGG   SI45 5113   7.099   8.427  10.391  0.1682  0.0801  0.1104
   58CGG   SI46 5114   7.028   9.026  10.457 -0.0694 -0.2096  0.5212
   58CGG   SI47 5115   7.067   9.250   9.928  0.2030 -0.0035 -0.4608
   58CGG   SI48 5116   7.139   8.651   9.872 -0.0838 -0.1750  0.1329
   58CGG   SI49 5117   6.798   8.845  10.361  0.4112 -0.2738 -0.0812
   58CGG   SI50 5118   6.832   8.557  10.335  0.0133  0.1434 -0.1259
   58CGG   SI51 5119   7.380   8.831   9.963 -0.4065  0.0998  0.2037
   58CGG   SI52 5120   7.329   9.121   9.991 -0.0980  0.3523  0.1772
   58CGG   SI85 5121   7.198   7.535  10.310  0.3118  0.0863  0.3256
   58CGG   SI86 5122   7.129   8.134  10.362 -0.0852  0.2390 -0.1429
   58CGG   SI87 5123   7.176   8.362   9.846  0.1562 -0.3165  0.3574
   58CGG   SI88 5124   7.242   7.758   9.782  0.4508 -0.0854  0.1102
   58CGG   SI89 5125   6.894   7.956  10.275  0.1645  0.0486  0.2209
   58CGG   SI90 5126   6.931   7.665  10.247 -0.7444 -0.1890 -0.3962
   58CGG   SI91 5127   7.475   7.930   9.870 -0.0578  0.3688  0.0060
   58CGG   SI92 5128   7.440   8.224   9.900 -0.0932  0.0133 -0.0428
   59CGG    AL1 5129   6.557  10.071  10.175 -0.0637  0.0533  0.0752
   59CGG    AL2 5130   6.399   9.305  10.033 -0.1924  0.1340  0.0974
   59CGG    AL3 5131   6.372   9.602  10.052  0.1748  0.3143 -0.3360
   59CGG    AL4 5132   6.591   9.772  10.153 -0.1121 -0.3822 -0.3115
   59CGG   AL41 5133   6.663   9.183  10.087  0.0397  0.0577  0.0124
   59CGG   AL42 5134   6.509   8.416   9.937 -0.1056  0.0873  0.0745
   59CGG   AL43 5135   6.478   8.706   9.969  0.0890 -0.5207  0.0947
   59CGG   AL44 5136   6.702   8.884  10.053  0.5467  0.0521  0.0355
   59CGG   AL81 5137   6.772   8.283  10.003 -0.3096  0.7340  0.2099
   59CGG   AL82 5138   6.613   7.523   9.848 -0.2562  0.0024  0.2088
   59CGG   AL83 5139   6.584   7.817   9.881  0.4747  0.2640  0.4836
   59CGG   AL84 5140   6.809   7.991   9.970 -0.2771  0.0496 -0.0559
   59CGG    SI5 5141   6.499   9.283  10.335  0.0479  0.1127  0.3639
   59CGG    SI6 5142   6.420   9.877  10.396  0.0260  0.0711  0.6153
   59CGG    SI7 5143   6.461  10.102   9.874  0.0639 -0.1284 -0.1993
   59CGG    SI8 5144   6.534   9.494   9.811 -0.1955  0.1343 -0.4817
   59CGG    SI9 5145   6.195   9.693  10.296 -0.0078  0.1122 -0.4856
   59CGG   SI10 5146   6.237   9.396  10.272 -0.3360  0.0080 -0.4706
   59CGG   SI11 5147   6.768   9.681   9.902 -0.3627 -0.0923 -0.0520
   59CGG   SI12 5148   6.720   9.977   9.926 -0.5818  0.0901 -0.4621
   59CGG   SI45 5149   6.596   8.381  10.248 -0.4214 -0.4680  0.1868
   59CGG   SI46 5150   6.539   8.986  10.310  0.0384  0.0487 -0.4722
   59CGG   SI47 5151   6.575   9.210   9.790  0.0975 -0.0461  0.3019
   59CGG   SI48 5152   6.646   8.611   9.722  0.5649  0.0102  0.2836
   59CGG   SI49 5153   6.303   8.815  10.211  0.0791 -0.4022 -0.1832
   59CGG   SI50 5154   6.340   8.518  10.185  0.1298 -0.3992  0.5068
   59CGG   SI51 5155   6.877   8.789   9.811 -0.4254 -0.0979 -0.0131
   59CGG   SI52 5156   6.844   9.082   9.843 -0.0242 -0.2195 -0.3019
   59CGG   SI85 5157   6.710   7.491  10.154 -0.0955 -0.2898  0.1596
   59CGG   SI86 5158   6.632   8.080  10.215  0.1487  0.1845 -0.4746
   59CGG   SI87 5159   6.692   8.314   9.696  0.4410 -0.0974 -0.1474
   59CGG   SI88 5160   6.756   7.710   9.624  0.2412 -0.4122 -0.2011
   59CGG   SI89 5161   6.404   7.907  10.124 -0.1506  0.0035  0.4849
   59CGG   SI90 5162   6.448   7.620  10.096  0.1279  0.3012  0.3840
   59CGG   SI91 5163   6.983   7.894   9.728  0.2407  0.2089 -0.2963
   59CGG   SI92 5164   6.947   8.182   9.759  0.1509 -0.5593  0.0265
   60CGG    AL1 5165   6.062  10.023  10.021  0.2871 -0.1315 -0.0757
   60CGG    AL2 5166   5.918   9.264   9.862  0.3827  0.2303  0.1345
   60CGG    AL3 5167   5.878   9.556   9.891  0.2528 -0.2347 -0.2668
   60CGG    AL4 5168   6.104   9.733   9.986 -0.0225 -0.0584  0.0490
   60CGG   AL41 5169   6.175   9.132   9.920 -0.1970 -0.0669 -0.0168
   60CGG   AL42 5170   6.031   8.368   9.772  0.1206  0.3929 -0.2414
   60CGG   AL43 5171   6.004   8.657   9.809 -0.2773 -0.1128 -0.0616
   60CGG   AL44 5172   6.224   8.841   9.901 -0.0242 -0.7990 -0.1094
   60CGG   AL81 5173   6.294   8.232   9.831  0.0811 -0.0896 -0.1563
   60CGG   AL82 5174   6.127   7.477   9.687 -0.3852  0.0973  0.0552
   60CGG   AL83 5175   6.097   7.787   9.724  0.3684  0.1235  0.0116
   60CGG   AL84 5176   6.330   7.944   9.816 -0.3391 -0.0483 -0.1657
   60CGG    SI5 5177   6.005   9.237  10.166  0.2525  0.1526 -0.2477
   60CGG    SI6 5178   5.937   9.821  10.238  0.2231 -0.4134  0.2245
   60CGG    SI7 5179   5.964  10.059   9.723 -0.2043  0.1546 -0.0482
   60CGG    SI8 5180   6.044   9.456   9.636 -0.5180  0.0587  0.0640
   60CGG    SI9 5181   5.704   9.640  10.142 -0.7097 -0.4761 -0.1717
   60CGG   SI10 5182   5.745   9.352  10.105 -0.0015 -0.0382 -0.1711
   60CGG   SI11 5183   6.278   9.636   9.748 -0.0054  0.3269  0.1582
   60CGG   SI12 5184   6.233   9.932   9.770  0.0360 -0.3467 -0.0576
   60CGG   SI45 5185   6.117   8.341  10.081  0.0780  0.4166 -0.2008
   60CGG   SI46 5186   6.035   8.944  10.137  0.2163  0.0932 -0.3249
   60CGG   SI47 5187   6.083   9.165   9.614 -0.3916 -0.2669  0.3068
   60CGG   SI48 5188   6.163   8.567   9.549 -0.2924  0.0982 -0.1231
   60CGG   SI49 5189   5.815   8.755  10.041 -0.1882 -0.0197 -0.3542
   60CGG   SI50 5190   5.855   8.462  10.025  0.1624  0.0130 -0.3577
   60CGG   SI51 5191   6.399   8.744   9.655  0.1845 -0.1041  0.0912
   60CGG   SI52 5192   6.354   9.034   9.685 -0.3934  0.2517  0.3704
   60CGG   SI85 5193   6.220   7.450   9.989 -0.1720  0.2583 -0.1855
   60CGG   SI86 5194   6.154   8.045  10.056  0.1658 -0.3380 -0.2022
   60CGG   SI87 5195   6.210   8.273   9.528 -0.2697  0.0951 -0.0364
   60CGG   SI88 5196   6.257   7.677   9.472 -0.3211 -0.0656 -0.0683
   60CGG   SI89 5197   5.914   7.867   9.970 -0.3188  0.1797  0.5556
   60CGG   SI90 5198   5.961   7.580   9.940  0.0716 -0.0257 -0.3333
   60CGG   SI91 5199   6.496   7.848   9.568 -0.0559  0.2520 -0.1525
   60CGG   SI92 5200   6.467   8.137   9.596 -0.2660  0.0061 -0.1451
   61CGG    AL1 5201  15.653   8.144  12.884  0.1337  0.0408 -0.1938
   61CGG    AL2 5202  15.510   7.376  12.709  0.2161  0.3425 -0.0240
   61CGG    AL3 5203  15.474   7.672  12.746 -0.2345  0.0131 -0.2302
   61CGG    AL4 5204  15.696   7.841  12.854  0.2613  0.4856 -0.4799
   61CGG   AL41 5205  15.781   7.249  12.777 -0.2835 -0.2945  0.3395
   61CGG   AL42 5206  15.633   6.478  12.617  0.4494  0.1003  0.4079
   61CGG   AL43 5207  15.593   6.780  12.647 -0.1009 -0.1332 -0.4041
   61CGG   AL44 5208  15.821   6.950  12.747  0.1817 -0.1122 -0.0547
   61CGG   AL81 5209  15.897   6.350  12.680  0.3359  0.5330 -0.2364
   61CGG   AL82 5210  15.749   5.586  12.489  0.3072 -0.0426 -0.3457
   61CGG   AL83 5211  15.702   5.889  12.533 -0.1485 -0.1294  0.1600
   61CGG   AL84 5212  15.928   6.055  12.642 -0.4485  0.3640  0.1827
   61CGG    SI5 5213  15.593   7.332  13.018  0.3918 -0.0291 -0.1581
   61CGG    SI6 5214  15.517   7.936  13.094  0.1110  0.0863  0.3031
   61CGG    SI7 5215  15.575   8.174  12.581 -0.0429  0.0291  0.1148
   61CGG    SI8 5216  15.650   7.576  12.499  0.4289 -0.2309 -0.5378
   61CGG    SI9 5217  15.287   7.759  12.990 -0.3212 -0.0376 -0.2368
   61CGG   SI10 5218  15.339   7.469  12.959  0.1163  0.0060 -0.1774
   61CGG   SI11 5219  15.878   7.751  12.612  0.0505  0.1787 -0.1507
   61CGG   SI12 5220  15.832   8.042  12.649 -0.2884  0.3099  0.0132
   61CGG   SI45 5221  15.716   6.442  12.921 -0.3540  0.0700 -0.0962
   61CGG   SI46 5222  15.646   7.046  12.990  0.0385  0.4319  0.0619
   61CGG   SI47 5223  15.691   7.296  12.465 -0.2314  0.0517  0.0265
   61CGG   SI48 5224  15.766   6.688  12.407 -0.3547  0.1098 -0.1116
   61CGG   SI49 5225  15.415   6.869  12.888  0.4638 -0.0908  0.5322
   61CGG   SI50 5226  15.457   6.576  12.861 -0.0968  0.1717 -0.0741
   61CGG   SI51 5227  15.999   6.867  12.504  0.1987  0.3347 -0.2790
   61CGG   SI52 5228  15.955   7.158  12.530  0.0772  0.4160 -0.1146
   61CGG   SI85 5229  15.813   5.539  12.795 -0.6894  0.2160  0.1173
   61CGG   SI86 5230  15.751   6.150  12.891 -0.2809  0.1405  0.2469
   61CGG   SI87 5231  15.819   6.398  12.376  0.1436 -0.1448 -0.1587
   61CGG   SI88 5232  15.887   5.795  12.287  0.4347  0.0983 -0.2775
   61CGG   SI89 5233  15.523   5.973  12.771  0.0014 -0.3329  0.1917
   61CGG   SI90 5234  15.565   5.677  12.731  0.1697 -0.3961  0.0057
   61CGG   SI91 5235  16.117   5.965  12.402  0.3479  0.2032  0.4076
   61CGG   SI92 5236  16.074   6.257  12.444 -0.3052 -0.2580  0.3778
   62CGG    AL1 5237  15.179   8.092  12.705 -0.0647 -0.1661  0.0461
   62CGG    AL2 5238  15.033   7.334  12.543  0.3970  0.0252  0.0891
   62CGG    AL3 5239  14.993   7.625  12.571  0.0719  0.1779 -0.8552
   62CGG    AL4 5240  15.214   7.795  12.678 -0.1602  0.1933  0.0222
   62CGG   AL41 5241  15.291   7.196  12.606  0.0227 -0.0660  0.3028
   62CGG   AL42 5242  15.143   6.436  12.432 -0.1341  0.0430 -0.6495
   62CGG   AL43 5243  15.108   6.733  12.471  0.2258 -0.1631  0.3354
   62CGG   AL44 5244  15.336   6.901  12.577 -0.0628 -0.2030 -0.0150
   62CGG   AL81 5245  15.405   6.316  12.502 -0.3239  0.0757  0.0231
   62CGG   AL82 5246  15.246   5.549  12.316  0.3438 -0.0882 -0.3820
   62CGG   AL83 5247  15.220   5.843  12.358  0.3517  0.3556 -0.0581
   62CGG   AL84 5248  15.446   6.010  12.461  0.2875 -0.0238 -0.1797
   62CGG    SI5 5249  15.114   7.299  12.852 -0.6183 -0.3610  0.6175
   62CGG    SI6 5250  15.033   7.898  12.919  0.2332 -0.0710  0.0074
   62CGG    SI7 5251  15.097   8.134  12.395 -0.0599  0.0819  0.1553
   62CGG    SI8 5252  15.173   7.524  12.338  0.0055 -0.3183  0.2640
   62CGG    SI9 5253  14.808   7.728  12.805  0.1651  0.1554  0.1407
   62CGG   SI10 5254  14.853   7.423  12.781  0.1621 -0.5010  0.1198
   62CGG   SI11 5255  15.393   7.706  12.434  0.0735 -0.2769 -0.1231
   62CGG   SI12 5256  15.350   7.998  12.465 -0.4814 -0.4307  0.3206
   62CGG   SI45 5257  15.233   6.403  12.744 -0.2960  0.0288 -0.0627
   62CGG   SI46 5258  15.155   6.997  12.820 -0.0018  0.2457  0.2563
   62CGG   SI47 5259  15.210   7.236  12.299 -0.1035 -0.3268 -0.7049
   62CGG   SI48 5260  15.281   6.642  12.219  0.0542  0.1812 -0.0536
   62CGG   SI49 5261  14.921   6.826  12.711 -0.1242  0.1626 -0.0104
   62CGG   SI50 5262  14.969   6.528  12.672  0.0094  0.2088  0.2689
   62CGG   SI51 5263  15.514   6.818  12.327 -0.4831  0.3402 -0.0785
   62CGG   SI52 5264  15.470   7.107  12.364  0.2446 -0.2576  0.0989
   62CGG   SI85 5265  15.333   5.507  12.623  0.0692 -0.5204 -0.0430
   62CGG   SI86 5266  15.268   6.107  12.709 -0.3291 -0.4356  0.1548
   62CGG   SI87 5267  15.323   6.344  12.189  0.2192 -0.2348  0.0740
   62CGG   SI88 5268  15.389   5.749  12.117  0.3908 -0.0252 -0.2919
   62CGG   SI89 5269  15.034   5.927  12.605 -0.2115 -0.2444  0.4660
   62CGG   SI90 5270  15.081   5.641  12.562 -0.1948 -0.1795 -0.7598
   62CGG   SI91 5271  15.623   5.927  12.226 -0.3351 -0.1858 -0.1667
   62CGG   SI92 5272  15.588   6.220  12.262 -0.1339 -0.0335 -0.5659
   63CGG    AL1 5273  14.699   8.063  12.520  0.1302 -0.0051 -0.0824
   63CGG    AL2 5274  14.540   7.283  12.377 -0.0979  0.0686  0.6170
   63CGG    AL3 5275  14.509   7.592  12.405 -0.0495  0.0994 -0.3678
   63CGG    AL4 5276  14.734   7.772  12.497  0.0882 -0.3131  0.5721
   63CGG   AL41 5277  14.812   7.155  12.432 -0.0779 -0.1555 -0.0904
   63CGG   AL42 5278  14.664   6.403  12.262  0.3701 -0.0270 -0.1030
   63CGG   AL43 5279  14.625   6.697  12.299  0.3529 -0.2953  0.0120
   63CGG   AL44 5280  14.854   6.871  12.401  0.2864  0.2876 -0.1394
   63CGG   AL81 5281  14.917   6.268  12.327  0.0662 -0.0038  0.2735
   63CGG   AL82 5282  14.771   5.515  12.156  0.0265  0.6825  0.1231
   63CGG   AL83 5283  14.733   5.808  12.189  0.0470 -0.0346  0.1297
   63CGG   AL84 5284  14.959   5.976  12.293  0.3522  0.1192 -0.0815
   63CGG    SI5 5285  14.634   7.255  12.681 -0.2122 -0.2421 -0.2347
   63CGG    SI6 5286  14.562   7.866  12.738  0.0384  0.0741 -0.1736
   63CGG    SI7 5287  14.619   8.105  12.214 -0.1083  0.3549  0.0418
   63CGG    SI8 5288  14.681   7.491  12.158 -0.0856  0.1221  0.1044
   63CGG    SI9 5289  14.332   7.691  12.641  0.1024  0.0635 -0.1574
   63CGG   SI10 5290  14.373   7.391  12.618  0.1296  0.0553  0.0539
   63CGG   SI11 5291  14.919   7.661  12.260  0.2380 -0.2343  0.0931
   63CGG   SI12 5292  14.876   7.965  12.278 -0.2623  0.1264 -0.2939
   63CGG   SI45 5293  14.749   6.363  12.574  0.2638 -0.0767 -0.2174
   63CGG   SI46 5294  14.674   6.967  12.647 -0.1147 -0.4039 -0.0292
   63CGG   SI47 5295  14.719   7.196  12.126  0.1233 -0.1450  0.0942
   63CGG   SI48 5296  14.797   6.606  12.043  0.0315 -0.1598 -0.4078
   63CGG   SI49 5297  14.443   6.799  12.537  0.2557 -0.0228  0.2551
   63CGG   SI50 5298  14.490   6.506  12.513 -0.0642  0.0995  0.6064
   63CGG   SI51 5299  15.028   6.781  12.160  0.2506 -0.3717  0.0403
   63CGG   SI52 5300  14.989   7.070  12.193  0.1473  0.2397  0.3842
   63CGG   SI85 5301  14.862   5.479  12.459 -0.5984 -0.1113  0.1255
   63CGG   SI86 5302  14.784   6.068  12.536 -0.1801 -0.0485 -0.2768
   63CGG   SI87 5303  14.845   6.316  12.013 -0.0423  0.2261  0.1786
   63CGG   SI88 5304  14.904   5.713  11.944  0.4622  0.1681 -0.1285
   63CGG   SI89 5305  14.548   5.897  12.434 -0.4828 -0.0628 -0.2285
   63CGG   SI90 5306  14.599   5.608  12.402 -0.5004  0.3826  0.1542
   63CGG   SI91 5307  15.135   5.885  12.048  0.3730 -0.0039 -0.4008
   63CGG   SI92 5308  15.095   6.179  12.089 -0.2107 -0.0214  0.1256
   64CGG    AL1 5309  14.210   8.022  12.352 -0.1498  0.4293  0.2109
   64CGG    AL2 5310  14.058   7.256  12.199  0.1359 -0.2941  0.1050
   64CGG    AL3 5311  14.023   7.548  12.224 -0.1171 -0.4708 -0.3717
   64CGG    AL4 5312  14.248   7.726  12.332 -0.0476  0.1503  0.1892
   64CGG   AL41 5313  14.310   7.115  12.266 -0.4726 -0.4472  0.0750
   64CGG   AL42 5314  14.172   6.359  12.092  0.2209 -0.1176  0.1891
   64CGG   AL43 5315  14.131   6.658  12.123  0.3278  0.7508 -0.3404
   64CGG   AL44 5316  14.349   6.828  12.237 -0.2800  0.0454 -0.0529
   64CGG   AL81 5317  14.428   6.231  12.158  0.0556 -0.4900 -0.1144
   64CGG   AL82 5318  14.292   5.475  11.985 -0.0610  0.3529  0.4047
   64CGG   AL83 5319  14.251   5.772  12.022  0.1922  0.4817  0.0019
   64CGG   AL84 5320  14.473   5.942  12.129  0.3123  0.0493  0.1418
   64CGG    SI5 5321  14.142   7.218  12.509  0.2978 -0.0316 -0.3768
   64CGG    SI6 5322  14.077   7.830  12.572  0.0080  0.3279  0.1037
   64CGG    SI7 5323  14.133   8.051  12.045  0.2573 -0.2781 -0.1051
   64CGG    SI8 5324  14.201   7.452  11.989 -0.6661 -0.4144 -0.3898
   64CGG    SI9 5325  13.844   7.653  12.465 -0.6230  0.0351 -0.4448
   64CGG   SI10 5326  13.879   7.357  12.440  0.0480  0.0092 -0.3177
   64CGG   SI11 5327  14.432   7.625  12.095  0.5467  0.1161  0.2454
   64CGG   SI12 5328  14.393   7.923  12.112 -0.0391  0.0299  0.5432
   64CGG   SI45 5329  14.256   6.326  12.407  0.2704  0.4197  0.0112
   64CGG   SI46 5330  14.172   6.929  12.475 -0.1400 -0.2265  0.0858
   64CGG   SI47 5331  14.240   7.157  11.959  0.1125 -0.2144 -0.1851
   64CGG   SI48 5332  14.309   6.564  11.881  0.2814  0.3878 -0.1063
   64CGG   SI49 5333  13.946   6.741  12.369  0.0197 -0.2207 -0.2867
   64CGG   SI50 5334  13.992   6.452  12.337  0.2417  0.3119 -0.0657
   64CGG   SI51 5335  14.532   6.734  11.995 -0.4198 -0.4197 -0.1667
   64CGG   SI52 5336  14.493   7.019  12.024 -0.0927 -0.3003  0.3258
   64CGG   SI85 5337  14.368   5.438  12.295  0.1312 -0.0673  0.0274
   64CGG   SI86 5338  14.295   6.034  12.370  0.0163 -0.0115  0.1538
   64CGG   SI87 5339  14.351   6.273  11.847 -0.1281  0.5115  0.2406
   64CGG   SI88 5340  14.430   5.680  11.774 -0.0153  0.2761  0.2616
   64CGG   SI89 5341  14.060   5.862  12.261  0.0088  0.1982 -0.2359
   64CGG   SI90 5342  14.107   5.570  12.233  0.3128  0.3713  0.6352
   64CGG   SI91 5343  14.655   5.852  11.881 -0.0297 -0.4467  0.3036
   64CGG   SI92 5344  14.612   6.141  11.920  0.3635  0.0427  0.3214
   65CGG    AL1 5345  13.735   7.976  12.182 -0.3676  0.0308 -0.3298
   65CGG    AL2 5346  13.575   7.218  12.019  0.4210  0.1034 -0.2143
   65CGG    AL3 5347  13.545   7.509  12.055  0.2684 -0.4919  0.0018
   65CGG    AL4 5348  13.772   7.688  12.158  0.2770  0.2893  0.3739
   65CGG   AL41 5349  13.833   7.082  12.088 -0.1965 -0.0437  0.5238
   65CGG   AL42 5350  13.684   6.324  11.920  0.0404 -0.2339  0.0121
   65CGG   AL43 5351  13.648   6.633  11.946  0.3111 -0.2064 -0.4105
   65CGG   AL44 5352  13.877   6.789  12.052 -0.2673  0.4070  0.3764
   65CGG   AL81 5353  13.948   6.187  11.984  0.2560 -0.0469 -0.0848
   65CGG   AL82 5354  13.810   5.435  11.820  0.0264 -0.4076 -0.3196
   65CGG   AL83 5355  13.764   5.727  11.841  0.3500 -0.4073  0.0969
   65CGG   AL84 5356  13.986   5.897  11.949 -0.3234  0.4299  0.1674
   65CGG    SI5 5357  13.661   7.186  12.330  0.1285 -0.1648 -0.0926
   65CGG    SI6 5358  13.593   7.788  12.403 -0.0803 -0.0215 -0.0219
   65CGG    SI7 5359  13.652   8.023  11.880  0.2347  0.2118 -0.1008
   65CGG    SI8 5360  13.722   7.409  11.812 -0.1535 -0.3318 -0.3897
   65CGG    SI9 5361  13.360   7.615  12.293  0.1977  0.0008 -0.2070
   65CGG   SI10 5362  13.404   7.319  12.267  0.0074 -0.1384  0.5370
   65CGG   SI11 5363  13.951   7.587  11.920 -0.2058 -0.3243  0.2206
   65CGG   SI12 5364  13.912   7.883  11.938  0.4294  0.1871  0.1108
   65CGG   SI45 5365  13.768   6.288  12.231 -0.4969  0.5295 -0.0573
   65CGG   SI46 5366  13.702   6.888  12.299  0.0912  0.2092 -0.1647
   65CGG   SI47 5367  13.754   7.115  11.779 -0.5273  0.1971  0.0211
   65CGG   SI48 5368  13.824   6.529  11.703  0.0592  0.2918 -0.3660
   65CGG   SI49 5369  13.469   6.724  12.189  0.5413 -0.1384  0.0080
   65CGG   SI50 5370  13.510   6.427  12.165 -0.5110  0.1683  0.0620
   65CGG   SI51 5371  14.055   6.698  11.811 -0.3203 -0.1037 -0.1941
   65CGG   SI52 5372  14.017   6.994  11.845  0.4325  0.1238 -0.3791
   65CGG   SI85 5373  13.879   5.400  12.135 -0.3712 -0.1283 -0.2297
   65CGG   SI86 5374  13.807   5.986  12.189  0.0476 -0.1917 -0.5070
   65CGG   SI87 5375  13.869   6.237  11.675  0.2731 -0.4371  0.3912
   65CGG   SI88 5376  13.942   5.633  11.600  0.2767 -0.3701  0.2465
   65CGG   SI89 5377  13.575   5.816  12.080 -0.0486  0.1951 -0.3613
   65CGG   SI90 5378  13.618   5.524  12.054 -0.1392 -0.0221  0.5698
   65CGG   SI91 5379  14.168   5.809  11.709  0.3829 -0.2342 -0.2556
   65CGG   SI92 5380  14.130   6.102  11.739 -0.0822  0.0040 -0.2461
   66CGG    AL1 5381  13.239   7.936  12.008  0.3594 -0.1337  0.3591
   66CGG    AL2 5382  13.094   7.180  11.836  0.5541  0.0302 -0.1489
   66CGG    AL3 5383  13.062   7.465  11.877  0.0351 -0.5019 -0.1924
   66CGG    AL4 5384  13.285   7.634  11.977 -0.0606 -0.0764 -0.4154
   66CGG   AL41 5385  13.353   7.048  11.910 -0.2344 -0.0915  0.4530
   66CGG   AL42 5386  13.198   6.288  11.741  0.1948  0.0889 -0.1408
   66CGG   AL43 5387  13.161   6.590  11.770  0.3159  0.2150  0.0878
   66CGG   AL44 5388  13.393   6.750  11.875 -0.2054 -0.1698  0.0676
   66CGG   AL81 5389  13.465   6.155  11.810  0.0118  0.4033 -0.0596
   66CGG   AL82 5390  13.310   5.404  11.614  0.0409  0.1044 -0.4232
   66CGG   AL83 5391  13.285   5.696  11.662 -0.1038 -0.1357 -0.1103
   66CGG   AL84 5392  13.502   5.862  11.774  0.0610  0.2806  0.3336
   66CGG    SI5 5393  13.175   7.146  12.153 -0.2711 -0.1555  0.1010
   66CGG    SI6 5394  13.101   7.742  12.225 -0.0799  0.0805  0.0869
   66CGG    SI7 5395  13.162   7.972  11.698  0.1681  0.0585  0.1537
   66CGG    SI8 5396  13.241   7.377  11.627  0.0408 -0.0348 -0.1179
   66CGG    SI9 5397  12.877   7.554  12.118  0.3391 -0.5224 -0.1838
   66CGG   SI10 5398  12.924   7.269  12.085  0.1923 -0.2869 -0.0453
   66CGG   SI11 5399  13.473   7.546  11.736  0.0745 -0.0847 -0.0937
   66CGG   SI12 5400  13.426   7.840  11.768  0.0245  0.2515 -0.0698
   66CGG   SI45 5401  13.282   6.256  12.051  0.1370  0.4132  0.3351
   66CGG   SI46 5402  13.211   6.850  12.115  0.0090  0.0347 -0.1186
   66CGG   SI47 5403  13.275   7.080  11.596  0.3583  0.2791 -0.4169
   66CGG   SI48 5404  13.338   6.484  11.533 -0.0533 -0.1877  0.3403
   66CGG   SI49 5405  12.977   6.679  12.012  0.3640 -0.2739 -0.1094
   66CGG   SI50 5406  13.021   6.377  11.979 -0.3129  0.0201  0.0323
   66CGG   SI51 5407  13.572   6.658  11.636 -0.0297  0.3897 -0.3110
   66CGG   SI52 5408  13.531   6.945  11.667  0.3362  0.0665  0.4628
   66CGG   SI85 5409  13.393   5.344  11.932 -0.0208 -0.2974 -0.1387
   66CGG   SI86 5410  13.325   5.954  12.013 -0.2279 -0.4698  0.3489
   66CGG   SI87 5411  13.378   6.189  11.506  0.1794  0.4685 -0.0392
   66CGG   SI88 5412  13.459   5.607  11.426 -0.2008  0.0382 -0.0682
   66CGG   SI89 5413  13.095   5.784  11.908 -0.0551 -0.0910 -0.2309
   66CGG   SI90 5414  13.139   5.490  11.869  0.3102 -0.5161 -0.2836
   66CGG   SI91 5415  13.686   5.779  11.534 -0.0985  0.0832  0.0724
   66CGG   SI92 5416  13.647   6.066  11.562  0.1575 -0.3414 -0.2043
   67CGG    AL1 5417  12.761   7.898  11.838  0.2164 -0.1576 -0.0669
   67CGG    AL2 5418  12.603   7.137  11.668  0.2015 -0.1651  0.1421
   67CGG    AL3 5419  12.566   7.428  11.710 -0.4423 -0.3205 -0.1810
   67CGG    AL4 5420  12.793   7.596  11.812  0.1600 -0.2240  0.5622
   67CGG   AL41 5421  12.872   7.010  11.733  0.2071  0.2373  0.0103
   67CGG   AL42 5422  12.712   6.251  11.564  0.1145 -0.1032  0.0733
   67CGG   AL43 5423  12.681   6.540  11.601 -0.1876 -0.2651 -0.3127
   67CGG   AL44 5424  12.899   6.718  11.701  0.3300 -0.3786 -0.1082
   67CGG   AL81 5425  12.981   6.121  11.631  0.4067 -0.1188  0.1546
   67CGG   AL82 5426  12.824   5.363  11.459 -0.0456  0.3756  0.0407
   67CGG   AL83 5427  12.790   5.643  11.498  0.2597  0.0501 -0.2110
   67CGG   AL84 5428  13.013   5.823  11.598 -0.0248  0.4426  0.1300
   67CGG    SI5 5429  12.697   7.107  11.977  0.1895 -0.0207  0.1932
   67CGG    SI6 5430  12.625   7.702  12.055  0.0092  0.4089 -0.0577
   67CGG    SI7 5431  12.678   7.930  11.532 -0.5879 -0.1868 -0.0351
   67CGG    SI8 5432  12.746   7.334  11.462  0.4021 -0.4995  0.2443
   67CGG    SI9 5433  12.396   7.524  11.953  0.0116  0.2562  0.6630
   67CGG   SI10 5434  12.434   7.230  11.917  0.5084 -0.0371 -0.0639
   67CGG   SI11 5435  12.976   7.507  11.567 -0.1364  0.4714  0.3402
   67CGG   SI12 5436  12.938   7.796  11.593  0.2617  0.3312 -0.0948
   67CGG   SI45 5437  12.798   6.218  11.874 -0.1420 -0.3637  0.1274
   67CGG   SI46 5438  12.722   6.815  11.947 -0.3962  0.1206  0.1815
   67CGG   SI47 5439  12.789   7.041  11.424 -0.0059 -0.2434  0.3613
   67CGG   SI48 5440  12.854   6.441  11.351 -0.2895  0.1357  0.0048
   67CGG   SI49 5441  12.503   6.633  11.842  0.0395  0.0375 -0.0872
   67CGG   SI50 5442  12.542   6.347  11.812 -0.1305  0.4445  0.1690
   67CGG   SI51 5443  13.081   6.619  11.457 -0.0008  0.0684 -0.1685
   67CGG   SI52 5444  13.048   6.913  11.487 -0.3870  0.1955 -0.2048
   67CGG   SI85 5445  12.921   5.316  11.766  0.0170 -0.2751 -0.0316
   67CGG   SI86 5446  12.842   5.920  11.843 -0.0622 -0.0504 -0.2206
   67CGG   SI87 5447  12.889   6.154  11.324 -0.6616  0.3701  0.1114
   67CGG   SI88 5448  12.969   5.562  11.246 -0.0034  0.3669 -0.0021
   67CGG   SI89 5449  12.608   5.737  11.740  0.3954  0.0920  0.0162
   67CGG   SI90 5450  12.657   5.446  11.709  0.1358  0.3099 -0.1158
   67CGG   SI91 5451  13.202   5.734  11.358  0.0457 -0.0664 -0.3558
   67CGG   SI92 5452  13.151   6.023  11.397 -0.0973  0.0681  0.2542
   68CGG    AL1 5453  12.280   7.855  11.673 -0.1912 -0.0395  0.5003
   68CGG    AL2 5454  12.110   7.086  11.499 -0.0359 -0.1100  0.3279
   68CGG    AL3 5455  12.087   7.396  11.539  0.1645 -0.0601 -0.3946
   68CGG    AL4 5456  12.310   7.562  11.637  0.0176  0.0982 -0.3693
   68CGG   AL41 5457  12.377   6.953  11.558 -0.0029 -0.3208 -0.2608
   68CGG   AL42 5458  12.220   6.200  11.401 -0.7002 -0.2037 -0.1023
   68CGG   AL43 5459  12.190   6.501  11.434  0.0327  0.3137  0.3173
   68CGG   AL44 5460  12.420   6.666  11.533 -0.0086 -0.0932  0.5305
   68CGG   AL81 5461  12.492   6.073  11.466  0.3071 -0.2372  0.1031
   68CGG   AL82 5462  12.336   5.294  11.298 -0.3074  0.0480 -0.1191
   68CGG   AL83 5463  12.309   5.602  11.331  0.2779 -0.2919  0.0208
   68CGG   AL84 5464  12.532   5.775  11.431  0.1943 -0.1111 -0.1371
   68CGG    SI5 5465  12.210   7.052  11.804 -0.1544  0.2078 -0.3732
   68CGG    SI6 5466  12.137   7.658  11.882 -0.3579  0.1577 -0.6186
   68CGG    SI7 5467  12.185   7.898  11.362  0.2388 -0.0025  0.0066
   68CGG    SI8 5468  12.246   7.288  11.287 -0.0175  0.0809 -0.2559
   68CGG    SI9 5469  11.904   7.483  11.778  0.2488 -0.0937  0.1510
   68CGG   SI10 5470  11.953   7.192  11.750 -0.2260 -0.3863  0.5508
   68CGG   SI11 5471  12.484   7.468  11.397  0.0135  0.1142  0.1054
   68CGG   SI12 5472  12.444   7.761  11.425  0.1054  0.4321  0.4765
   68CGG   SI45 5473  12.311   6.175  11.710 -0.2118 -0.1814 -0.0930
   68CGG   SI46 5474  12.241   6.760  11.777 -0.3187  0.4333  0.0404
   68CGG   SI47 5475  12.293   6.997  11.252 -0.1500  0.3931 -0.0600
   68CGG   SI48 5476  12.367   6.398  11.191 -0.0671 -0.4056  0.1447
   68CGG   SI49 5477  12.006   6.593  11.672 -0.0772 -0.5035  0.0820
   68CGG   SI50 5478  12.053   6.303  11.647 -0.1037  0.0733 -0.4842
   68CGG   SI51 5479  12.602   6.577  11.292 -0.0849 -0.0367  0.2949
   68CGG   SI52 5480  12.555   6.869  11.316 -0.0994  0.2997  0.1645
   68CGG   SI85 5481  12.422   5.262  11.611  0.2142 -0.4058 -0.0837
   68CGG   SI86 5482  12.353   5.874  11.680 -0.2701 -0.2579 -0.1178
   68CGG   SI87 5483  12.400   6.099  11.160 -0.2416 -0.2693  0.1314
   68CGG   SI88 5484  12.479   5.503  11.091  0.3752 -0.0479  0.2276
   68CGG   SI89 5485  12.125   5.696  11.569 -0.4442 -0.0844 -0.1631
   68CGG   SI90 5486  12.168   5.404  11.544  0.3221 -0.0221  0.3025
   68CGG   SI91 5487  12.706   5.688  11.186  0.2795 -0.0874  0.3527
   68CGG   SI92 5488  12.662   5.978  11.221  0.0106  0.1143 -0.2150
   69CGG    AL1 5489  11.780   7.818  11.492  0.3353  0.1406 -0.1583
   69CGG    AL2 5490  11.627   7.057  11.339 -0.0657  0.2762  0.3049
   69CGG    AL3 5491  11.590   7.348  11.372 -0.2370 -0.5761  0.0632
   69CGG    AL4 5492  11.822   7.528  11.468  0.6108 -0.1421 -0.1756
   69CGG   AL41 5493  11.894   6.920  11.395  0.4134 -0.2595  0.4295
   69CGG   AL42 5494  11.741   6.163  11.236  0.1035 -0.4370  0.2059
   69CGG   AL43 5495  11.697   6.458  11.263 -0.3762  0.3098  0.2390
   69CGG   AL44 5496  11.923   6.628  11.363  0.5460 -0.0031 -0.0526
   69CGG   AL81 5497  12.000   6.024  11.294  0.0821 -0.2465 -0.2603
   69CGG   AL82 5498  11.840   5.274  11.125 -0.2261  0.4385 -0.1332
   69CGG   AL83 5499  11.818   5.564  11.166  0.0138 -0.0726  0.0574
   69CGG   AL84 5500  12.045   5.728  11.266  0.2496 -0.0447 -0.0523
   69CGG    SI5 5501  11.724   7.029  11.643 -0.3711 -0.4529 -0.4408
   69CGG    SI6 5502  11.649   7.618  11.709  0.1858 -0.4530  0.1414
   69CGG    SI7 5503  11.704   7.860  11.188  0.2077  0.5428  0.1241
   69CGG    SI8 5504  11.763   7.261  11.124  0.4111 -0.1117 -0.6024
   69CGG    SI9 5505  11.416   7.452  11.611 -0.3982 -0.0559  0.3017
   69CGG   SI10 5506  11.463   7.154  11.588  0.1301 -0.3428 -0.2915
   69CGG   SI11 5507  12.001   7.435  11.230  0.2763  0.1629  0.3414
   69CGG   SI12 5508  11.965   7.730  11.259 -0.0604  0.2606  0.1463
   69CGG   SI45 5509  11.834   6.127  11.544 -0.1812  0.1321  0.3057
   69CGG   SI46 5510  11.753   6.736  11.613  0.1950  0.2964  0.2020
   69CGG   SI47 5511  11.797   6.972  11.084 -0.0137  0.2172  0.1889
   69CGG   SI48 5512  11.878   6.363  11.017 -0.0496  0.5367 -0.3623
   69CGG   SI49 5513  11.528   6.558  11.514 -0.3115  0.3752 -0.0509
   69CGG   SI50 5514  11.574   6.259  11.481  0.0326  0.0704 -0.0976
   69CGG   SI51 5515  12.104   6.531  11.117  0.2024  0.0165 -0.0882
   69CGG   SI52 5516  12.060   6.824  11.145  0.1904 -0.5795 -0.1607
   69CGG   SI85 5517  11.942   5.244  11.432  0.3669 -0.2536 -0.0510
   69CGG   SI86 5518  11.872   5.839  11.514 -0.3979  0.8979  0.0157
   69CGG   SI87 5519  11.918   6.069  10.982  0.4921  0.0733 -0.2142
   69CGG   SI88 5520  11.986   5.465  10.919  0.0547 -0.0834  0.1084
   69CGG   SI89 5521  11.639   5.658  11.414 -0.5492 -0.0050 -0.1589
   69CGG   SI90 5522  11.680   5.369  11.381 -0.0756  0.3277 -0.1972
   69CGG   SI91 5523  12.223   5.634  11.016 -0.0573  0.1755 -0.2252
   69CGG   SI92 5524  12.182   5.927  11.050  0.1801 -0.1762  0.4097
   70CGG    AL1 5525  11.298   7.773  11.330  0.3443  0.1403  0.5223
   70CGG    AL2 5526  11.134   7.014  11.173  0.5517 -0.0999  0.0530
   70CGG    AL3 5527  11.109   7.314  11.213 -0.2435 -0.0769 -0.0531
   70CGG    AL4 5528  11.334   7.492  11.302  0.2499 -0.1006 -0.0318
   70CGG   AL41 5529  11.404   6.882  11.227  0.4337 -0.5877 -0.1553
   70CGG   AL42 5530  11.250   6.128  11.082 -0.2000  0.0237  0.2191
   70CGG   AL43 5531  11.221   6.412  11.112  0.1800 -0.2213  0.0620
   70CGG   AL44 5532  11.450   6.589  11.204  0.1837 -0.0808  0.2392
   70CGG   AL81 5533  11.515   5.988  11.134 -0.4024 -0.0180 -0.4018
   70CGG   AL82 5534  11.359   5.229  10.973  0.2131  0.0285 -0.2048
   70CGG   AL83 5535  11.322   5.530  11.015 -0.0457  0.3260  0.2499
   70CGG   AL84 5536  11.555   5.694  11.108  0.1694  0.3916 -0.0547
   70CGG    SI5 5537  11.232   6.979  11.477  0.1108 -0.2775  0.1686
   70CGG    SI6 5538  11.160   7.588  11.558 -0.0490  0.1646 -0.0280
   70CGG    SI7 5539  11.208   7.810  11.022 -0.4782  0.0479 -0.2415
   70CGG    SI8 5540  11.274   7.217  10.967 -0.3264  0.0322 -0.1556
   70CGG    SI9 5541  10.929   7.407  11.451  0.0641 -0.0778 -0.1746
   70CGG   SI10 5542  10.968   7.116  11.422 -0.2126  0.3773  0.2367
   70CGG   SI11 5543  11.510   7.394  11.058  0.2028 -0.0505  0.1559
   70CGG   SI12 5544  11.470   7.685  11.083 -0.3626  0.3131 -0.2832
   70CGG   SI45 5545  11.339   6.087  11.388 -0.6274  0.1347  0.5119
   70CGG   SI46 5546  11.275   6.692  11.447  0.8998  0.1017  0.0552
   70CGG   SI47 5547  11.305   6.921  10.928 -0.2690 -0.0878  0.1557
   70CGG   SI48 5548  11.390   6.316  10.862  0.2500  0.5914 -0.0823
   70CGG   SI49 5549  11.040   6.512  11.350 -0.1845  0.0004  0.1033
   70CGG   SI50 5550  11.082   6.218  11.324 -0.0825 -0.2520  0.0531
   70CGG   SI51 5551  11.622   6.498  10.954  0.4211 -0.0677  0.0233
   70CGG   SI52 5552  11.571   6.792  10.982  0.1657 -0.2039 -0.0184
   70CGG   SI85 5553  11.453   5.196  11.278 -0.2206 -0.0328  0.0969
   70CGG   SI86 5554  11.385   5.790  11.357 -0.2753 -0.2140  0.1135
   70CGG   SI87 5555  11.418   6.019  10.832 -0.5310 -0.0070  0.0983
   70CGG   SI88 5556  11.488   5.430  10.760  0.0352  0.2791 -0.0580
   70CGG   SI89 5557  11.149   5.619  11.263  0.6254 -0.0605  0.1471
   70CGG   SI90 5558  11.187   5.324  11.222 -0.0537  0.4535  0.0362
   70CGG   SI91 5559  11.729   5.595  10.862 -0.1149 -0.1448  0.3386
   70CGG   SI92 5560  11.684   5.888  10.891  0.4448 -0.0668  0.0592
   71CGG    AL1 5561  10.815   7.729  11.171  0.6195 -0.2627  0.2823
   71CGG    AL2 5562  10.648   6.970  11.010  0.0224 -0.1167  0.1529
   71CGG    AL3 5563  10.618   7.271  11.041  0.0038 -0.0073 -0.1662
   71CGG    AL4 5564  10.849   7.434  11.145  0.1836  0.2886  0.2516
   71CGG   AL41 5565  10.916   6.845  11.070 -0.2591  0.1115 -0.0530
   71CGG   AL42 5566  10.760   6.085  10.923  0.0015 -0.2857 -0.0228
   71CGG   AL43 5567  10.728   6.387  10.954 -0.2398 -0.1119 -0.1144
   71CGG   AL44 5568  10.960   6.554  11.048  0.2276 -0.2726  0.1535
   71CGG   AL81 5569  11.028   5.945  10.980  0.2199 -0.1380  0.0798
   71CGG   AL82 5570  10.872   5.202  10.824  0.1084 -0.1179 -0.2280
   71CGG   AL83 5571  10.832   5.489  10.858 -0.2650  0.0560  0.2169
   71CGG   AL84 5572  11.068   5.658  10.955 -0.0707 -0.4567 -0.3412
   71CGG    SI5 5573  10.746   6.944  11.317 -0.3434 -0.1291 -0.3218
   71CGG    SI6 5574  10.676   7.538  11.387 -0.0468 -0.1712  0.0493
   71CGG    SI7 5575  10.731   7.775  10.866  0.1015  0.7363 -0.1422
   71CGG    SI8 5576  10.786   7.174  10.793 -0.0704  0.0789  0.0385
   71CGG    SI9 5577  10.441   7.368  11.279 -0.0462  0.0905 -0.2376
   71CGG   SI10 5578  10.486   7.075  11.263  0.0695  0.0963 -0.1815
   71CGG   SI11 5579  11.022   7.345  10.902 -0.2213 -0.2079  0.2977
   71CGG   SI12 5580  10.988   7.637  10.929 -0.2716 -0.3622  0.0504
   71CGG   SI45 5581  10.856   6.050  11.227 -0.0424 -0.2866  0.4168
   71CGG   SI46 5582  10.788   6.650  11.298  0.1036  0.1992  0.0363
   71CGG   SI47 5583  10.826   6.880  10.765  0.1314 -0.1142 -0.1306
   71CGG   SI48 5584  10.897   6.279  10.706 -0.0815 -0.0340  0.2004
   71CGG   SI49 5585  10.553   6.483  11.198 -0.1898  0.2174  0.0989
   71CGG   SI50 5586  10.605   6.191  11.172 -0.0916  0.0150  0.1894
   71CGG   SI51 5587  11.126   6.450  10.804 -0.2104  0.2710  0.2993
   71CGG   SI52 5588  11.085   6.744  10.821 -0.1695 -0.4067 -0.2878
   71CGG   SI85 5589  10.955   5.159  11.127 -0.0622 -0.2962 -0.1361
   71CGG   SI86 5590  10.892   5.756  11.200 -0.4209  0.4191  0.2920
   71CGG   SI87 5591  10.935   5.985  10.675  0.2808 -0.0049  0.1893
   71CGG   SI88 5592  11.006   5.394  10.609 -0.0166  0.4134 -0.0891
   71CGG   SI89 5593  10.658   5.587  11.100  0.0611  0.2530  0.1752
   71CGG   SI90 5594  10.695   5.292  11.059 -0.0673  0.1674  0.1154
   71CGG   SI91 5595  11.235   5.565  10.709 -0.3788  0.0781  0.0509
   71CGG   SI92 5596  11.199   5.856  10.731  0.0896 -0.4930  0.2312
   72CGG    AL1 5597  10.322   7.697  11.003  0.1315 -0.1587  0.3854
   72CGG    AL2 5598  10.159   6.935  10.856  0.0659  0.2735  0.2653
   72CGG    AL3 5599  10.128   7.231  10.877  0.1890 -0.0281 -0.1229
   72CGG    AL4 5600  10.356   7.400  10.969  0.1404 -0.0649 -0.3112
   72CGG   AL41 5601  10.421   6.800  10.914 -0.3583  0.5772 -0.3566
   72CGG   AL42 5602  10.269   6.043  10.767 -0.0544  0.4689 -0.0923
   72CGG   AL43 5603  10.243   6.337  10.800  0.3109 -0.0125  0.1171
   72CGG   AL44 5604  10.464   6.514  10.895  0.1903 -0.5947 -0.1465
   72CGG   AL81 5605  10.534   5.905  10.828  0.1519 -0.3625  0.2466
   72CGG   AL82 5606  10.363   5.140  10.665 -0.5356 -0.2775  0.0224
   72CGG   AL83 5607  10.342   5.447  10.702 -0.4828 -0.1346 -0.0410
   72CGG   AL84 5608  10.565   5.616  10.790  0.3683 -0.1217 -0.2620
   72CGG    SI5 5609  10.257   6.904  11.164 -0.0359 -0.0474  0.4364
   72CGG    SI6 5610  10.183   7.500  11.224 -0.2618 -0.1317  0.2709
   72CGG    SI7 5611  10.237   7.724  10.699  0.6639 -0.3092 -0.0045
   72CGG    SI8 5612  10.298   7.124  10.635 -0.3192 -0.2254 -0.1484
   72CGG    SI9 5613   9.943   7.331  11.121  0.1832 -0.1060  0.1954
   72CGG   SI10 5614   9.987   7.036  11.106 -0.3150 -0.0614  0.2518
   72CGG   SI11 5615  10.532   7.307  10.729  0.1976  0.3496 -0.0772
   72CGG   SI12 5616  10.501   7.599  10.761 -0.0438  0.3613 -0.4604
   72CGG   SI45 5617  10.367   6.016  11.076  0.3727  0.4687  0.2939
   72CGG   SI46 5618  10.293   6.614  11.140  0.0395  0.3915 -0.2009
   72CGG   SI47 5619  10.332   6.830  10.613  0.0946  0.0163 -0.1348
   72CGG   SI48 5620  10.408   6.236  10.548 -0.0228 -0.1644  0.1190
   72CGG   SI49 5621  10.061   6.441  11.043 -0.1319  0.4906 -0.3744
   72CGG   SI50 5622  10.100   6.140  11.013 -0.5016 -0.2742 -0.2361
   72CGG   SI51 5623  10.640   6.408  10.652  0.2374 -0.3470  0.0807
   72CGG   SI52 5624  10.594   6.705  10.668  0.1823  0.2262 -0.1954
   72CGG   SI85 5625  10.467   5.115  10.965 -0.2464  0.1647 -0.2805
   72CGG   SI86 5626  10.398   5.718  11.046  0.4341 -0.2518  0.4088
   72CGG   SI87 5627  10.448   5.945  10.514 -0.6568 -0.3848 -0.6353
   72CGG   SI88 5628  10.516   5.340  10.459  0.1163 -0.0356 -0.0601
   72CGG   SI89 5629  10.168   5.547  10.943  0.2156  0.1595 -0.1890
   72CGG   SI90 5630  10.211   5.254  10.922 -0.0887 -0.3039 -0.0607
   72CGG   SI91 5631  10.744   5.514  10.550  0.1023 -0.0575 -0.1730
   72CGG   SI92 5632  10.701   5.805  10.569  0.1451 -0.0063  0.0113
   73CGG    AL1 5633   9.828   7.648  10.835 -0.6495 -0.0001  0.1336
   73CGG    AL2 5634   9.665   6.894  10.692  0.3797 -0.3054  0.4102
   73CGG    AL3 5635   9.632   7.197  10.717 -0.0922  0.3447 -0.3344
   73CGG    AL4 5636   9.865   7.358  10.811  0.1240 -0.0664  0.1573
   73CGG   AL41 5637   9.934   6.762  10.754  0.0690 -0.5935 -0.0114
   73CGG   AL42 5638   9.786   5.997  10.603  0.3858 -0.5745 -0.4791
   73CGG   AL43 5639   9.751   6.308  10.634 -0.1128  0.2053 -0.4524
   73CGG   AL44 5640   9.976   6.476  10.731  0.0740  0.1243 -0.0291
   73CGG   AL81 5641  10.046   5.867  10.663  0.2935  0.1457  0.1990
   73CGG   AL82 5642   9.919   5.107  10.527  0.1647  0.2751  0.0876
   73CGG   AL83 5643   9.863   5.408  10.537 -0.1208 -0.0356 -0.0125
   73CGG   AL84 5644  10.090   5.577  10.632 -0.1301 -0.4251  0.0640
   73CGG    SI5 5645   9.768   6.870  10.999  0.1158 -0.0639 -0.2669
   73CGG    SI6 5646   9.694   7.464  11.058  0.0934 -0.1550 -0.1443
   73CGG    SI7 5647   9.743   7.683  10.527 -0.0738  0.5254 -0.0810
   73CGG    SI8 5648   9.801   7.083  10.473  0.1913 -0.6402 -0.1858
   73CGG    SI9 5649   9.457   7.291  10.964  0.0261 -0.2530  0.2610
   73CGG   SI10 5650   9.507   6.998  10.941 -0.2167 -0.0337 -0.1209
   73CGG   SI11 5651  10.050   7.261  10.565  0.1533  0.3708 -0.2066
   73CGG   SI12 5652  10.002   7.552  10.595  0.0944  0.2394 -0.0120
   73CGG   SI45 5653   9.873   5.972  10.908  0.1091 -0.3875  0.1804
   73CGG   SI46 5654   9.803   6.575  10.977 -0.3034 -0.2777 -0.4262
   73CGG   SI47 5655   9.843   6.795  10.449 -0.2835 -0.2017  0.3593
   73CGG   SI48 5656   9.922   6.209  10.392  0.0668  0.0638  0.4497
   73CGG   SI49 5657   9.567   6.397  10.874  0.2743  0.0987  0.0875
   73CGG   SI50 5658   9.615   6.103  10.849 -0.1165  0.3094 -0.3410
   73CGG   SI51 5659  10.153   6.370  10.498  0.3167  0.1640  0.1366
   73CGG   SI52 5660  10.111   6.666  10.508  0.3749 -0.0327 -0.5610
   73CGG   SI85 5661   9.987   5.090  10.845  0.0488 -0.2071  0.4927
   73CGG   SI86 5662   9.914   5.673  10.874 -0.1899 -0.1886 -0.3276
   73CGG   SI87 5663   9.963   5.908  10.354 -0.6905  0.0858 -0.5336
   73CGG   SI88 5664  10.033   5.310  10.300 -0.3324  0.1478 -0.0613
   73CGG   SI89 5665   9.682   5.504  10.780  0.0431 -0.2216  0.1454
   73CGG   SI90 5666   9.724   5.211  10.749 -0.0024 -0.4705 -0.1384
   73CGG   SI91 5667  10.266   5.487  10.391  0.2650  0.0979  0.0421
   73CGG   SI92 5668  10.220   5.781  10.419 -0.6964  0.3067 -0.0981
   74CGG    AL1 5669   9.342   7.612  10.674 -0.3902  0.3852 -0.1339
   74CGG    AL2 5670   9.174   6.857  10.542  0.1442 -0.0293  0.3401
   74CGG    AL3 5671   9.139   7.153  10.568 -0.2403 -0.2411  0.3748
   74CGG    AL4 5672   9.373   7.313  10.654 -0.1621 -0.0196  0.0774
   74CGG   AL41 5673   9.440   6.720  10.595  0.0022 -0.1253  0.1937
   74CGG   AL42 5674   9.289   5.958  10.450  0.1743  0.5209 -0.2442
   74CGG   AL43 5675   9.252   6.257  10.477 -0.3115 -0.2857 -0.2850
   74CGG   AL44 5676   9.479   6.439  10.565 -0.4817  0.3524 -0.4896
   74CGG   AL81 5677   9.559   5.828  10.506 -0.4175  0.0028 -0.1340
   74CGG   AL82 5678   9.398   5.082  10.344  0.1300  0.2771  0.3307
   74CGG   AL83 5679   9.368   5.369  10.369  0.2520  0.2447  0.4698
   74CGG   AL84 5680   9.596   5.535  10.469  0.4550  0.2952  0.2025
   74CGG    SI5 5681   9.267   6.820  10.844 -0.2080 -0.5572 -0.0222
   74CGG    SI6 5682   9.197   7.418  10.898 -0.2883  0.2390  0.0018
   74CGG    SI7 5683   9.252   7.640  10.363 -0.2659 -0.2947 -0.0913
   74CGG    SI8 5684   9.313   7.040  10.312  0.3410  0.0415 -0.2809
   74CGG    SI9 5685   8.967   7.247  10.811  0.1162  0.1994 -0.2148
   74CGG   SI10 5686   9.006   6.954  10.786 -0.3762  0.0010  0.3025
   74CGG   SI11 5687   9.542   7.214  10.410 -0.0137 -0.0647  0.0212
   74CGG   SI12 5688   9.509   7.504  10.423 -0.5634 -0.0919 -0.1066
   74CGG   SI45 5689   9.382   5.931  10.754 -0.3198  0.3016  0.5161
   74CGG   SI46 5690   9.307   6.533  10.819  0.3141  0.2844 -0.2186
   74CGG   SI47 5691   9.345   6.748  10.294 -0.2421 -0.3278 -0.1545
   74CGG   SI48 5692   9.419   6.152  10.236 -0.1943  0.1921  0.0069
   74CGG   SI49 5693   9.073   6.356  10.729 -0.5340 -0.0056  0.3348
   74CGG   SI50 5694   9.114   6.056  10.696  0.2497 -0.2869  0.1390
   74CGG   SI51 5695   9.658   6.337  10.329  0.3308  0.2380  0.1431
   74CGG   SI52 5696   9.606   6.632  10.348 -0.4539  0.3122 -0.4494
   74CGG   SI85 5697   9.487   5.042  10.642  0.0755  0.3544 -0.0852
   74CGG   SI86 5698   9.423   5.634  10.721  0.4011 -0.0505  0.5222
   74CGG   SI87 5699   9.466   5.866  10.203 -0.0635 -0.1973  0.0395
   74CGG   SI88 5700   9.544   5.269  10.124  0.0190 -0.1450 -0.3555
   74CGG   SI89 5701   9.186   5.460  10.614 -0.5917  0.4905  0.4455
   74CGG   SI90 5702   9.223   5.168  10.582  0.0861 -0.3094 -0.4165
   74CGG   SI91 5703   9.774   5.435  10.232  0.0525 -0.0372  0.2122
   74CGG   SI92 5704   9.732   5.731  10.262  0.0620  0.3741 -0.1597
   75CGG    AL1 5705   8.840   7.574  10.520  0.3693  0.2299 -0.2585
   75CGG    AL2 5706   8.696   6.811  10.385 -0.3395  0.4452  0.4877
   75CGG    AL3 5707   8.660   7.107  10.405  0.0004  0.2106  0.2425
   75CGG    AL4 5708   8.884   7.282  10.504  0.1439 -0.2688  0.3152
   75CGG   AL41 5709   8.961   6.673  10.442 -0.4663  0.7514  0.1399
   75CGG   AL42 5710   8.803   5.920  10.281 -0.0033  0.5703  0.3966
   75CGG   AL43 5711   8.776   6.213  10.317  0.1132  0.0148  0.0187
   75CGG   AL44 5712   8.998   6.380  10.414  0.4785  0.0317  0.1113
   75CGG   AL81 5713   9.072   5.784  10.341  0.0991 -0.0077 -0.5819
   75CGG   AL82 5714   8.930   5.035  10.180  0.4408 -0.0279 -0.1076
   75CGG   AL83 5715   8.884   5.326  10.213 -0.4591  0.0670  0.4576
   75CGG   AL84 5716   9.109   5.493  10.306 -0.3471  0.5235 -0.0195
   75CGG    SI5 5717   8.790   6.778  10.688  0.1453  0.1469  0.0414
   75CGG    SI6 5718   8.706   7.382  10.750 -0.1946  0.4037  0.1021
   75CGG    SI7 5719   8.757   7.599  10.212 -0.0957 -0.3960 -0.2678
   75CGG    SI8 5720   8.826   7.010  10.158 -0.2535  0.0314  0.0512
   75CGG    SI9 5721   8.483   7.197  10.646 -0.2339 -0.2634 -0.1442
   75CGG   SI10 5722   8.529   6.909  10.631 -0.2634  0.1039 -0.3343
   75CGG   SI11 5723   9.056   7.181  10.257 -0.0287 -0.4369 -0.0494
   75CGG   SI12 5724   9.022   7.474  10.280 -0.1824 -0.2395 -0.0144
   75CGG   SI45 5725   8.899   5.886  10.586  0.3168  0.2804  0.2306
   75CGG   SI46 5726   8.821   6.482  10.659  0.0214 -0.2699  0.3678
   75CGG   SI47 5727   8.874   6.710  10.139  0.2423 -0.0899  0.1581
   75CGG   SI48 5728   8.945   6.120  10.063  0.9093  0.1133 -0.3170
   75CGG   SI49 5729   8.596   6.300  10.561  0.2724 -0.1161  0.0633
   75CGG   SI50 5730   8.639   6.011  10.532 -0.3382  0.1314 -0.2078
   75CGG   SI51 5731   9.176   6.290  10.171 -0.1594  0.6218 -0.2313
   75CGG   SI52 5732   9.134   6.573  10.194 -0.1401 -0.2987 -0.1938
   75CGG   SI85 5733   9.010   4.996  10.484 -0.4017 -0.1960 -0.0340
   75CGG   SI86 5734   8.939   5.592  10.555  0.4305 -0.3415 -0.0191
   75CGG   SI87 5735   8.981   5.827  10.035 -0.1575 -0.1838 -0.0908
   75CGG   SI88 5736   9.047   5.237   9.966  0.0455  0.0408  0.0063
   75CGG   SI89 5737   8.702   5.413  10.459 -0.0878 -0.0705  0.2284
   75CGG   SI90 5738   8.749   5.125  10.428 -0.3300  0.4048 -0.0489
   75CGG   SI91 5739   9.286   5.409  10.056  0.2617  0.2459 -0.5263
   75CGG   SI92 5740   9.241   5.699  10.092 -0.1859 -0.1545 -0.1469
   76CGG    AL1 5741   8.352   7.522  10.368  0.1325  0.3733  0.5177
   76CGG    AL2 5742   8.202   6.764  10.219  0.5022  0.2975  0.3143
   76CGG    AL3 5743   8.156   7.056  10.247 -0.2375 -0.0119  0.0038
   76CGG    AL4 5744   8.390   7.229  10.338  0.0021  0.1538  0.1035
   76CGG   AL41 5745   8.461   6.640  10.280  0.0761  0.5634  0.1137
   76CGG   AL42 5746   8.303   5.869  10.138  0.1590 -0.3812 -0.2691
   76CGG   AL43 5747   8.269   6.171  10.168 -0.3004 -0.4556 -0.2841
   76CGG   AL44 5748   8.504   6.342  10.257 -0.1721  0.2256  0.3264
   76CGG   AL81 5749   8.576   5.741  10.194 -0.4849 -0.0755 -0.3324
   76CGG   AL82 5750   8.414   4.984  10.028 -0.2936 -0.4410 -0.0561
   76CGG   AL83 5751   8.374   5.282  10.062  0.0528  0.4947  0.2613
   76CGG   AL84 5752   8.603   5.453  10.156  0.0680  0.3856 -0.1363
   76CGG    SI5 5753   8.295   6.738  10.528  0.0272 -0.1426  0.2565
   76CGG    SI6 5754   8.225   7.323  10.592 -0.2482 -0.1899 -0.1350
   76CGG    SI7 5755   8.261   7.556  10.065 -0.2202  0.1481  0.2843
   76CGG    SI8 5756   8.333   6.960  10.000  0.0272 -0.2149 -0.5779
   76CGG    SI9 5757   7.989   7.150  10.499  0.1140 -0.3513  0.1517
   76CGG   SI10 5758   8.028   6.858  10.474  0.0996  0.1004  0.3711
   76CGG   SI11 5759   8.563   7.138  10.096 -0.2789  0.4343  0.3285
   76CGG   SI12 5760   8.523   7.424  10.125  0.2142 -0.2121  0.3590
   76CGG   SI45 5761   8.400   5.836  10.445 -0.2218 -0.2064 -0.2645
   76CGG   SI46 5762   8.337   6.442  10.499  0.3174  0.1267  0.0005
   76CGG   SI47 5763   8.376   6.668   9.965  0.2026 -0.6176 -0.0285
   76CGG   SI48 5764   8.437   6.068   9.918 -0.0877 -0.0570  0.1468
   76CGG   SI49 5765   8.094   6.267  10.414 -0.2287 -0.4005 -0.1312
   76CGG   SI50 5766   8.132   5.972  10.387 -0.1937  0.1971  0.0700
   76CGG   SI51 5767   8.673   6.246  10.015 -0.0800  0.4792 -0.1032
   76CGG   SI52 5768   8.637   6.541  10.033 -0.0688 -0.0386  0.0392
   76CGG   SI85 5769   8.509   4.953  10.333  0.3471  0.1094  0.0225
   76CGG   SI86 5770   8.447   5.543  10.407 -0.1394  0.4948  0.1642
   76CGG   SI87 5771   8.476   5.772   9.890  0.3697  0.3206 -0.0427
   76CGG   SI88 5772   8.543   5.180   9.818  0.0526 -0.0323 -0.1315
   76CGG   SI89 5773   8.209   5.379  10.321  0.3176  0.1771  0.1136
   76CGG   SI90 5774   8.251   5.083  10.282 -0.0775 -0.0127  0.3027
   76CGG   SI91 5775   8.774   5.358   9.911 -0.1754 -0.2448 -0.0320
   76CGG   SI92 5776   8.741   5.647   9.941  0.4519 -0.1112  0.2598
   77CGG    AL1 5777   7.871   7.472  10.214  0.1126 -0.1991 -0.1642
   77CGG    AL2 5778   7.714   6.707  10.066  0.2944 -0.0522 -0.2081
   77CGG    AL3 5779   7.677   7.014  10.096 -0.0179  0.1461 -0.3075
   77CGG    AL4 5780   7.903   7.190  10.188 -0.3365 -0.8446  0.2197
   77CGG   AL41 5781   7.975   6.586  10.122  0.2203 -0.1178 -0.1534
   77CGG   AL42 5782   7.812   5.829   9.978 -0.0413 -0.1179  0.5788
   77CGG   AL43 5783   7.786   6.125  10.009  0.0170  0.1511 -0.1711
   77CGG   AL44 5784   8.017   6.298  10.102  0.0434 -0.1746 -0.0057
   77CGG   AL81 5785   8.074   5.696  10.037  0.1990 -0.0597 -0.3937
   77CGG   AL82 5786   7.945   4.941   9.897 -0.1224  0.0935  0.3998
   77CGG   AL83 5787   7.899   5.226   9.912 -0.1888  0.0197 -0.2926
   77CGG   AL84 5788   8.123   5.409  10.011  0.1468 -0.0969  0.0891
   77CGG    SI5 5789   7.800   6.693  10.367 -0.0277  0.0126 -0.1160
   77CGG    SI6 5790   7.732   7.283  10.440 -0.1169 -0.2847  0.6561
   77CGG    SI7 5791   7.769   7.514   9.914 -0.0208  0.1200 -0.1549
   77CGG    SI8 5792   7.837   6.918   9.849 -0.0739  0.3139  0.1354
   77CGG    SI9 5793   7.497   7.106  10.341 -0.2782 -0.1452  0.1862
   77CGG   SI10 5794   7.539   6.811  10.311  0.0910 -0.2497  0.1459
   77CGG   SI11 5795   8.071   7.094   9.939 -0.0524 -0.0832  0.5191
   77CGG   SI12 5796   8.036   7.383   9.959 -0.0170 -0.4794  0.2748
   77CGG   SI45 5797   7.906   5.799  10.285 -0.2518  0.0653  0.1000
   77CGG   SI46 5798   7.839   6.404  10.346 -0.0633 -0.0836  0.1536
   77CGG   SI47 5799   7.892   6.624   9.815  0.9530 -0.6185 -0.6156
   77CGG   SI48 5800   7.950   6.023   9.764 -0.0374  0.1621 -0.3927
   77CGG   SI49 5801   7.607   6.224  10.256  0.2997  0.1062 -0.1271
   77CGG   SI50 5802   7.647   5.929  10.226 -0.0362 -0.4996 -0.2523
   77CGG   SI51 5803   8.182   6.199   9.858 -0.0293  0.7026 -0.0275
   77CGG   SI52 5804   8.145   6.494   9.877 -0.0930 -0.1708  0.1607
   77CGG   SI85 5805   8.027   4.918  10.207  0.1728  0.3707 -0.3641
   77CGG   SI86 5806   7.953   5.500  10.261  0.1865  0.3603 -0.2737
   77CGG   SI87 5807   7.987   5.730   9.731  0.0215  0.2610  0.2027
   77CGG   SI88 5808   8.064   5.127   9.664 -0.0389  0.4051  0.0927
   77CGG   SI89 5809   7.718   5.325  10.151 -0.1724 -0.4280 -0.2273
   77CGG   SI90 5810   7.770   5.038  10.138  0.6176 -0.2289  0.6459
   77CGG   SI91 5811   8.286   5.308   9.755  0.0022 -0.2386  0.5127
   77CGG   SI92 5812   8.252   5.599   9.793  0.1337 -0.0050  0.0270
   78CGG    AL1 5813   7.368   7.427  10.058 -0.7673 -0.1475  0.0285
   78CGG    AL2 5814   7.205   6.676   9.907 -0.0567 -0.1026 -0.0551
   78CGG    AL3 5815   7.177   6.964   9.935 -0.2787  0.5240  0.0705
   78CGG    AL4 5816   7.407   7.133  10.029  0.1938  0.2080 -0.4251
   78CGG   AL41 5817   7.479   6.536   9.973 -0.1496 -0.1448  0.2614
   78CGG   AL42 5818   7.325   5.776   9.819  0.0667  0.1174 -0.2664
   78CGG   AL43 5819   7.285   6.076   9.852  0.1104 -0.4924 -0.0095
   78CGG   AL44 5820   7.517   6.247   9.945 -0.1081 -0.0616  0.1679
   78CGG   AL81 5821   7.587   5.653   9.876 -0.3094  0.0262 -0.3653
   78CGG   AL82 5822   7.425   4.895   9.726 -0.1276 -0.3839  0.0587
   78CGG   AL83 5823   7.397   5.177   9.760 -0.1122  0.0718 -0.3677
   78CGG   AL84 5824   7.627   5.349   9.852 -0.3869 -0.1782  0.6208
   78CGG    SI5 5825   7.305   6.644  10.212 -0.3010 -0.0744  0.2808
   78CGG    SI6 5826   7.238   7.237  10.282 -0.1663  0.0466 -0.4726
   78CGG    SI7 5827   7.279   7.467   9.747 -0.2257  0.2124 -0.1793
   78CGG    SI8 5828   7.346   6.865   9.694 -0.0554  0.5685  0.5443
   78CGG    SI9 5829   7.008   7.064  10.188  0.5636  0.1082  0.1877
   78CGG   SI10 5830   7.043   6.769  10.161 -0.2784 -0.4433 -0.4644
   78CGG   SI11 5831   7.580   7.036   9.793 -0.1363  0.0124  0.2170
   78CGG   SI12 5832   7.544   7.332   9.814 -0.0223 -0.0204 -0.2850
   78CGG   SI45 5833   7.418   5.754  10.124 -0.0269 -0.2554  0.5549
   78CGG   SI46 5834   7.345   6.347  10.190  0.6033  0.6657 -0.3956
   78CGG   SI47 5835   7.379   6.567   9.671  0.2872  0.2746  0.2416
   78CGG   SI48 5836   7.454   5.977   9.604  0.2620 -0.0140  0.0324
   78CGG   SI49 5837   7.113   6.169  10.092 -0.0288  0.0909  0.2557
   78CGG   SI50 5838   7.157   5.869  10.060  0.0456 -0.1815 -0.0763
   78CGG   SI51 5839   7.690   6.154   9.697  0.0747 -0.0076  0.6131
   78CGG   SI52 5840   7.649   6.446   9.718  0.4104  0.2076 -0.4484
   78CGG   SI85 5841   7.535   4.855  10.030 -0.2375 -0.5843  0.3880
   78CGG   SI86 5842   7.462   5.456  10.097 -0.0468 -0.0225 -0.3072
   78CGG   SI87 5843   7.490   5.676   9.573  0.0573 -0.1259 -0.0758
   78CGG   SI88 5844   7.571   5.088   9.513 -0.0077  0.2080 -0.1378
   78CGG   SI89 5845   7.228   5.281  10.013  0.2652  0.1887  0.3338
   78CGG   SI90 5846   7.268   4.988   9.979  0.1049  0.3835 -0.2545
   78CGG   SI91 5847   7.804   5.261   9.604 -0.0544 -0.1069 -0.1736
   78CGG   SI92 5848   7.757   5.553   9.628 -0.3702 -0.1724  0.0792
   79CGG    AL1 5849   6.882   7.381   9.905  0.3404 -0.2128  0.4203
   79CGG    AL2 5850   6.715   6.627   9.751  0.0160  0.3901  0.3427
   79CGG    AL3 5851   6.683   6.931   9.782 -0.6437  0.1592 -0.0017
   79CGG    AL4 5852   6.919   7.092   9.871 -0.2050 -0.8016 -0.6312
   79CGG   AL41 5853   6.987   6.491   9.809 -0.5697  0.0080  0.2301
   79CGG   AL42 5854   6.830   5.724   9.672 -0.1252  0.3550 -0.2462
   79CGG   AL43 5855   6.797   6.026   9.703 -0.4387 -0.0709  0.1204
   79CGG   AL44 5856   7.024   6.205   9.783 -0.0416 -0.2584  0.0650
   79CGG   AL81 5857   7.107   5.595   9.730  0.5482 -0.5802  0.0349
   79CGG   AL82 5858   6.942   4.835   9.575 -0.1785  0.7620 -0.1536
   79CGG   AL83 5859   6.904   5.135   9.608 -0.6691  0.0055  0.0835
   79CGG   AL84 5860   7.133   5.308   9.702  0.2050  0.3214  0.2908
   79CGG    SI5 5861   6.821   6.602  10.049 -0.1855 -0.2806 -0.0105
   79CGG    SI6 5862   6.754   7.195  10.125  0.1513 -0.4885 -0.2234
   79CGG    SI7 5863   6.790   7.414   9.597 -0.3184 -0.1636  0.3079
   79CGG    SI8 5864   6.856   6.816   9.536  0.2575 -0.1650  0.7516
   79CGG    SI9 5865   6.513   7.021  10.033 -0.1174  0.1326  0.0834
   79CGG   SI10 5866   6.551   6.730   9.997 -0.0492  0.0284 -0.0633
   79CGG   SI11 5867   7.087   6.995   9.627 -0.0397 -0.0895 -0.1018
   79CGG   SI12 5868   7.055   7.283   9.652  0.1453 -0.1759 -0.3148
   79CGG   SI45 5869   6.926   5.702   9.976 -0.3522  0.0543  0.3099
   79CGG   SI46 5870   6.853   6.313  10.035  0.0466  0.4769 -0.1281
   79CGG   SI47 5871   6.894   6.526   9.504  0.4521 -0.0909 -0.5808
   79CGG   SI48 5872   6.958   5.921   9.456  0.2209  0.3840 -0.1614
   79CGG   SI49 5873   6.625   6.129   9.948 -0.3814  0.1691  0.1320
   79CGG   SI50 5874   6.669   5.834   9.927 -0.2532 -0.0487  0.0389
   79CGG   SI51 5875   7.192   6.105   9.535  0.0060  0.4401 -0.1103
   79CGG   SI52 5876   7.155   6.402   9.563 -0.1545 -0.2308  0.1740
   79CGG   SI85 5877   7.043   4.823   9.879  0.2702 -0.0192 -0.3294
   79CGG   SI86 5878   6.967   5.407   9.947 -0.0141 -0.1329 -0.9887
   79CGG   SI87 5879   7.004   5.631   9.414  0.2440 -0.1605 -0.1434
   79CGG   SI88 5880   7.072   5.041   9.360 -0.1895 -0.5477 -0.2819
   79CGG   SI89 5881   6.727   5.238   9.855 -0.1490  0.2560  0.2646
   79CGG   SI90 5882   6.770   4.941   9.821 -0.0229 -0.2928  0.3798
   79CGG   SI91 5883   7.306   5.215   9.454 -0.1006  0.4884 -0.1547
   79CGG   SI92 5884   7.262   5.501   9.475 -0.0201 -0.2761  0.0808
   80CGG    AL1 5885   6.395   7.343   9.750  0.0532  0.1175  0.5506
   80CGG    AL2 5886   6.226   6.583   9.595  0.0570 -0.4372  0.0614
   80CGG    AL3 5887   6.192   6.880   9.626 -0.5085 -0.1402 -0.2303
   80CGG    AL4 5888   6.427   7.048   9.721  0.0545 -0.2472  0.2061
   80CGG   AL41 5889   6.489   6.449   9.655  0.0461 -0.3954 -0.3841
   80CGG   AL42 5890   6.333   5.683   9.519 -0.4638 -0.1355  0.0474
   80CGG   AL43 5891   6.308   5.973   9.551  0.0375 -0.4174 -0.1058
   80CGG   AL44 5892   6.527   6.157   9.639  0.2711 -0.5633 -0.0834
   80CGG   AL81 5893   6.603   5.543   9.572 -0.4854 -0.0273  0.2486
   80CGG   AL82 5894   6.437   4.810   9.415  0.0759  0.2796  0.2372
   80CGG   AL83 5895   6.406   5.094   9.446  0.0575  0.1052 -0.0421
   80CGG   AL84 5896   6.637   5.265   9.541 -0.0823  0.0852 -0.1829
   80CGG    SI5 5897   6.322   6.551   9.904 -0.1086 -0.1018  0.3233
   80CGG    SI6 5898   6.256   7.155   9.968  0.5807  0.0643 -0.3583
   80CGG    SI7 5899   6.306   7.388   9.444  0.3339 -0.2335  0.3345
   80CGG    SI8 5900   6.369   6.774   9.386 -0.4539  0.3742  0.3615
   80CGG    SI9 5901   6.025   6.977   9.876  0.5598 -0.3308 -0.2663
   80CGG   SI10 5902   6.062   6.685   9.841 -0.2573 -0.2554 -0.2189
   80CGG   SI11 5903   6.602   6.957   9.478 -0.4049  0.3131  0.4342
   80CGG   SI12 5904   6.562   7.246   9.496  0.5139 -0.5323 -0.1717
   80CGG   SI45 5905   6.435   5.657   9.819 -0.3617 -0.3171 -0.5530
   80CGG   SI46 5906   6.367   6.259   9.888  0.3224  0.2253 -0.3256
   80CGG   SI47 5907   6.403   6.478   9.350  0.2599 -0.0572  0.2770
   80CGG   SI48 5908   6.463   5.878   9.291 -0.1294 -0.4897 -0.1428
   80CGG   SI49 5909   6.134   6.077   9.808 -0.0545 -0.0183 -0.1808
   80CGG   SI50 5910   6.176   5.787   9.765  0.3433  0.1064  0.0152
   80CGG   SI51 5911   6.696   6.053   9.397 -0.3068  0.1103 -0.1048
   80CGG   SI52 5912   6.663   6.342   9.415  0.1019 -0.2445 -0.1462
   80CGG   SI85 5913   6.535   4.760   9.714 -0.3340  0.3723  0.0615
   80CGG   SI86 5914   6.470   5.362   9.797  0.1489 -0.5735  0.4531
   80CGG   SI87 5915   6.509   5.593   9.265 -0.0789  0.3117 -0.0990
   80CGG   SI88 5916   6.580   5.003   9.197 -0.3490  0.6528  0.0494
   80CGG   SI89 5917   6.241   5.196   9.687  0.1784 -0.0258  0.0312
   80CGG   SI90 5918   6.279   4.902   9.672  0.0279 -0.2444 -0.1105
   80CGG   SI91 5919   6.814   5.163   9.302  0.2358  0.2532  0.0035
   80CGG   SI92 5920   6.765   5.455   9.317  0.1733 -0.0849  0.0816
  161NAA     NA 5921  14.271  15.171  14.185  0.3073  0.0404 -0.1466
  162NAA     NA 5922  15.043  14.184  12.778 -0.0453 -0.0084  0.1370
  163NAA     NA 5923  13.560  15.368  12.486  0.3662 -0.3280 -0.1297
  164NAA     NA 5924  14.189  14.584  12.584  0.2128  0.2064  0.0007
  165NAA     NA 5925  13.018  15.476  13.755 -0.1382  0.1543 -0.1254
  166NAA     NA 5926  13.548  13.196  12.182 -0.0502 -0.1598  0.0744
  167NAA     NA 5927  13.139  14.570  13.653 -0.2566  0.0349 -0.4573
  168NAA     NA 5928  13.000  13.967  12.065 -0.1582  0.0728 -0.2108
  169NAA     NA 5929  12.043  15.464  13.383  0.0707 -0.0383 -0.0496
  170NAA     NA 5930  13.316  13.683  13.609  0.4826 -0.0566  0.0673
  171NAA     NA 5931  12.665  15.295  12.166 -0.0308  0.2964  0.6877
  172NAA     NA 5932  11.937  14.107  13.135  0.4950  0.2131  0.0616
  173NAA     NA 5933  11.046  15.366  13.058 -0.3399  0.2214 -0.2843
  174NAA     NA 5934  11.688  15.204  11.854 -0.0914  0.1410 -0.0560
  175NAA     NA 5935  10.684  15.121  11.488  0.1211 -0.2269  0.4308
  176NAA     NA 5936  11.265  14.407  11.577  0.1737  0.0312 -0.1392
  177NAA     NA 5937  10.092  15.329  12.742 -0.0296 -0.5169  0.1843
  178NAA     NA 5938  11.049  13.917  11.424 -0.0427  0.1439  0.5261
  179NAA     NA 5939  10.356  14.804  12.765 -0.1002 -0.0602  0.0060
  180NAA     NA 5940   9.778  14.157  11.091 -0.2560  0.0874  0.0672
  181NAA     NA 5941   9.099  15.173  12.415 -0.0378  0.2579 -0.0489
  182NAA     NA 5942  10.088  13.038  12.381  0.0522 -0.1373  0.1545
  183NAA     NA 5943   9.716  15.037  11.192 -0.0503 -0.4122  0.1783
  184NAA     NA 5944   8.804  13.371  12.040 -0.1677 -0.1754 -0.0039
  185NAA     NA 5945   8.137  15.108  12.100 -0.2552  0.1520 -0.1657
  186NAA     NA 5946   9.002  14.612  10.921 -0.0963 -0.2513  0.3851
  187NAA     NA 5947   8.223  14.925  10.679 -0.2260  0.4933 -0.2377
  188NAA     NA 5948   8.621  13.634  10.615 -0.1762 -0.0433  0.0276
  189NAA     NA 5949   7.934  14.585  11.990  0.2449 -0.1082  0.2617
  190NAA     NA 5950   7.850  13.896  10.443  0.1428 -0.0814  0.0692
  191NAA     NA 5951   7.150  15.016  11.769 -0.0555 -0.0617 -0.0691
  192NAA     NA 5952   6.835  13.972  10.159 -0.3820 -0.2362  0.1058
  193NAA     NA 5953   6.177  14.944  11.484  0.3462 -0.0045  0.1640
  194NAA     NA 5954   6.749  12.746  11.308  0.2838  0.1521 -0.2134
  195NAA     NA 5955   6.730  14.754  10.202  0.2347  0.0558  0.3438
  196NAA     NA 5956   6.202  12.675  11.171 -0.2749 -0.4486  0.2235
  197NAA     NA 5957   5.469  14.369  11.221  0.2492  0.1164  0.1081
  198NAA     NA 5958   5.976  13.801   9.838  0.3494 -0.0327 -0.1706
  199NAA     NA 5959   4.973  15.077  10.152  0.2853 -0.3354 -0.2137
  200NAA     NA 5960   5.053  13.425  10.218 -0.1559 -0.2780 -0.0449
  201NAA     NA 5961  14.614  12.499  13.886 -0.2675 -0.1957  0.2229
  202NAA     NA 5962  15.297  11.394  12.516 -0.0459 -0.4225 -0.1289
  203NAA     NA 5963  14.133  13.159  12.379 -0.0965  0.2777 -0.0031
  204NAA     NA 5964  14.236  12.316  12.265 -0.0868 -0.1528  0.0876
  205NAA     NA 5965  14.024  13.352  13.805  0.3723 -0.0824  0.2533
  206NAA     NA 5966  13.912  10.537  11.910  0.1668  0.2925 -0.2729
  207NAA     NA 5967  13.108  12.354  13.306 -0.1359  0.0506  0.5569
  208NAA     NA 5968  12.905  11.304  11.714  0.0833  0.1862  0.3964
  209NAA     NA 5969  12.020  13.267  13.070  0.1134 -0.0956 -0.1920
  210NAA     NA 5970  13.259  11.500  13.243 -0.1164  0.0734 -0.0825
  211NAA     NA 5971  12.632  13.089  11.854 -0.0061  0.3042 -0.2957
  212NAA     NA 5972  12.112  10.924  12.743 -0.1621  0.2316  0.3399
  213NAA     NA 5973  11.752  12.299  12.832 -0.1387 -0.1071  0.0330
  214NAA     NA 5974  12.739  12.180  11.749  0.0218 -0.0013  0.0239
  215NAA     NA 5975  11.477  12.550  11.397 -0.3029  0.3652 -0.4282
  216NAA     NA 5976  12.141  11.654  11.488  0.0787  0.1494 -0.2018
  217NAA     NA 5977  10.890  12.670  12.606  0.1094  0.0474 -0.3247
  218NAA     NA 5978  11.594  11.599  11.291  0.2578 -0.0608  0.1191
  219NAA     NA 5979  10.284  12.132  12.303 -0.2945 -0.0345 -0.0761
  220NAA     NA 5980  10.639  11.536  10.996 -0.0138 -0.0708 -0.0385
  221NAA     NA 5981   9.394  12.519  12.091  0.0478  0.2991 -0.2680
  222NAA     NA 5982  10.439  10.354  12.124 -0.0760  0.0339 -0.2798
  223NAA     NA 5983  10.468  12.479  11.078  0.1382 -0.1840  0.1789
  224NAA     NA 5984   9.162  10.582  11.748 -0.0965  0.1070  0.0832
  225NAA     NA 5985   8.791  12.006  11.817 -0.1823 -0.2172 -0.2315
  226NAA     NA 5986   9.520  12.340  10.743  0.2349  0.1207 -0.1255
  227NAA     NA 5987   8.826  11.851  10.462  0.0394 -0.2405 -0.1189
  228NAA     NA 5988   9.422  10.935  10.504  0.0239  0.0481  0.0311
  229NAA     NA 5989   7.382  13.251  11.582  0.2777  0.0358  0.0179
  230NAA     NA 5990   8.493  10.955  10.225  0.0977 -0.3435 -0.0208
  231NAA     NA 5991   7.597  11.421  11.382 -0.0624  0.2808 -0.5532
  232NAA     NA 5992   7.107  10.795   9.750  0.1930 -0.2689  0.1451
  233NAA     NA 5993   7.470  12.296  11.470  0.1506 -0.1375 -0.0853
  234NAA     NA 5994   7.225  10.453  11.131  0.0448  0.2689 -0.2138
  235NAA     NA 5995   7.343  12.540  10.059  0.0538  0.0766  0.0951
  236NAA     NA 5996   6.194  10.412  10.843  0.2179  0.2367  0.3012
  237NAA     NA 5997   6.266  11.801  11.102  0.2373 -0.1535 -0.2994
  238NAA     NA 5998   6.690  11.236   9.734 -0.1849  0.1960  0.0802
  239NAA     NA 5999   6.195  12.045   9.634  0.5318 -0.0826 -0.1232
  240NAA     NA 6000   5.238  12.174   9.908  0.2128  0.1932  0.2846
  241NAA     NA 6001  14.924   9.793  13.598 -0.2073 -0.1536  0.0289
  242NAA     NA 6002  14.556   8.983  13.315  0.0477  0.5077 -0.2934
  243NAA     NA 6003  14.874  10.579  12.240 -0.1600  0.0379  0.7590
  244NAA     NA 6004  15.651   8.791  12.278 -0.1974  0.0511  0.0612
  245NAA     NA 6005  14.026  11.027  13.442 -0.1758 -0.1931  0.0889
  246NAA     NA 6006  14.712   8.722  11.923 -0.1494 -0.4005  0.0557
  247NAA     NA 6007  13.953   9.728  13.242  0.1320  0.2086 -0.3349
  248NAA     NA 6008  13.915   9.183  11.724 -0.1165  0.4378 -0.1207
  249NAA     NA 6009  12.245  10.024  12.694  0.1251 -0.2674 -0.2121
  250NAA     NA 6010  13.438   8.290  12.886 -0.0309 -0.1055  0.1071
  251NAA     NA 6011  13.316   9.972  11.652 -0.1632 -0.1656 -0.0024
  252NAA     NA 6012  12.420   8.144  12.478  0.2235  0.3695 -0.0978
  253NAA     NA 6013  12.074   9.533  12.534  0.1814 -0.0283 -0.1480
  254NAA     NA 6014  12.953   9.097  11.398 -0.5288  0.0491  0.4657
  255NAA     NA 6015  11.803   9.815  11.124  0.2050 -0.0281  0.0344
  256NAA     NA 6016  11.999   8.951  11.059  0.1477 -0.0316  0.2889
  257NAA     NA 6017  11.407  10.401  12.456  0.1840 -0.1408  0.2641
  258NAA     NA 6018  11.427   8.874  10.839  0.0792  0.0910 -0.0734
  259NAA     NA 6019  10.744   9.862  12.155  0.0192 -0.4918 -0.0015
  260NAA     NA 6020  10.492   8.818  10.552  0.0910  0.0103 -0.3923
  261NAA     NA 6021   9.761   9.858  11.836 -0.4798  0.0966 -0.3921
  262NAA     NA 6022  10.431   8.029  11.762  0.1572  0.0974  0.0235
  263NAA     NA 6023  10.386   9.705  10.650  0.3190 -0.2341 -0.2126
  264NAA     NA 6024   9.500   7.940  11.481  0.2598  0.0261  0.2213
  265NAA     NA 6025   9.111   9.307  11.560  0.3274 -0.4453  0.1003
  266NAA     NA 6026   9.680   9.246  10.349 -0.1300 -0.1225 -0.0241
  267NAA     NA 6027   8.881   9.574  10.140 -0.0250 -0.0180 -0.1274
  268NAA     NA 6028   9.247   8.258  10.075 -0.5066 -0.0608 -0.3642
  269NAA     NA 6029   8.146  10.559  11.421 -0.1304 -0.1110 -0.0982
  270NAA     NA 6030   8.511   8.678   9.902  0.1467  0.4695  0.2691
  271NAA     NA 6031   7.808   9.665  11.192 -0.2991  0.1321  0.1838
  272NAA     NA 6032   7.551   8.622   9.572  0.0210  0.2601 -0.1099
  273NAA     NA 6033   6.823   9.611  10.917 -0.2315  0.2832  0.0979
  274NAA     NA 6034   7.518   7.803  10.852 -0.4962  0.1851 -0.2615
  275NAA     NA 6035   6.984   9.385   9.511 -0.1878 -0.0831  0.1331
  276NAA     NA 6036   6.786   7.313  10.582 -0.0667 -0.0009  0.1602
  277NAA     NA 6037   7.152   9.146  10.910 -0.0961 -0.1078 -0.4832
  278NAA     NA 6038   6.582   8.481   9.256 -0.4115 -0.1041  0.0778
  279NAA     NA 6039   5.602   9.773   9.672  0.0967 -0.0289  0.1844
  280NAA     NA 6040   5.693   8.156   9.663  0.0386 -0.4755  0.2161
  281NAA     NA 6041  15.421   7.450  13.455  0.0291  0.1689 -0.0697
  282NAA     NA 6042  15.613   5.787  13.264  0.0945 -0.0107  0.3592
  283NAA     NA 6043  14.643   7.352  11.698 -0.1526  0.2768  0.0969
  284NAA     NA 6044  15.184   6.617  11.770 -0.0424 -0.3124 -0.1392
  285NAA     NA 6045  14.319   7.064  12.959  0.0737 -0.5362  0.7434
  286NAA     NA 6046  14.972   5.974  11.596 -0.0890 -0.0475  0.0621
  287NAA     NA 6047  13.959   7.538  12.894  0.1531  0.2036  0.2118
  288NAA     NA 6048  14.019   5.977  11.290 -0.1582 -0.1309  0.0302
  289NAA     NA 6049  12.978   7.421  12.520  0.0829 -0.2362 -0.2296
  290NAA     NA 6050  14.079   6.483  12.803  0.0410 -0.0015  0.0212
  291NAA     NA 6051  13.641   7.214  11.320  0.3679 -0.0155  0.0269
  292NAA     NA 6052  12.759   5.510  12.151 -0.0916  0.2491  0.1595
  293NAA     NA 6053  12.359   6.898  12.268  0.0695  0.0849 -0.2757
  294NAA     NA 6054  13.226   6.442  11.062  0.1958  0.0964 -0.0588
  295NAA     NA 6055  12.128   7.241  10.812 -0.3514 -0.2789 -0.0842
  296NAA     NA 6056  12.025   5.803  10.555  0.0061 -0.1174 -0.0493
  297NAA     NA 6057  11.792   7.684  12.174 -0.1420  0.1622 -0.0768
  298NAA     NA 6058  12.241   6.329  10.720 -0.2413 -0.2218  0.1779
  299NAA     NA 6059  11.068   7.254  11.879 -0.4306  0.2453  0.1101
  300NAA     NA 6060  11.115   5.764  10.263  0.1527  0.4846  0.0391
  301NAA     NA 6061  10.063   7.173  11.538  0.0518  0.2202  0.2730
  302NAA     NA 6062  11.157   6.388  11.769 -0.2503  0.2273  0.3717
  303NAA     NA 6063  10.704   6.984  10.307  0.0494  0.0587  0.1304
  304NAA     NA 6064   9.833   5.276  11.248 -0.0236  0.0734  0.0342
  305NAA     NA 6065   9.490   6.614  11.295  0.0771  0.0414  0.0274
  306NAA     NA 6066  10.337   6.213  10.084  0.0088 -0.2139 -0.2847
  307NAA     NA 6067   9.384   7.350   9.967 -0.1319 -0.0566 -0.3756
  308NAA     NA 6068   9.147   5.562   9.629  0.0340 -0.1572 -0.0516
  309NAA     NA 6069   9.109   7.071  11.233  0.1742  0.1244 -0.1595
  310NAA     NA 6070   9.377   6.108   9.786 -0.1970  0.1550  0.3572
  311NAA     NA 6071   8.167   7.080  10.928  0.2536 -0.1500  0.2869
  312NAA     NA 6072   8.191   5.474   9.322  0.0230 -0.0964 -0.1281
  313NAA     NA 6073   7.209   6.860  10.639 -0.1417 -0.3388 -0.0165
  314NAA     NA 6074   8.003   5.654  10.713 -0.3147 -0.1560  0.1852
  315NAA     NA 6075   8.197   6.835   9.515 -0.0112  0.4143  0.4555
  316NAA     NA 6076   6.863   5.090  10.282  0.2623 -0.0656 -0.0093
  317NAA     NA 6077   6.450   6.402  10.331  0.4494 -0.2066  0.3912
  318NAA     NA 6078   7.527   6.298   9.243  0.1304 -0.1503  0.2172
  319NAA     NA 6079   5.919   7.075   9.395  0.0264 -0.0804  0.1328
  320NAA     NA 6080   6.020   5.531   9.295  0.0434  0.3403 -0.0826
    1CGG    AL1 6081  14.384  15.856  15.016 -0.1033 -0.3498  0.6071
    1CGG    AL2 6082  14.227  15.074  14.856 -0.6082  0.0287  0.1583
    1CGG    AL3 6083  14.199  15.365  14.884  0.3165 -0.3440 -0.1222
    1CGG    AL4 6084  14.412  15.550  14.985 -0.1031 -0.3568 -0.2376
    1CGG   AL41 6085  14.490  14.943  14.933 -0.1657 -0.1430 -0.1302
    1CGG   AL42 6086  14.329  14.175  14.760  0.3691  0.1132  0.2159
    1CGG   AL43 6087  14.298  14.472  14.785  0.0990 -0.2577 -0.1790
    1CGG   AL44 6088  14.524  14.637  14.893  0.4776 -0.0771 -0.2592
    1CGG   AL81 6089  14.591  14.044  14.837  0.3760 -0.3040  0.0197
    1CGG   AL82 6090  14.432  13.294  14.662 -0.8560  0.1971  0.0351
    1CGG   AL83 6091  14.408  13.577  14.708 -0.0720 -0.0417 -0.1656
    1CGG   AL84 6092  14.633  13.752  14.810 -0.0364  0.6120  0.2840
    1CGG    SI5 6093  14.302  15.036  15.170  0.1296  0.0909 -0.1412
    1CGG    SI6 6094  14.233  15.663  15.226  0.0457  0.0271 -0.3832
    1CGG    SI7 6095  14.306  15.872  14.691 -0.4746  0.5975  0.0537
    1CGG    SI8 6096  14.375  15.265  14.642 -0.1096  0.1718  0.2771
    1CGG    SI9 6097  14.012  15.477  15.114 -0.1809  0.0191  0.3488
    1CGG   SI10 6098  14.052  15.174  15.095 -0.1022 -0.0290  0.0771
    1CGG   SI11 6099  14.594  15.452  14.745  0.3682 -0.0114  0.0262
    1CGG   SI12 6100  14.561  15.744  14.772 -0.1941 -0.0059  0.1528
    1CGG   SI45 6101  14.406  14.133  15.072 -0.0215 -0.2764 -0.4481
    1CGG   SI46 6102  14.354  14.734  15.138  0.1069 -0.5406  0.1870
    1CGG   SI47 6103  14.420  14.971  14.616 -0.0908 -0.6185 -0.3229
    1CGG   SI48 6104  14.477  14.373  14.545  0.0127  0.2438 -0.5797
    1CGG   SI49 6105  14.122  14.567  15.028 -0.3584  0.0371  0.1201
    1CGG   SI50 6106  14.155  14.269  15.003  0.6185 -0.0460  0.2057
    1CGG   SI51 6107  14.705  14.543  14.657  0.1705  0.1091 -0.2146
    1CGG   SI52 6108  14.669  14.835  14.688  0.0521 -0.5743 -0.6533
    1CGG   SI85 6109  14.525  13.243  14.972  0.2606 -0.0351 -0.1293
    1CGG   SI86 6110  14.448  13.848  15.045 -0.0123  0.0685 -0.7208
    1CGG   SI87 6111  14.523  14.078  14.527 -0.1390 -0.3402 -0.0824
    1CGG   SI88 6112  14.592  13.488  14.462  0.3387  0.4857 -0.0250
    1CGG   SI89 6113  14.217  13.671  14.947 -0.2364  0.1293 -0.0761
    1CGG   SI90 6114  14.261  13.380  14.912 -0.0749  0.1337 -0.2605
    1CGG   SI91 6115  14.823  13.660  14.570 -0.1156  0.1609  0.2640
    1CGG   SI92 6116  14.786  13.952  14.603  0.3800  0.3163 -0.3230
    2CGG    AL1 6117  13.903  15.799  14.828 -0.0632 -0.2591  0.0003
    2CGG    AL2 6118  13.740  15.031  14.666 -0.5551  0.2506  0.1408
    2CGG    AL3 6119  13.711  15.336  14.702 -0.0430  0.2448  0.3245
    2CGG    AL4 6120  13.933  15.513  14.803 -0.3413 -0.3439 -0.0011
    2CGG   AL41 6121  14.022  14.888  14.748  0.2409 -0.2813 -0.3244
    2CGG   AL42 6122  13.854  14.142  14.580  0.2252  0.3394 -0.0960
    2CGG   AL43 6123  13.817  14.436  14.606  0.0734  0.0657  0.0894
    2CGG   AL44 6124  14.044  14.598  14.719  0.3573  0.3771  0.6245
    2CGG   AL81 6125  14.112  13.999  14.649  0.0288 -0.1334 -0.3608
    2CGG   AL82 6126  13.959  13.245  14.475 -0.1308 -0.2086  0.7868
    2CGG   AL83 6127  13.927  13.547  14.512 -0.1433 -0.0041  0.4028
    2CGG   AL84 6128  14.154  13.712  14.629  0.2975 -0.2864 -0.0798
    2CGG    SI5 6129  13.828  15.000  14.979  0.4923 -0.4568  0.2381
    2CGG    SI6 6130  13.757  15.616  15.045  0.2662 -0.0356  0.0835
    2CGG    SI7 6131  13.816  15.829  14.514  0.0616  0.2796 -0.3011
    2CGG    SI8 6132  13.887  15.230  14.466 -0.3961 -0.1913  0.0131
    2CGG    SI9 6133  13.525  15.429  14.944  0.1673  0.2634 -0.0339
    2CGG   SI10 6134  13.564  15.132  14.906  0.1315 -0.2112  0.6887
    2CGG   SI11 6135  14.117  15.397  14.572 -0.1165 -0.3225  0.0547
    2CGG   SI12 6136  14.079  15.700  14.582 -0.3281  0.5147 -0.1519
    2CGG   SI45 6137  13.926  14.100  14.890 -0.2558  0.4263  0.0782
    2CGG   SI46 6138  13.860  14.696  14.956 -0.2468  0.4719 -0.0883
    2CGG   SI47 6139  13.931  14.932  14.436  0.2026 -0.3797 -0.1134
    2CGG   SI48 6140  13.999  14.335  14.365  0.0489  0.0688 -0.4281
    2CGG   SI49 6141  13.631  14.525  14.846  0.5335  0.0491  0.2511
    2CGG   SI50 6142  13.675  14.232  14.819 -0.1688 -0.5754 -0.2293
    2CGG   SI51 6143  14.226  14.513  14.475  0.0416  0.1217  0.0162
    2CGG   SI52 6144  14.187  14.802  14.510  0.0301 -0.1674 -0.2707
    2CGG   SI85 6145  14.038  13.215  14.786  0.5194  0.1090 -0.0683
    2CGG   SI86 6146  13.962  13.803  14.858 -0.4170 -0.4137  0.4625
    2CGG   SI87 6147  14.040  14.042  14.340 -0.1091 -0.1610 -0.1497
    2CGG   SI88 6148  14.113  13.438  14.276  0.1219 -0.0864 -0.3561
    2CGG   SI89 6149  13.743  13.636  14.748  0.1845 -0.2611 -0.0831
    2CGG   SI90 6150  13.778  13.340  14.710  0.2587  0.3461  0.1067
    2CGG   SI91 6151  14.337  13.611  14.393  0.3084 -0.2031 -0.0247
    2CGG   SI92 6152  14.295  13.905  14.416 -0.1042  0.0583  0.1817
    3CGG    AL1 6153  13.428  15.749  14.665 -0.1567 -0.5479 -0.1458
    3CGG    AL2 6154  13.260  14.999  14.489 -0.3267 -0.0276  0.1399
    3CGG    AL3 6155  13.226  15.301  14.522 -0.1349 -0.2568  0.3517
    3CGG    AL4 6156  13.450  15.466  14.629 -0.6795 -0.1204 -0.1992
    3CGG   AL41 6157  13.518  14.858  14.554 -0.0785 -0.1953 -0.0981
    3CGG   AL42 6158  13.370  14.103  14.387 -0.2662 -0.4265  0.1348
    3CGG   AL43 6159  13.333  14.404  14.416 -0.3632  0.0278  0.2232
    3CGG   AL44 6160  13.566  14.567  14.529  0.1341 -0.0211 -0.1808
    3CGG   AL81 6161  13.636  13.963  14.458 -0.0227  0.3661 -0.3798
    3CGG   AL82 6162  13.483  13.198  14.299 -0.4745 -0.0679  0.0530
    3CGG   AL83 6163  13.445  13.500  14.330  0.0572  0.3103 -0.1223
    3CGG   AL84 6164  13.671  13.673  14.431 -0.3141  0.1372 -0.1681
    3CGG    SI5 6165  13.341  14.958  14.797  0.2652 -0.2851 -0.0137
    3CGG    SI6 6166  13.266  15.558  14.879  0.2098 -0.2758 -0.1395
    3CGG    SI7 6167  13.336  15.801  14.359 -0.0125  0.2859 -0.2446
    3CGG    SI8 6168  13.406  15.201  14.285  0.1615  0.1689 -0.1017
    3CGG    SI9 6169  13.042  15.388  14.759 -0.2013 -0.0495 -0.2725
    3CGG   SI10 6170  13.089  15.097  14.730 -0.2954 -0.2220  0.6394
    3CGG   SI11 6171  13.642  15.368  14.387  0.0343  0.0765  0.3663
    3CGG   SI12 6172  13.596  15.661  14.417 -0.2576  0.5194 -0.2562
    3CGG   SI45 6173  13.456  14.069  14.696  0.0728  0.0762  0.1333
    3CGG   SI46 6174  13.381  14.666  14.772 -0.3869 -0.1440  0.4110
    3CGG   SI47 6175  13.445  14.909  14.246 -0.2107  0.3163  0.1862
    3CGG   SI48 6176  13.520  14.296  14.179  0.1907 -0.7034 -0.0986
    3CGG   SI49 6177  13.155  14.497  14.660 -0.2356  0.2390  0.2668
    3CGG   SI50 6178  13.198  14.209  14.626 -0.1822  0.5290  0.0967
    3CGG   SI51 6179  13.743  14.471  14.295  0.2568 -0.1491 -0.2577
    3CGG   SI52 6180  13.700  14.771  14.320 -0.3031  0.0447  0.1214
    3CGG   SI85 6181  13.553  13.167  14.613  0.1071 -0.3658 -0.4120
    3CGG   SI86 6182  13.491  13.768  14.673  0.3406 -0.4385 -0.4850
    3CGG   SI87 6183  13.563  14.004  14.158 -0.1528  0.3798 -0.3296
    3CGG   SI88 6184  13.627  13.399  14.091 -0.0309 -0.2983  0.2399
    3CGG   SI89 6185  13.260  13.594  14.566  0.1558 -0.3721 -0.1675
    3CGG   SI90 6186  13.298  13.304  14.540 -0.1138  0.1227 -0.0531
    3CGG   SI91 6187  13.862  13.571  14.200 -0.4878  0.2752 -0.4792
    3CGG   SI92 6188  13.824  13.867  14.229  0.0543 -0.1834 -0.0156
    4CGG    AL1 6189  12.921  15.727  14.504  0.1928  0.0585  0.6511
    4CGG    AL2 6190  12.780  14.967  14.302 -0.2932 -0.0362 -0.5922
    4CGG    AL3 6191  12.741  15.256  14.342 -0.1642 -0.0725 -0.3667
    4CGG    AL4 6192  12.965  15.423  14.451  0.1387 -0.0347  0.2497
    4CGG   AL41 6193  13.050  14.823  14.377 -0.0885  0.1216 -0.0102
    4CGG   AL42 6194  12.900  14.060  14.206  0.4509  0.3898 -0.0719
    4CGG   AL43 6195  12.869  14.359  14.239  0.1360  0.0624  0.8189
    4CGG   AL44 6196  13.086  14.534  14.345 -0.2813  0.0042 -0.1627
    4CGG   AL81 6197  13.150  13.923  14.277 -0.0235 -0.3939 -0.1919
    4CGG   AL82 6198  13.007  13.163  14.111 -0.0053 -0.5531 -0.3763
    4CGG   AL83 6199  12.974  13.464  14.152 -0.1169 -0.2786 -0.0715
    4CGG   AL84 6200  13.187  13.632  14.252  0.0271 -0.1655 -0.4577
    4CGG    SI5 6201  12.872  14.926  14.610  0.4841  0.1455 -0.2445
    4CGG    SI6 6202  12.778  15.513  14.695 -0.3711 -0.3072 -0.1709
    4CGG    SI7 6203  12.846  15.768  14.192  0.0570 -0.3524  0.1537
    4CGG    SI8 6204  12.922  15.166  14.098 -0.1471 -0.2737  0.0490
    4CGG    SI9 6205  12.548  15.345  14.583 -0.3934  0.2112  0.5819
    4CGG   SI10 6206  12.605  15.045  14.545 -0.2494 -0.3760 -0.1561
    4CGG   SI11 6207  13.154  15.341  14.212 -0.0084  0.4391 -0.4247
    4CGG   SI12 6208  13.103  15.637  14.254  0.0920  0.3042 -0.4927
    4CGG   SI45 6209  12.976  14.025  14.523 -0.0018  0.3118  0.0391
    4CGG   SI46 6210  12.903  14.629  14.586 -0.1194  0.0742  0.2448
    4CGG   SI47 6211  12.968  14.869  14.064  0.1550  0.1188 -0.2347
    4CGG   SI48 6212  13.044  14.258  13.991 -0.3111  0.3210  0.1153
    4CGG   SI49 6213  12.680  14.454  14.466  0.3118  0.1045  0.1346
    4CGG   SI50 6214  12.721  14.161  14.443  0.5525  0.3218 -0.5554
    4CGG   SI51 6215  13.271  14.438  14.106 -0.3193  0.1862  0.0995
    4CGG   SI52 6216  13.224  14.736  14.129  0.1994  0.2922 -0.1359
    4CGG   SI85 6217  13.077  13.136  14.423  0.0122  0.2163 -0.3955
    4CGG   SI86 6218  13.015  13.734  14.498 -0.1133  0.0678  0.1720
    4CGG   SI87 6219  13.085  13.960  13.968  0.0438  0.0272  0.0564
    4CGG   SI88 6220  13.146  13.361  13.910 -0.1394 -0.0011  0.3525
    4CGG   SI89 6221  12.785  13.569  14.386 -0.0493  0.5819 -0.1799
    4CGG   SI90 6222  12.823  13.266  14.350  0.5993 -0.2614  0.0568
    4CGG   SI91 6223  13.378  13.527  14.016 -0.4338 -0.0771 -0.3685
    4CGG   SI92 6224  13.336  13.823  14.047  0.0102 -0.2476  0.2186
    5CGG    AL1 6225  12.434  15.685  14.297  0.0407 -0.1350 -0.1693
    5CGG    AL2 6226  12.300  14.920  14.121  0.1130 -0.5478 -0.2740
    5CGG    AL3 6227  12.262  15.223  14.165  0.2931 -0.0820 -0.1801
    5CGG    AL4 6228  12.481  15.390  14.273  0.4729 -0.4359 -0.0436
    5CGG   AL41 6229  12.567  14.786  14.186  0.1161  0.1019 -0.0886
    5CGG   AL42 6230  12.414  14.022  14.028 -0.2867 -0.0675 -0.2166
    5CGG   AL43 6231  12.383  14.318  14.063  0.4218 -0.2295 -0.0404
    5CGG   AL44 6232  12.610  14.495  14.161  0.1396  0.5784 -0.3024
    5CGG   AL81 6233  12.670  13.889  14.099 -0.1777  0.0260 -0.0036
    5CGG   AL82 6234  12.517  13.132  13.932 -0.1344 -0.2105 -0.1958
    5CGG   AL83 6235  12.478  13.429  13.968 -0.0766  0.0141 -0.1067
    5CGG   AL84 6236  12.712  13.598  14.076 -0.3076 -0.1586 -0.3534
    5CGG    SI5 6237  12.385  14.886  14.431 -0.0555 -0.0850 -0.3701
    5CGG    SI6 6238  12.292  15.489  14.512 -0.2342  0.0172 -0.2120
    5CGG    SI7 6239  12.371  15.713  13.987 -0.4888 -0.2152  0.2884
    5CGG    SI8 6240  12.441  15.130  13.923  0.5576  0.0867  0.1691
    5CGG    SI9 6241  12.071  15.315  14.395  0.2616 -0.1554  0.0718
    5CGG   SI10 6242  12.129  15.021  14.366  0.1730 -0.2150 -0.0724
    5CGG   SI11 6243  12.666  15.302  14.039 -0.1860 -0.1456  0.1821
    5CGG   SI12 6244  12.626  15.591  14.071 -0.3776 -0.0225  0.0834
    5CGG   SI45 6245  12.500  13.990  14.342  0.2400 -0.3968 -0.0588
    5CGG   SI46 6246  12.422  14.594  14.400  0.1418  0.4449  0.0052
    5CGG   SI47 6247  12.483  14.826  13.877 -0.2417 -0.1029 -0.4729
    5CGG   SI48 6248  12.558  14.220  13.817 -0.2141 -0.5712  0.2131
    5CGG   SI49 6249  12.194  14.413  14.297 -0.3007  0.2339 -0.4860
    5CGG   SI50 6250  12.244  14.121  14.275 -0.2760  0.4582  0.2061
    5CGG   SI51 6251  12.794  14.391  13.923  0.3360 -0.4638  0.0941
    5CGG   SI52 6252  12.751  14.697  13.947  0.2785  0.6309 -0.1322
    5CGG   SI85 6253  12.602  13.099  14.244  0.3642  0.1218  0.0852
    5CGG   SI86 6254  12.524  13.698  14.306 -0.1090  0.2426 -0.1862
    5CGG   SI87 6255  12.597  13.921  13.789  0.1697 -0.3479 -0.0244
    5CGG   SI88 6256  12.665  13.337  13.727 -0.1034  0.0101 -0.0054
    5CGG   SI89 6257  12.296  13.518  14.213 -0.1332 -0.2140  0.1402
    5CGG   SI90 6258  12.349  13.227  14.186 -0.8588 -0.1142 -0.1048
    5CGG   SI91 6259  12.887  13.499  13.840 -0.3707 -0.2450  0.2357
    5CGG   SI92 6260  12.857  13.792  13.864  0.1317  0.0434 -0.3489
    6CGG    AL1 6261  11.967  15.638  14.110 -0.0900 -0.0054  0.4775
    6CGG    AL2 6262  11.820  14.885  13.952 -0.1823  0.1051  0.3030
    6CGG    AL3 6263  11.772  15.178  13.980 -0.0885  0.1212  0.0991
    6CGG    AL4 6264  11.996  15.349  14.080 -0.6192  0.0579 -0.1564
    6CGG   AL41 6265  12.082  14.744  14.018  0.4458 -0.4827  0.2354
    6CGG   AL42 6266  11.929  13.980  13.859  0.1180 -0.1671 -0.0261
    6CGG   AL43 6267  11.892  14.288  13.883  0.3626  0.1107  0.0846
    6CGG   AL44 6268  12.117  14.443  13.981  0.1653  0.0317 -0.5588
    6CGG   AL81 6269  12.191  13.849  13.926 -0.1931 -0.3205 -0.4315
    6CGG   AL82 6270  12.033  13.097  13.761 -0.2797 -0.2227 -0.1720
    6CGG   AL83 6271  11.993  13.396  13.798  0.1279 -0.1758  0.1041
    6CGG   AL84 6272  12.225  13.566  13.898 -0.2411  0.3292  0.1182
    6CGG    SI5 6273  11.899  14.842  14.254 -0.2204 -0.0150 -0.0895
    6CGG    SI6 6274  11.821  15.448  14.328  0.4416 -0.0561 -0.3876
    6CGG    SI7 6275  11.888  15.664  13.788 -0.1852  0.2031  0.1493
    6CGG    SI8 6276  11.947  15.082  13.733 -0.2474 -0.0506 -0.2475
    6CGG    SI9 6277  11.600  15.272  14.223 -0.0121 -0.2008 -0.6374
    6CGG   SI10 6278  11.641  14.976  14.194  0.1341  0.0279 -0.0641
    6CGG   SI11 6279  12.182  15.255  13.844 -0.2436 -0.3093 -0.5447
    6CGG   SI12 6280  12.147  15.543  13.872 -0.3886 -0.1469 -0.2657
    6CGG   SI45 6281  12.015  13.950  14.167  0.2684 -0.0916  0.1119
    6CGG   SI46 6282  11.942  14.548  14.228  0.1480  0.1388 -0.3669
    6CGG   SI47 6283  12.002  14.787  13.708  0.4348  0.2470 -0.1360
    6CGG   SI48 6284  12.069  14.180  13.645  0.2923 -0.0200  0.4043
    6CGG   SI49 6285  11.710  14.376  14.120  0.0364  0.2597 -0.4268
    6CGG   SI50 6286  11.750  14.082  14.092 -0.3116  0.1429  0.3136
    6CGG   SI51 6287  12.303  14.347  13.746  0.1475  0.0623 -0.3771
    6CGG   SI52 6288  12.264  14.648  13.777 -0.1303 -0.2129  0.1878
    6CGG   SI85 6289  12.125  13.065  14.070  0.2247  0.5162 -0.3774
    6CGG   SI86 6290  12.049  13.665  14.134 -0.1510  0.0951 -0.3046
    6CGG   SI87 6291  12.109  13.886  13.619 -0.0050  0.2796  0.2908
    6CGG   SI88 6292  12.177  13.299  13.551  0.3416  0.1813  0.1000
    6CGG   SI89 6293  11.816  13.490  14.035 -0.4575 -0.0025 -0.2645
    6CGG   SI90 6294  11.859  13.196  14.008  0.2617 -0.3074  0.2721
    6CGG   SI91 6295  12.408  13.464  13.656 -0.1497 -0.3988 -0.2865
    6CGG   SI92 6296  12.367  13.753  13.686  0.2872 -0.2962 -0.1103
    7CGG    AL1 6297  11.485  15.608  13.946 -0.0096 -0.0912 -0.2146
    7CGG    AL2 6298  11.337  14.839  13.784  0.2316  0.4187  0.0238
    7CGG    AL3 6299  11.283  15.136  13.814 -0.3590 -0.1326  0.1521
    7CGG    AL4 6300  11.516  15.300  13.918 -0.2663  0.4571 -0.0012
    7CGG   AL41 6301  11.604  14.700  13.847 -0.0740  0.0193  0.0361
    7CGG   AL42 6302  11.445  13.948  13.681  0.2053  0.6490 -0.3207
    7CGG   AL43 6303  11.409  14.245  13.708  0.3156  0.0517  0.0195
    7CGG   AL44 6304  11.631  14.421  13.815  0.1362 -0.0020  0.1106
    7CGG   AL81 6305  11.705  13.807  13.755 -0.1006  0.0850 -0.0251
    7CGG   AL82 6306  11.551  13.056  13.583  0.2510 -0.4507 -0.1851
    7CGG   AL83 6307  11.512  13.348  13.619  0.3301  0.0136 -0.0297
    7CGG   AL84 6308  11.736  13.523  13.727  0.0843 -0.0377  0.4839
    7CGG    SI5 6309  11.425  14.798  14.092 -0.3214 -0.2920  0.0518
    7CGG    SI6 6310  11.343  15.404  14.154 -0.5850  0.0931 -0.2906
    7CGG    SI7 6311  11.392  15.631  13.642  0.1787  0.4281 -0.4766
    7CGG    SI8 6312  11.460  15.041  13.568 -0.6527  0.2354 -0.4113
    7CGG    SI9 6313  11.110  15.222  14.058 -0.3368 -0.0795 -0.3169
    7CGG   SI10 6314  11.161  14.931  14.029 -0.2317  0.1652 -0.3878
    7CGG   SI11 6315  11.691  15.212  13.671 -0.2916  0.4068  0.1760
    7CGG   SI12 6316  11.654  15.498  13.702  0.4432  0.3293 -0.1423
    7CGG   SI45 6317  11.522  13.908  13.991 -0.1887  0.3020 -0.5899
    7CGG   SI46 6318  11.455  14.501  14.058  0.0492 -0.5440  0.0439
    7CGG   SI47 6319  11.516  14.745  13.547 -0.3790  0.1380  0.3523
    7CGG   SI48 6320  11.587  14.143  13.472  0.0255  0.1206 -0.2520
    7CGG   SI49 6321  11.232  14.332  13.947 -0.1950  0.1063  0.0855
    7CGG   SI50 6322  11.267  14.043  13.915 -0.0341 -0.2912 -0.0412
    7CGG   SI51 6323  11.818  14.319  13.578  0.1479  0.3339 -0.3451
    7CGG   SI52 6324  11.779  14.613  13.609  0.1427  0.0343  0.2324
    7CGG   SI85 6325  11.631  13.028  13.896  0.1057  0.0054  0.4876
    7CGG   SI86 6326  11.558  13.614  13.971 -0.2094 -0.7336  0.4331
    7CGG   SI87 6327  11.628  13.850  13.438  0.2733  0.2557 -0.2888
    7CGG   SI88 6328  11.693  13.255  13.377 -0.0419  0.1737  0.0263
    7CGG   SI89 6329  11.329  13.434  13.862 -0.2827 -0.2907  0.0820
    7CGG   SI90 6330  11.377  13.143  13.830  0.2318  0.2499  0.6208
    7CGG   SI91 6331  11.922  13.433  13.487 -0.1090  0.1811 -0.0668
    7CGG   SI92 6332  11.883  13.723  13.515  0.0226  0.5220  0.1848
    8CGG    AL1 6333  10.976  15.560  13.786 -0.5870  0.3411  0.0984
    8CGG    AL2 6334  10.837  14.791  13.620  0.1277  0.0662  0.1200
    8CGG    AL3 6335  10.797  15.090  13.655  0.3336 -0.1258  0.2789
    8CGG    AL4 6336  11.025  15.267  13.753  0.1320  0.4302 -0.0863
    8CGG   AL41 6337  11.111  14.663  13.680  0.1026 -0.0306 -0.1932
    8CGG   AL42 6338  10.954  13.908  13.514  0.2401 -0.7858 -0.1847
    8CGG   AL43 6339  10.916  14.199  13.545 -0.4031 -0.5836 -0.2845
    8CGG   AL44 6340  11.144  14.362  13.642  0.0782 -0.1400  0.2436
    8CGG   AL81 6341  11.215  13.773  13.579 -0.2346  0.3501  0.3542
    8CGG   AL82 6342  11.069  13.016  13.407  0.1830  0.3441  0.4705
    8CGG   AL83 6343  11.030  13.312  13.441 -0.0770 -0.0567  0.3352
    8CGG   AL84 6344  11.259  13.473  13.550 -0.0062 -0.1328 -0.0231
    8CGG    SI5 6345  10.932  14.756  13.927  0.1071 -0.3425 -0.2591
    8CGG    SI6 6346  10.859  15.353  13.996  0.1361  0.5792 -0.4150
    8CGG    SI7 6347  10.896  15.591  13.474 -0.2274  0.4755 -0.0881
    8CGG    SI8 6348  10.969  14.990  13.409  0.4240  0.2683 -0.6387
    8CGG    SI9 6349  10.630  15.173  13.898 -0.1818  0.1497  0.3023
    8CGG   SI10 6350  10.666  14.878  13.863  0.5314 -0.3677 -0.0041
    8CGG   SI11 6351  11.195  15.166  13.509 -0.2952  0.1385  0.0389
    8CGG   SI12 6352  11.156  15.462  13.541  0.5868  0.1687 -0.0650
    8CGG   SI45 6353  11.040  13.867  13.819 -0.0392 -0.2534  0.0771
    8CGG   SI46 6354  10.977  14.467  13.893  0.2896 -0.0508  0.0193
    8CGG   SI47 6355  11.018  14.706  13.377  0.0935  0.5604  0.3064
    8CGG   SI48 6356  11.093  14.110  13.301 -0.1923  0.0459 -0.2084
    8CGG   SI49 6357  10.739  14.302  13.789  0.0489  0.4081  0.2771
    8CGG   SI50 6358  10.778  14.009  13.762  0.1176 -0.4580 -0.3199
    8CGG   SI51 6359  11.329  14.280  13.401 -0.2899 -0.6002  0.1984
    8CGG   SI52 6360  11.280  14.573  13.436 -0.3887  0.2954 -0.1426
    8CGG   SI85 6361  11.148  12.972  13.716 -0.4418  0.0645  0.0464
    8CGG   SI86 6362  11.083  13.572  13.788  0.2350 -0.1897 -0.3432
    8CGG   SI87 6363  11.133  13.813  13.270 -0.0993 -0.0433  0.6754
    8CGG   SI88 6364  11.208  13.219  13.195 -0.0667  0.1044 -0.4922
    8CGG   SI89 6365  10.858  13.407  13.683  0.4218  0.4729  0.0546
    8CGG   SI90 6366  10.896  13.113  13.648  0.2909  0.2178  0.4083
    8CGG   SI91 6367  11.441  13.393  13.310  0.0747  0.2539 -0.4919
    8CGG   SI92 6368  11.395  13.680  13.338  0.1827 -0.0412 -0.5412
    9CGG    AL1 6369  10.515  15.502  13.636 -0.1101 -0.1262 -0.4370
    9CGG    AL2 6370  10.343  14.753  13.454 -0.2726 -0.2124 -0.0290
    9CGG    AL3 6371  10.315  15.049  13.490 -0.3031 -0.3083 -0.1934
    9CGG    AL4 6372  10.542  15.220  13.590  0.1752 -0.1537 -0.3830
    9CGG   AL41 6373  10.617  14.621  13.515 -0.2794  0.1967 -0.0590
    9CGG   AL42 6374  10.463  13.872  13.350 -0.1562  0.3877 -0.1557
    9CGG   AL43 6375  10.427  14.165  13.379  0.1477  0.0638 -0.3897
    9CGG   AL44 6376  10.660  14.334  13.478  0.2567  0.0914 -0.6018
    9CGG   AL81 6377  10.726  13.740  13.413 -0.2573 -0.0644  0.5269
    9CGG   AL82 6378  10.580  12.982  13.235  0.1539  0.5250  0.2188
    9CGG   AL83 6379  10.547  13.275  13.269  0.2545  0.7310  0.0600
    9CGG   AL84 6380  10.771  13.441  13.375 -0.0354 -0.2850  0.1665
    9CGG    SI5 6381  10.443  14.710  13.756 -0.2175  0.2569 -0.4133
    9CGG    SI6 6382  10.366  15.304  13.845 -0.6726 -0.3736 -0.6888
    9CGG    SI7 6383  10.414  15.557  13.333 -0.0521 -0.4386 -0.2469
    9CGG    SI8 6384  10.488  14.959  13.243 -0.0665  0.0654  0.4417
    9CGG    SI9 6385  10.135  15.138  13.741  0.1919  0.1677 -0.1168
    9CGG   SI10 6386  10.179  14.848  13.700 -0.4620  0.1592 -0.0702
    9CGG   SI11 6387  10.712  15.125  13.347  0.3785  0.1034 -0.1421
    9CGG   SI12 6388  10.676  15.423  13.382 -0.0103 -0.3792  0.3681
    9CGG   SI45 6389  10.562  13.843  13.656 -0.4038  0.0345  0.0736
    9CGG   SI46 6390  10.480  14.421  13.726 -0.0824 -0.1976  0.0805
    9CGG   SI47 6391  10.525  14.670  13.211 -0.0345 -0.0167  0.2972
    9CGG   SI48 6392  10.602  14.074  13.142 -0.0034 -0.3469 -0.0961
    9CGG   SI49 6393  10.248  14.250  13.627  0.0265 -0.1225 -0.5453
    9CGG   SI50 6394  10.297  13.960  13.596 -0.3003 -0.0724  0.0367
    9CGG   SI51 6395  10.836  14.248  13.233 -0.4022 -0.6888 -0.1025
    9CGG   SI52 6396  10.797  14.537  13.270  0.3413  0.2108  0.4853
    9CGG   SI85 6397  10.674  12.950  13.540 -0.1503  0.0281 -0.6471
    9CGG   SI86 6398  10.594  13.540  13.619 -0.2138  0.0113 -0.2760
    9CGG   SI87 6399  10.639  13.782  13.107  0.1160 -0.2360  0.2035
    9CGG   SI88 6400  10.716  13.185  13.020 -0.0250  0.0543  0.3572
    9CGG   SI89 6401  10.368  13.371  13.512 -0.1618  0.1819 -0.1377
    9CGG   SI90 6402  10.421  13.081  13.484  0.1469  0.9596  0.0290
    9CGG   SI91 6403  10.952  13.356  13.130  0.3194  0.1186  0.1883
    9CGG   SI92 6404  10.905  13.653  13.165 -0.1246  0.1343 -0.0320
   10CGG    AL1 6405  10.009  15.469  13.465  0.3769 -0.2258 -0.2187
   10CGG    AL2 6406   9.861  14.717  13.287 -0.3974 -0.0966 -0.4130
   10CGG    AL3 6407   9.823  15.011  13.322 -0.0312 -0.2625 -0.0665
   10CGG    AL4 6408  10.049  15.181  13.431  0.0533  0.4130  0.0147
   10CGG   AL41 6409  10.119  14.585  13.349 -0.2182  0.5044  0.0225
   10CGG   AL42 6410   9.976  13.831  13.180  0.0365 -0.0890 -0.1283
   10CGG   AL43 6411   9.936  14.129  13.219  0.2638  0.1884  0.1665
   10CGG   AL44 6412  10.166  14.294  13.318  0.1928  0.3490 -0.0703
   10CGG   AL81 6413  10.240  13.698  13.237  0.1682  0.2286 -0.3034
   10CGG   AL82 6414  10.088  12.940  13.070  0.4267  0.1159 -0.1457
   10CGG   AL83 6415  10.061  13.232  13.105  0.2193 -0.0069 -0.4312
   10CGG   AL84 6416  10.274  13.403  13.205 -0.0126 -0.3362 -0.6124
   10CGG    SI5 6417   9.949  14.682  13.597  0.1009  0.2037  0.2039
   10CGG    SI6 6418   9.876  15.281  13.676  0.1016 -0.2449 -0.2881
   10CGG    SI7 6419   9.922  15.513  13.160  0.0864 -0.1987 -0.0031
   10CGG    SI8 6420   9.995  14.920  13.078  0.1264  0.0220 -0.3527
   10CGG    SI9 6421   9.640  15.108  13.569  0.0360  0.2863  0.0051
   10CGG   SI10 6422   9.693  14.812  13.537 -0.0158 -0.4689  0.0422
   10CGG   SI11 6423  10.227  15.093  13.185 -0.3670 -0.1712  0.0384
   10CGG   SI12 6424  10.186  15.381  13.221  0.0705 -0.1439  0.1907
   10CGG   SI45 6425  10.071  13.793  13.488 -0.5566  0.3335  0.2104
   10CGG   SI46 6426   9.988  14.388  13.563 -0.0971 -0.2078 -0.0816
   10CGG   SI47 6427  10.037  14.622  13.041  0.0441 -0.3838  0.2788
   10CGG   SI48 6428  10.115  14.029  12.978 -0.0167 -0.3869 -0.0206
   10CGG   SI49 6429   9.759  14.209  13.460 -0.1717  0.0513  0.0280
   10CGG   SI50 6430   9.803  13.918  13.428 -0.4609  0.4154  0.4505
   10CGG   SI51 6431  10.343  14.204  13.069 -0.2991  0.2975  0.4465
   10CGG   SI52 6432  10.292  14.496  13.108  0.0664  0.5051  0.2776
   10CGG   SI85 6433  10.184  12.910  13.380  0.1866 -0.0651  0.2745
   10CGG   SI86 6434  10.108  13.499  13.455 -0.3539  0.2514 -0.0190
   10CGG   SI87 6435  10.153  13.734  12.929  0.2777  0.4010 -0.2015
   10CGG   SI88 6436  10.227  13.136  12.851  0.1718 -0.3399 -0.2244
   10CGG   SI89 6437   9.878  13.328  13.354  0.3808 -0.2076 -0.2479
   10CGG   SI90 6438   9.926  13.034  13.322  0.2244 -0.4550 -0.3102
   10CGG   SI91 6439  10.455  13.315  12.962  0.1324  0.1092  0.1370
   10CGG   SI92 6440  10.412  13.606  12.999 -0.3719  0.0948  0.2344
   11CGG    AL1 6441   9.519  15.447  13.301  0.4513  0.2271  0.1918
   11CGG    AL2 6442   9.376  14.670  13.126  0.3026  0.3131  0.4085
   11CGG    AL3 6443   9.344  14.968  13.164  0.2949  0.3170 -0.2458
   11CGG    AL4 6444   9.560  15.143  13.265  0.1742 -0.7560 -0.1482
   11CGG   AL41 6445   9.637  14.533  13.180 -0.1646 -0.0936 -0.0911
   11CGG   AL42 6446   9.482  13.784  13.019 -0.0607  0.6806 -0.1101
   11CGG   AL43 6447   9.453  14.083  13.050  0.5495  0.2615  0.1833
   11CGG   AL44 6448   9.676  14.246  13.149  0.2304 -0.1338 -0.1931
   11CGG   AL81 6449   9.747  13.651  13.079  0.2437  0.0454  0.4182
   11CGG   AL82 6450   9.603  12.892  12.914  0.3535 -0.3247  0.1910
   11CGG   AL83 6451   9.566  13.185  12.948  0.1954 -0.1568 -0.4390
   11CGG   AL84 6452   9.794  13.363  13.047 -0.4678  0.0215 -0.1953
   11CGG    SI5 6453   9.467  14.637  13.431 -0.1934  0.1745 -0.2214
   11CGG    SI6 6454   9.383  15.246  13.507  0.1424  0.3524 -0.4033
   11CGG    SI7 6455   9.443  15.469  12.984  0.4875  0.1968  0.6724
   11CGG    SI8 6456   9.507  14.875  12.920 -0.0279  0.3913  0.2857
   11CGG    SI9 6457   9.162  15.059  13.408 -0.0595  0.1253  0.3333
   11CGG   SI10 6458   9.208  14.767  13.370  0.0745  0.1741  0.2400
   11CGG   SI11 6459   9.736  15.053  13.022 -0.3938 -0.4897  0.2535
   11CGG   SI12 6460   9.703  15.349  13.061 -0.1122  0.4824  0.4411
   11CGG   SI45 6461   9.575  13.746  13.328  0.1147  0.0267 -0.1711
   11CGG   SI46 6462   9.503  14.340  13.398  0.2910  0.0590  0.1243
   11CGG   SI47 6463   9.552  14.583  12.875 -0.3980  0.2631 -0.0152
   11CGG   SI48 6464   9.628  13.983  12.808 -0.1810  0.2355 -0.4996
   11CGG   SI49 6465   9.275  14.171  13.293  0.1359 -0.5969 -0.1999
   11CGG   SI50 6466   9.313  13.881  13.267  0.2222 -0.0809  0.7077
   11CGG   SI51 6467   9.860  14.160  12.908 -0.0156  0.0637  0.6018
   11CGG   SI52 6468   9.813  14.452  12.933 -0.0028 -0.3054  0.3071
   11CGG   SI85 6469   9.708  12.859  13.222 -0.0551  0.2632  0.2306
   11CGG   SI86 6470   9.613  13.453  13.294  0.2962  0.2762 -0.1477
   11CGG   SI87 6471   9.661  13.692  12.776  0.0480  0.1280 -0.2162
   11CGG   SI88 6472   9.742  13.088  12.702  0.2782  0.0727  0.3590
   11CGG   SI89 6473   9.389  13.271  13.193 -0.1376 -0.0156 -0.0986
   11CGG   SI90 6474   9.440  12.981  13.171 -0.1157 -0.1847  0.3272
   11CGG   SI91 6475   9.967  13.274  12.798  0.0024 -0.1839  0.0523
   11CGG   SI92 6476   9.924  13.566  12.832 -0.1353  0.1332  0.0442
   12CGG    AL1 6477   9.015  15.385  13.131  0.3658 -0.3860  0.0316
   12CGG    AL2 6478   8.890  14.631  12.963 -0.4455  0.3572 -0.0200
   12CGG    AL3 6479   8.853  14.926  13.011  0.2780  0.3688 -0.4474
   12CGG    AL4 6480   9.078  15.096  13.103 -0.9841 -0.0916 -0.2269
   12CGG   AL41 6481   9.149  14.495  13.018  0.2061 -0.0040  0.4320
   12CGG   AL42 6482   8.992  13.728  12.857  0.1138  0.0213  0.3383
   12CGG   AL43 6483   8.964  14.033  12.888 -0.1572  0.0986 -0.4680
   12CGG   AL44 6484   9.193  14.213  12.988  0.1234  0.5949 -0.5480
   12CGG   AL81 6485   9.262  13.601  12.912 -0.5752 -0.1091  0.2407
   12CGG   AL82 6486   9.116  12.838  12.746 -0.0801  0.4004  0.1425
   12CGG   AL83 6487   9.083  13.137  12.779  0.1580  0.2822 -0.0294
   12CGG   AL84 6488   9.300  13.304  12.885 -0.3087 -0.3981 -0.2972
   12CGG    SI5 6489   8.983  14.588  13.269  0.3262 -0.1528  0.0226
   12CGG    SI6 6490   8.901  15.185  13.353  0.3538 -0.0806  0.2885
   12CGG    SI7 6491   8.943  15.422  12.816 -0.0640  0.3450 -0.1329
   12CGG    SI8 6492   9.021  14.831  12.760 -0.0217 -0.0235  0.6133
   12CGG    SI9 6493   8.669  15.010  13.254  0.1848  0.1315  0.3547
   12CGG   SI10 6494   8.721  14.717  13.214  0.3928 -0.4095  0.0746
   12CGG   SI11 6495   9.249  15.007  12.856  0.1426  0.4018  0.2380
   12CGG   SI12 6496   9.206  15.298  12.891  0.3716 -0.3876 -0.2352
   12CGG   SI45 6497   9.087  13.700  13.158 -0.1512  0.0517 -0.2460
   12CGG   SI46 6498   9.021  14.297  13.229  0.0999  0.5347 -0.2136
   12CGG   SI47 6499   9.059  14.535  12.716 -0.2062 -0.2308  0.2342
   12CGG   SI48 6500   9.132  13.936  12.647  0.4294 -0.6605 -0.1610
   12CGG   SI49 6501   8.787  14.114  13.133 -0.1006  0.0116 -0.3390
   12CGG   SI50 6502   8.830  13.824  13.100  0.7089 -0.1260 -0.0345
   12CGG   SI51 6503   9.373  14.120  12.740 -0.0950  0.1645  0.1155
   12CGG   SI52 6504   9.321  14.409  12.774 -0.3761  0.3171  0.2525
   12CGG   SI85 6505   9.207  12.809  13.053  0.1054 -0.0852  0.3113
   12CGG   SI86 6506   9.124  13.404  13.127 -0.3182  0.4236 -0.1452
   12CGG   SI87 6507   9.177  13.644  12.610 -0.2216  0.0549  0.1493
   12CGG   SI88 6508   9.252  13.039  12.531 -0.4083 -0.3888 -0.2991
   12CGG   SI89 6509   8.905  13.226  13.024 -0.0041  0.2649  0.0302
   12CGG   SI90 6510   8.944  12.937  12.992  0.0946  0.2746  0.1831
   12CGG   SI91 6511   9.482  13.212  12.642  0.1409 -0.1339 -0.1324
   12CGG   SI92 6512   9.440  13.511  12.671 -0.2857 -0.2686  0.1881
   13CGG    AL1 6513   8.541  15.346  12.982  0.2879  0.1143 -0.2114
   13CGG    AL2 6514   8.396  14.586  12.812  0.0787  0.2070  0.6059
   13CGG    AL3 6515   8.359  14.883  12.852  0.0470  0.0988 -0.5166
   13CGG    AL4 6516   8.585  15.048  12.947 -0.1482 -0.0543 -0.3123
   13CGG   AL41 6517   8.664  14.455  12.864 -0.2401  0.1915 -0.0852
   13CGG   AL42 6518   8.508  13.692  12.685  0.1598 -0.0330 -0.3448
   13CGG   AL43 6519   8.476  13.986  12.728 -0.0428 -0.2547 -0.0881
   13CGG   AL44 6520   8.697  14.167  12.829  0.2800 -0.2013  0.1401
   13CGG   AL81 6521   8.774  13.565  12.745  0.1620  0.3012  0.1460
   13CGG   AL82 6522   8.628  12.798  12.582 -0.0403 -0.4596  0.2878
   13CGG   AL83 6523   8.596  13.104  12.613 -0.1246  0.0980  0.2363
   13CGG   AL84 6524   8.818  13.271  12.716  0.3828  0.6146  0.1852
   13CGG    SI5 6525   8.496  14.550  13.120  0.7064  0.2074 -0.1253
   13CGG    SI6 6526   8.411  15.139  13.195 -0.2876 -0.2414 -0.1307
   13CGG    SI7 6527   8.443  15.377  12.679  0.0203 -0.2105 -0.0852
   13CGG    SI8 6528   8.531  14.788  12.600  0.1401  0.0751  0.1070
   13CGG    SI9 6529   8.180  14.969  13.090 -0.1560  0.2290 -0.2917
   13CGG   SI10 6530   8.229  14.676  13.062 -0.2869  0.1761 -0.3276
   13CGG   SI11 6531   8.765  14.962  12.704  0.1147 -0.3857 -0.5233
   13CGG   SI12 6532   8.713  15.258  12.737  0.5639  0.2779 -0.2153
   13CGG   SI45 6533   8.607  13.660  12.992 -0.2027 -0.1814 -0.1439
   13CGG   SI46 6534   8.533  14.253  13.074 -0.0430 -0.2191  0.0433
   13CGG   SI47 6535   8.574  14.498  12.560  0.3288 -0.1318  0.5276
   13CGG   SI48 6536   8.652  13.900  12.477 -0.0161  0.0429 -0.2024
   13CGG   SI49 6537   8.298  14.077  12.974  0.1678  0.3658  0.0553
   13CGG   SI50 6538   8.348  13.790  12.939  0.4247  0.4038 -0.0885
   13CGG   SI51 6539   8.873  14.079  12.582 -0.0083  0.1742 -0.2612
   13CGG   SI52 6540   8.838  14.369  12.620 -0.2881  0.0439  0.2002
   13CGG   SI85 6541   8.725  12.777  12.884 -0.3044 -0.1461 -0.0016
   13CGG   SI86 6542   8.641  13.362  12.968 -0.2893 -0.0409  0.5806
   13CGG   SI87 6543   8.690  13.608  12.433 -0.1080 -0.0301 -0.1491
   13CGG   SI88 6544   8.765  13.001  12.367  0.3568 -0.0087  0.2715
   13CGG   SI89 6545   8.411  13.188  12.851 -0.1670 -0.1373 -0.8160
   13CGG   SI90 6546   8.468  12.901  12.830 -0.0126 -0.1824 -0.4563
   13CGG   SI91 6547   8.995  13.174  12.471  0.3167 -0.5890 -0.2457
   13CGG   SI92 6548   8.954  13.472  12.499 -0.1016  0.1057  0.0044
   14CGG    AL1 6549   8.054  15.310  12.812 -0.0242 -0.3379 -0.0511
   14CGG    AL2 6550   7.912  14.543  12.645  0.4913  0.0535  0.2046
   14CGG    AL3 6551   7.859  14.845  12.674 -0.2056 -0.2508  0.0573
   14CGG    AL4 6552   8.090  15.006  12.775 -0.2818 -0.8451 -0.7666
   14CGG   AL41 6553   8.170  14.407  12.701  0.4957  0.1243  0.4600
   14CGG   AL42 6554   8.015  13.652  12.522 -0.0066  0.0907 -0.2500
   14CGG   AL43 6555   7.988  13.946  12.560  0.0959  0.1751 -0.3001
   14CGG   AL44 6556   8.210  14.112  12.663  0.0896 -0.2159 -0.0600
   14CGG   AL81 6557   8.281  13.521  12.572 -0.5714 -0.0309 -0.0046
   14CGG   AL82 6558   8.141  12.752  12.427 -0.3536 -0.5860  0.2176
   14CGG   AL83 6559   8.101  13.044  12.449 -0.3588 -0.3505  0.0210
   14CGG   AL84 6560   8.328  13.217  12.543  0.0093  0.1046  0.0793
   14CGG    SI5 6561   8.005  14.504  12.947 -0.3205  0.2640  0.0830
   14CGG    SI6 6562   7.927  15.099  13.021  0.3204  0.3365  0.3630
   14CGG    SI7 6563   7.958  15.344  12.501 -0.0882  0.6590 -0.5725
   14CGG    SI8 6564   8.038  14.739  12.435  0.3725 -0.4991  0.7864
   14CGG    SI9 6565   7.692  14.924  12.925  0.2125  0.0411  0.1709
   14CGG   SI10 6566   7.739  14.640  12.888 -0.1139  0.4565  0.1287
   14CGG   SI11 6567   8.271  14.915  12.538  0.1907 -0.2121  0.0803
   14CGG   SI12 6568   8.222  15.212  12.569  0.0742  0.1517 -0.1244
   14CGG   SI45 6569   8.112  13.614  12.824  0.2446  0.1139 -0.2155
   14CGG   SI46 6570   8.038  14.211  12.915  0.5158  0.1555 -0.1340
   14CGG   SI47 6571   8.089  14.450  12.397  0.0242 -0.2298  0.2262
   14CGG   SI48 6572   8.155  13.855  12.310  0.0308  0.1989  0.2738
   14CGG   SI49 6573   7.803  14.038  12.806 -0.4791  0.0593 -0.2005
   14CGG   SI50 6574   7.849  13.746  12.773  0.1477 -0.5555 -0.2935
   14CGG   SI51 6575   8.388  14.027  12.422 -0.1270  0.2590  0.4467
   14CGG   SI52 6576   8.343  14.320  12.452  0.2342  0.1164  0.3480
   14CGG   SI85 6577   8.241  12.726  12.733 -0.5011 -0.0186  0.0783
   14CGG   SI86 6578   8.156  13.321  12.787 -0.1203  0.1377  0.1163
   14CGG   SI87 6579   8.187  13.559  12.274  0.1673 -0.2041  0.3054
   14CGG   SI88 6580   8.271  12.954  12.200  0.6166  0.3367 -0.1193
   14CGG   SI89 6581   7.931  13.145  12.693  0.0766  0.1545 -0.2822
   14CGG   SI90 6582   7.979  12.853  12.673 -0.1826  0.6130  0.1540
   14CGG   SI91 6583   8.501  13.134  12.295  0.2547 -0.1341  0.0740
   14CGG   SI92 6584   8.451  13.428  12.326  0.3064  0.1324  0.1006
   15CGG    AL1 6585   7.566  15.251  12.653  0.1420 -0.4359 -0.2704
   15CGG    AL2 6586   7.421  14.489  12.486  0.1161  0.2504  0.0358
   15CGG    AL3 6587   7.381  14.786  12.512  0.0769 -0.8390 -0.1160
   15CGG    AL4 6588   7.604  14.966  12.615 -0.1097 -0.2435 -0.2338
   15CGG   AL41 6589   7.693  14.371  12.542  0.3059  0.1406  0.2198
   15CGG   AL42 6590   7.526  13.613  12.370  0.0610  0.1033 -0.0941
   15CGG   AL43 6591   7.490  13.913  12.404 -0.0309 -0.4536 -0.0539
   15CGG   AL44 6592   7.720  14.078  12.503 -0.3651  0.5586  0.2050
   15CGG   AL81 6593   7.790  13.471  12.424 -0.4175 -0.1454 -0.0285
   15CGG   AL82 6594   7.657  12.719  12.283  0.1421 -0.0107 -0.0883
   15CGG   AL83 6595   7.603  13.019  12.305  0.1943  0.0205  0.1655
   15CGG   AL84 6596   7.838  13.185  12.390 -0.2221 -0.4936 -0.7195
   15CGG    SI5 6597   7.519  14.466  12.794 -0.0096  0.7389  0.0509
   15CGG    SI6 6598   7.431  15.063  12.867 -0.5927  0.1620 -0.1258
   15CGG    SI7 6599   7.480  15.298  12.346 -0.1143 -0.4878  0.2745
   15CGG    SI8 6600   7.545  14.692  12.264 -0.8626 -0.0608  0.0450
   15CGG    SI9 6601   7.206  14.887  12.759  0.0598 -0.2703  0.0263
   15CGG   SI10 6602   7.253  14.594  12.739 -0.1967  0.1911  0.6580
   15CGG   SI11 6603   7.783  14.879  12.362 -0.2271  0.0134 -0.1288
   15CGG   SI12 6604   7.738  15.173  12.407 -0.1144  0.0961  0.3542
   15CGG   SI45 6605   7.625  13.572  12.669 -0.7437  0.1897 -0.2803
   15CGG   SI46 6606   7.551  14.177  12.757 -0.2946  0.6333  0.4593
   15CGG   SI47 6607   7.600  14.404  12.237  0.0980 -0.0452  0.2473
   15CGG   SI48 6608   7.663  13.816  12.153  0.2200 -0.2141 -0.0878
   15CGG   SI49 6609   7.313  14.001  12.651 -0.2008  0.1474 -0.1686
   15CGG   SI50 6610   7.364  13.706  12.622  0.4304 -0.0124  0.0629
   15CGG   SI51 6611   7.896  13.989  12.258 -0.2450 -0.0232  0.1189
   15CGG   SI52 6612   7.875  14.280  12.290  0.0612  0.0481 -0.3865
   15CGG   SI85 6613   7.747  12.686  12.593 -0.1189  0.0723 -0.4875
   15CGG   SI86 6614   7.667  13.278  12.648  0.0715 -0.2747  0.4741
   15CGG   SI87 6615   7.709  13.518  12.120  0.0708 -0.0156  0.1368
   15CGG   SI88 6616   7.767  12.914  12.061 -0.1468  0.1489 -0.0957
   15CGG   SI89 6617   7.433  13.107  12.547 -0.2260  0.0631 -0.0759
   15CGG   SI90 6618   7.479  12.817  12.528 -0.4791  0.7877  0.1337
   15CGG   SI91 6619   8.007  13.088  12.143 -0.2255 -0.2716 -0.5653
   15CGG   SI92 6620   7.973  13.385  12.176  0.2404 -0.2565 -0.0687
   16CGG    AL1 6621   7.084  15.214  12.485 -0.1433  0.2214  0.4093
   16CGG    AL2 6622   6.922  14.452  12.330  0.1578  0.0252 -0.3520
   16CGG    AL3 6623   6.888  14.751  12.361  0.1519 -0.1408  0.1395
   16CGG    AL4 6624   7.115  14.917  12.447 -0.3396  0.0691 -0.0956
   16CGG   AL41 6625   7.187  14.327  12.377  0.0667  0.2158  0.0860
   16CGG   AL42 6626   7.039  13.565  12.217  0.2575 -0.4890  0.0430
   16CGG   AL43 6627   7.001  13.864  12.251 -0.1629 -0.0762 -0.2830
   16CGG   AL44 6628   7.228  14.032  12.348 -0.0333  0.1903  0.1730
   16CGG   AL81 6629   7.297  13.442  12.267  0.3374  0.2039 -0.7406
   16CGG   AL82 6630   7.147  12.669  12.130  0.4649 -0.5331 -0.2798
   16CGG   AL83 6631   7.119  12.964  12.158  0.0008  0.6415 -0.2553
   16CGG   AL84 6632   7.351  13.134  12.244 -0.3938 -0.1464 -0.0895
   16CGG    SI5 6633   7.018  14.415  12.632 -0.2244 -0.1922 -0.5676
   16CGG    SI6 6634   6.944  15.017  12.697 -0.2885  0.4620  0.7208
   16CGG    SI7 6635   6.984  15.243  12.184  0.2466  0.0611  0.2479
   16CGG    SI8 6636   7.051  14.654  12.115  0.1269 -0.1497  0.4550
   16CGG    SI9 6637   6.717  14.843  12.609 -0.0156  0.1946  0.1102
   16CGG   SI10 6638   6.766  14.549  12.585 -0.0143 -0.2220 -0.0570
   16CGG   SI11 6639   7.286  14.819  12.205  0.3279 -0.2501  0.4178
   16CGG   SI12 6640   7.249  15.116  12.236 -0.3631  0.1083  0.7827
   16CGG   SI45 6641   7.132  13.526  12.524 -0.0355 -0.2417  0.2760
   16CGG   SI46 6642   7.054  14.126  12.595 -0.5132 -0.1872 -0.2746
   16CGG   SI47 6643   7.104  14.366  12.071 -0.0558  0.4006  0.0729
   16CGG   SI48 6644   7.165  13.764  12.000  0.5594 -0.4087  0.5924
   16CGG   SI49 6645   6.828  13.951  12.503 -0.4093 -0.1627 -0.3368
   16CGG   SI50 6646   6.871  13.659  12.463 -0.5657  0.0934  0.1342
   16CGG   SI51 6647   7.399  13.941  12.097  0.5457 -0.0075  0.3613
   16CGG   SI52 6648   7.365  14.232  12.134 -0.0351  0.1995  0.0958
   16CGG   SI85 6649   7.256  12.642  12.437  0.0809 -0.5313  0.1637
   16CGG   SI86 6650   7.175  13.237  12.489 -0.3841  0.0171  0.2602
   16CGG   SI87 6651   7.202  13.472  11.969  0.2889 -0.0609  0.2154
   16CGG   SI88 6652   7.284  12.858  11.910  0.5244 -0.2974 -0.0147
   16CGG   SI89 6653   6.949  13.059  12.405  0.3374  0.0557 -0.2373
   16CGG   SI90 6654   6.987  12.770  12.386 -0.0450 -0.2278  0.0888
   16CGG   SI91 6655   7.519  13.045  11.999  0.3763 -0.1017  0.0004
   16CGG   SI92 6656   7.464  13.338  12.028 -0.3111  0.2046  0.0978
   17CGG    AL1 6657   6.582  15.176  12.339  0.3967  0.1606  0.1875
   17CGG    AL2 6658   6.435  14.407  12.188  0.3399 -0.2797  0.3067
   17CGG    AL3 6659   6.398  14.697  12.224  0.2403 -0.0759  0.1703
   17CGG    AL4 6660   6.627  14.874  12.307  0.4745 -0.1320 -0.7753
   17CGG   AL41 6661   6.707  14.285  12.233  0.2785  0.3253  0.2109
   17CGG   AL42 6662   6.553  13.519  12.076  0.3127 -0.1167  0.1677
   17CGG   AL43 6663   6.510  13.816  12.103 -0.2329 -0.5965 -0.3346
   17CGG   AL44 6664   6.736  13.995  12.198  0.1261  0.5586 -0.2070
   17CGG   AL81 6665   6.814  13.384  12.126  0.7755 -0.4316 -0.2086
   17CGG   AL82 6666   6.660  12.626  11.984 -0.2460  0.0961 -0.1066
   17CGG   AL83 6667   6.624  12.916  12.010 -0.0322 -0.1219  0.0694
   17CGG   AL84 6668   6.850  13.089  12.101  0.1306 -0.5097  0.1370
   17CGG    SI5 6669   6.540  14.378  12.487 -0.5469 -0.0625  0.0895
   17CGG    SI6 6670   6.460  14.973  12.560 -0.1952 -0.4041  0.2995
   17CGG    SI7 6671   6.481  15.210  12.036 -0.2372  0.1302  0.1408
   17CGG    SI8 6672   6.550  14.611  11.967  0.0130  0.4838 -0.0626
   17CGG    SI9 6673   6.224  14.788  12.482  0.0505 -0.3256  0.5825
   17CGG   SI10 6674   6.271  14.502  12.435  0.4934  0.3347 -0.0990
   17CGG   SI11 6675   6.789  14.783  12.051  0.2978 -0.4551 -0.0733
   17CGG   SI12 6676   6.747  15.082  12.089 -0.0867 -0.0808  0.0898
   17CGG   SI45 6677   6.653  13.481  12.384 -0.2782 -0.1166  0.2443
   17CGG   SI46 6678   6.569  14.083  12.453  0.2478 -0.0682  0.3680
   17CGG   SI47 6679   6.598  14.318  11.930 -0.2138 -0.1617 -0.1242
   17CGG   SI48 6680   6.671  13.726  11.856 -0.4789  0.4207  0.2210
   17CGG   SI49 6681   6.336  13.900  12.359  0.6321 -0.0096 -0.1035
   17CGG   SI50 6682   6.393  13.613  12.327  0.3411 -0.0115  0.1358
   17CGG   SI51 6683   6.906  13.902  11.953 -0.1618 -0.2712  0.3712
   17CGG   SI52 6684   6.871  14.197  11.986  0.1678 -0.0356 -0.1767
   17CGG   SI85 6685   6.757  12.602  12.289 -0.7236  0.1648  0.0590
   17CGG   SI86 6686   6.687  13.193  12.348  0.2170  0.5007 -0.3058
   17CGG   SI87 6687   6.719  13.433  11.817 -0.0594 -0.1730 -0.2414
   17CGG   SI88 6688   6.784  12.825  11.764 -0.2403  0.1719  0.6375
   17CGG   SI89 6689   6.455  13.015  12.257  0.5545  0.4357 -0.0515
   17CGG   SI90 6690   6.496  12.728  12.232 -0.4163  0.0387  0.1467
   17CGG   SI91 6691   7.022  12.998  11.853 -0.4150 -0.2277  0.3739
   17CGG   SI92 6692   6.982  13.292  11.879  0.1512  0.1529 -0.4422
   18CGG    AL1 6693   6.081  15.124  12.205 -0.1288  0.4672  0.1300
   18CGG    AL2 6694   5.933  14.355  12.045  0.1525 -0.5902 -0.1617
   18CGG    AL3 6695   5.885  14.655  12.074 -0.1057  0.6498 -0.5265
   18CGG    AL4 6696   6.116  14.822  12.173 -0.1793 -0.4023  0.0248
   18CGG   AL41 6697   6.202  14.227  12.091  0.0699 -0.2475 -0.0157
   18CGG   AL42 6698   6.053  13.466  11.924 -0.2434 -0.1468 -0.4567
   18CGG   AL43 6699   6.012  13.762  11.970 -0.1435 -0.3205 -0.5108
   18CGG   AL44 6700   6.243  13.944  12.057  0.1968  0.2530 -0.1287
   18CGG   AL81 6701   6.323  13.338  11.981 -0.1851 -0.3259  0.1121
   18CGG   AL82 6702   6.157  12.577  11.823 -0.3327 -0.1140 -0.2471
   18CGG   AL83 6703   6.125  12.877  11.854 -0.2838  0.0355  0.0656
   18CGG   AL84 6704   6.354  13.047  11.947  0.3600  0.4894  0.1890
   18CGG    SI5 6705   6.035  14.325  12.345 -0.5776  0.3478 -0.4135
   18CGG    SI6 6706   5.957  14.915  12.428  0.1875  0.0384  0.2326
   18CGG    SI7 6707   5.982  15.148  11.908  0.1352 -0.0341  0.0930
   18CGG    SI8 6708   6.050  14.557  11.822 -0.1853 -0.0008 -0.0341
   18CGG    SI9 6709   5.728  14.738  12.332 -0.0995 -0.4707  0.1364
   18CGG   SI10 6710   5.769  14.448  12.293 -0.4538  0.0945 -0.4195
   18CGG   SI11 6711   6.287  14.740  11.919 -0.2101  0.1938 -0.4194
   18CGG   SI12 6712   6.245  15.028  11.959 -0.4115 -0.2269  0.2058
   18CGG   SI45 6713   6.158  13.441  12.231 -0.1925  0.0162 -0.3031
   18CGG   SI46 6714   6.073  14.033  12.311 -0.2542 -0.0448  0.0735
   18CGG   SI47 6715   6.097  14.263  11.791  0.6165 -0.0572 -0.1661
   18CGG   SI48 6716   6.172  13.675  11.714  0.1311 -0.0899  0.1018
   18CGG   SI49 6717   5.840  13.856  12.218  0.3081 -0.2921 -0.0320
   18CGG   SI50 6718   5.895  13.564  12.182 -0.0310  0.1362  0.1339
   18CGG   SI51 6719   6.411  13.852  11.803  0.2868  0.1044 -0.0583
   18CGG   SI52 6720   6.360  14.142  11.832 -0.2249 -0.1975 -0.2449
   18CGG   SI85 6721   6.266  12.552  12.127 -0.3305 -0.0943 -0.0365
   18CGG   SI86 6722   6.189  13.148  12.200 -0.4592  0.0640 -0.2012
   18CGG   SI87 6723   6.221  13.379  11.677  0.0387 -0.0513  0.0077
   18CGG   SI88 6724   6.292  12.773  11.601  0.1599 -0.1446  0.1021
   18CGG   SI89 6725   5.962  12.973  12.109  0.1894 -0.1197  0.3685
   18CGG   SI90 6726   5.999  12.676  12.076  0.1250  0.1701  0.0431
   18CGG   SI91 6727   6.525  12.954  11.700 -0.1996 -0.7558 -0.0160
   18CGG   SI92 6728   6.484  13.250  11.732  0.2986  0.5887  0.2562
   19CGG    AL1 6729   5.576  15.081  12.061 -0.2776  0.2716 -0.0416
   19CGG    AL2 6730   5.437  14.315  11.903 -0.0607 -0.4678 -0.0727
   19CGG    AL3 6731   5.396  14.609  11.940  0.0824 -0.3824 -0.3386
   19CGG    AL4 6732   5.618  14.779  12.028  0.4236  0.0380  0.0183
   19CGG   AL41 6733   5.709  14.177  11.950  0.0005  0.5392  0.4166
   19CGG   AL42 6734   5.560  13.426  11.788  0.3160 -0.0543 -0.3092
   19CGG   AL43 6735   5.516  13.718  11.824 -0.2280 -0.1102 -0.4379
   19CGG   AL44 6736   5.744  13.892  11.915 -0.2278 -0.0899  0.0556
   19CGG   AL81 6737   5.827  13.291  11.836  0.1576 -0.1922 -0.2753
   19CGG   AL82 6738   5.667  12.536  11.687 -0.5021 -0.6704 -0.2413
   19CGG   AL83 6739   5.647  12.828  11.719 -0.0662 -0.2421  0.0185
   19CGG   AL84 6740   5.870  13.005  11.804  0.4626  0.0393  0.2058
   19CGG    SI5 6741   5.545  14.280  12.208  0.1016  0.3623 -0.1761
   19CGG    SI6 6742   5.473  14.879  12.282  0.1983  0.2062 -0.3249
   19CGG    SI7 6743   5.487  15.109  11.756  0.2819 -0.0704 -0.0472
   19CGG    SI8 6744   5.556  14.515  11.683 -0.1246  0.1589 -0.5332
   19CGG    SI9 6745   5.231  14.695  12.203 -0.9191  0.0429  0.3255
   19CGG   SI10 6746   5.285  14.406  12.160  0.1169  0.1376 -0.3196
   19CGG   SI11 6747   5.789  14.691  11.776  0.2613 -0.3504  0.1183
   19CGG   SI12 6748   5.745  14.983  11.817  0.2133 -0.2418  0.3344
   19CGG   SI45 6749   5.665  13.391  12.089  0.1759 -0.1712  0.2373
   19CGG   SI46 6750   5.580  13.987  12.172  0.2224  0.1231 -0.0617
   19CGG   SI47 6751   5.605  14.223  11.651 -0.0159 -0.2749 -0.0576
   19CGG   SI48 6752   5.681  13.627  11.571 -0.5361  0.2691 -0.0685
   19CGG   SI49 6753   5.348  13.805  12.080  0.0828 -0.0897 -0.1951
   19CGG   SI50 6754   5.397  13.517  12.044  0.2383  0.0073  0.1909
   19CGG   SI51 6755   5.912  13.804  11.664 -0.1856 -0.0994  0.0493
   19CGG   SI52 6756   5.870  14.091  11.696 -0.0596 -0.0586  0.3069
   19CGG   SI85 6757   5.775  12.502  11.987  0.2869 -0.3551  0.0296
   19CGG   SI86 6758   5.699  13.096  12.060  0.3198  0.1496 -0.0173
   19CGG   SI87 6759   5.731  13.336  11.538  0.1480  0.6336  0.4390
   19CGG   SI88 6760   5.798  12.734  11.460 -0.1086 -0.2009  0.4032
   19CGG   SI89 6761   5.463  12.929  11.961 -0.1643  0.0606 -0.6031
   19CGG   SI90 6762   5.511  12.642  11.944 -0.1279  0.7178  0.1869
   19CGG   SI91 6763   6.032  12.913  11.550  0.0448 -0.2229  0.1624
   19CGG   SI92 6764   5.990  13.203  11.592  0.1941 -0.3783  0.4959
   20CGG    AL1 6765   5.060  15.018  11.925 -0.2525  0.3063  0.2641
   20CGG    AL2 6766   4.937  14.262  11.759 -0.5081  0.1356  0.0916
   20CGG    AL3 6767   4.903  14.560  11.805 -0.4194 -0.1577  0.4652
   20CGG    AL4 6768   5.130  14.728  11.900 -0.4050 -0.0090 -0.0487
   20CGG   AL41 6769   5.212  14.139  11.808  0.0507 -0.1992 -0.4674
   20CGG   AL42 6770   5.068  13.387  11.644  0.0191 -0.3221  0.0680
   20CGG   AL43 6771   5.015  13.686  11.678 -0.4082 -0.2772  0.3437
   20CGG   AL44 6772   5.251  13.847  11.774 -0.2054  0.1213  0.1835
   20CGG   AL81 6773   5.326  13.253  11.697 -0.6317 -0.3514  0.0076
   20CGG   AL82 6774   5.174  12.499  11.557 -0.2948  0.0056  0.0663
   20CGG   AL83 6775   5.131  12.793  11.584  0.1161 -0.1551 -0.0422
   20CGG   AL84 6776   5.366  12.964  11.666 -0.1114  0.4458 -0.0412
   20CGG    SI5 6777   5.045  14.224  12.066 -0.2124 -0.4449  0.3853
   20CGG    SI6 6778   4.963  14.816  12.157 -0.1444 -0.3322  0.3138
   20CGG    SI7 6779   4.979  15.046  11.615 -0.2256  0.0172 -0.1777
   20CGG    SI8 6780   5.053  14.469  11.542  0.0115  0.0880  0.0995
   20CGG    SI9 6781   4.724  14.644  12.055 -0.4592 -0.0803 -0.3212
   20CGG   SI10 6782   4.781  14.360  12.025  0.1003 -0.0724  0.5167
   20CGG   SI11 6783   5.294  14.639  11.640  0.1596  0.0388  0.6843
   20CGG   SI12 6784   5.243  14.931  11.681  0.1592  0.1301 -0.0392
   20CGG   SI45 6785   5.166  13.345  11.945 -0.0929  0.2374 -0.4300
   20CGG   SI46 6786   5.094  13.932  12.028 -0.0791 -0.0630 -0.4603
   20CGG   SI47 6787   5.104  14.181  11.512 -0.0162  0.1254  0.0964
   20CGG   SI48 6788   5.182  13.582  11.418 -0.2239 -0.0481 -0.1241
   20CGG   SI49 6789   4.856  13.768  11.925  0.5100 -0.7750 -0.0410
   20CGG   SI50 6790   4.907  13.478  11.893  0.3171  0.3886  0.2456
   20CGG   SI51 6791   5.422  13.759  11.520  0.0711  0.1818  0.3829
   20CGG   SI52 6792   5.370  14.054  11.559 -0.1295 -0.3323 -0.0480
   20CGG   SI85 6793   5.278  12.461  11.856 -0.3837  0.0297  0.0021
   20CGG   SI86 6794   5.206  13.058  11.919  0.1473 -0.0404  0.1466
   20CGG   SI87 6795   5.232  13.285  11.394 -0.2109 -0.2212 -0.0760
   20CGG   SI88 6796   5.300  12.691  11.337 -0.1797 -0.2532 -0.3081
   20CGG   SI89 6797   4.966  12.879  11.832 -0.0138  0.1194  0.0608
   20CGG   SI90 6798   5.019  12.590  11.816  0.4285  0.3959  0.2914
   20CGG   SI91 6799   5.532  12.864  11.416 -0.3280  0.2077 -0.1236
   20CGG   SI92 6800   5.492  13.152  11.447  0.0592 -0.4163  0.1072
   21CGG    AL1 6801  14.707  13.163  14.731  0.6831  0.1311 -0.0027
   21CGG    AL2 6802  14.558  12.390  14.556 -0.2706 -0.0850  0.1232
   21CGG    AL3 6803  14.527  12.683  14.586  0.5651 -0.0313 -0.2801
   21CGG    AL4 6804  14.747  12.862  14.691  0.0965 -0.1697  0.4362
   21CGG   AL41 6805  14.817  12.258  14.635  0.1207  0.0047  0.1514
   21CGG   AL42 6806  14.655  11.495  14.469 -0.0994 -0.1128  0.2694
   21CGG   AL43 6807  14.631  11.789  14.503 -0.1173  0.2337  0.1181
   21CGG   AL44 6808  14.857  11.961  14.609  0.3277  0.4810 -0.1168
   21CGG   AL81 6809  14.930  11.365  14.542 -0.3234  0.1527  0.0413
   21CGG   AL82 6810  14.751  10.606  14.385  0.4413  0.2566 -0.0185
   21CGG   AL83 6811  14.716  10.906  14.411 -0.0152  0.3519  0.1169
   21CGG   AL84 6812  14.950  11.071  14.495  0.1444 -0.1429  0.0280
   21CGG    SI5 6813  14.635  12.351  14.870 -0.0328 -0.1199 -0.2012
   21CGG    SI6 6814  14.572  12.955  14.942  0.0379  0.0676 -0.2119
   21CGG    SI7 6815  14.626  13.199  14.423 -0.3338 -0.1562  0.0049
   21CGG    SI8 6816  14.708  12.586  14.344  0.3140 -0.3981 -0.0908
   21CGG    SI9 6817  14.348  12.782  14.828  0.1136 -0.0503 -0.2357
   21CGG   SI10 6818  14.383  12.490  14.798 -0.1356 -0.1651 -0.1251
   21CGG   SI11 6819  14.933  12.777  14.448  0.5201 -0.0181  0.2110
   21CGG   SI12 6820  14.889  13.068  14.492  0.0517 -0.0579  0.0270
   21CGG   SI45 6821  14.746  11.460  14.777  0.0463 -0.4539  0.6273
   21CGG   SI46 6822  14.667  12.056  14.843 -0.0700 -0.3706  0.1820
   21CGG   SI47 6823  14.737  12.299  14.324 -0.1302  0.0906  0.1273
   21CGG   SI48 6824  14.807  11.690  14.256 -0.2069  0.0890 -0.1644
   21CGG   SI49 6825  14.442  11.890  14.731  0.1918  0.7282 -0.0476
   21CGG   SI50 6826  14.481  11.593  14.706  0.4079 -0.3563  0.3902
   21CGG   SI51 6827  15.036  11.870  14.373 -0.7733  0.2221 -0.1819
   21CGG   SI52 6828  14.999  12.159  14.393  0.2375 -0.1579  0.4636
   21CGG   SI85 6829  14.828  10.561  14.693  0.6730  0.0862  0.1490
   21CGG   SI86 6830  14.777  11.169  14.745 -0.2415 -0.1175  0.0131
   21CGG   SI87 6831  14.845  11.394  14.237  0.3210 -0.4667 -0.0053
   21CGG   SI88 6832  14.902  10.801  14.171  0.1865  0.2141  0.4271
   21CGG   SI89 6833  14.542  10.995  14.650  0.1596 -0.0547 -0.2323
   21CGG   SI90 6834  14.570  10.701  14.627 -0.1489 -0.3529  0.1535
   21CGG   SI91 6835  15.131  10.976  14.264  0.3306  0.2437 -0.2003
   21CGG   SI92 6836  15.101  11.271  14.295 -0.0419  0.1129 -0.0526
   22CGG    AL1 6837  14.216  13.112  14.550 -0.2690  0.0010  0.1520
   22CGG    AL2 6838  14.066  12.353  14.379  0.0706  0.0772 -0.0923
   22CGG    AL3 6839  14.029  12.649  14.413 -0.6903 -0.0383  0.2451
   22CGG    AL4 6840  14.260  12.812  14.519  0.0335 -0.0200 -0.4244
   22CGG   AL41 6841  14.336  12.217  14.456 -0.1582  0.5079  0.3649
   22CGG   AL42 6842  14.160  11.460  14.300 -0.0378  0.5164 -0.4585
   22CGG   AL43 6843  14.132  11.752  14.334 -0.4281 -0.2620  0.2367
   22CGG   AL44 6844  14.361  11.918  14.430  0.0665 -0.0124 -0.1392
   22CGG   AL81 6845  14.429  11.321  14.369  0.1138  0.1994  0.4677
   22CGG   AL82 6846  14.273  10.574  14.200  0.0679 -0.4521 -0.0462
   22CGG   AL83 6847  14.241  10.865  14.226  0.4539  0.2612 -0.2203
   22CGG   AL84 6848  14.468  11.032  14.339  0.1893  0.3971  0.2202
   22CGG    SI5 6849  14.152  12.319  14.694  0.2308  1.0008  0.1312
   22CGG    SI6 6850  14.083  12.920  14.764 -0.1801 -0.3821 -0.4509
   22CGG    SI7 6851  14.146  13.143  14.229  0.0386 -0.0766 -0.2793
   22CGG    SI8 6852  14.218  12.548  14.174  0.5871 -0.2327 -0.2116
   22CGG    SI9 6853  13.850  12.747  14.654 -0.0849 -0.1518  0.2573
   22CGG   SI10 6854  13.890  12.451  14.620 -0.4490  0.0754  0.0069
   22CGG   SI11 6855  14.444  12.720  14.286 -0.0818  0.4875  0.3360
   22CGG   SI12 6856  14.407  13.015  14.318  0.0894  0.3791 -0.0958
   22CGG   SI45 6857  14.252  11.427  14.601  0.4269 -0.0660 -0.3419
   22CGG   SI46 6858  14.189  12.025  14.671  0.1432  0.3763  0.2306
   22CGG   SI47 6859  14.254  12.249  14.143  0.1488 -0.6487 -0.5806
   22CGG   SI48 6860  14.318  11.649  14.090 -0.3479  0.0838 -0.0259
   22CGG   SI49 6861  13.947  11.855  14.567  0.2982  0.1174 -0.4051
   22CGG   SI50 6862  13.992  11.557  14.543  0.1529  0.4133 -0.2513
   22CGG   SI51 6863  14.547  11.819  14.197 -0.4127  0.4321 -0.1821
   22CGG   SI52 6864  14.508  12.110  14.219 -0.5029  0.1865  0.2004
   22CGG   SI85 6865  14.351  10.530  14.516  0.3271  0.1511  0.3217
   22CGG   SI86 6866  14.290  11.130  14.586  0.1545  0.3168  0.2273
   22CGG   SI87 6867  14.352  11.353  14.062 -0.1937 -0.2264  0.0615
   22CGG   SI88 6868  14.423  10.767  13.994  0.0776 -0.1259 -0.0325
   22CGG   SI89 6869  14.056  10.958  14.469  0.0694 -0.2096  0.0586
   22CGG   SI90 6870  14.091  10.669  14.439  0.1737  0.1730  0.4221
   22CGG   SI91 6871  14.651  10.938  14.098 -0.0569  0.1227 -0.0044
   22CGG   SI92 6872  14.610  11.224  14.128  0.1978  0.2372  0.0968
   23CGG    AL1 6873  13.738  13.063  14.365  0.2118  0.0034 -0.6313
   23CGG    AL2 6874  13.591  12.316  14.204  0.8900 -0.1491  0.1891
   23CGG    AL3 6875  13.556  12.608  14.231  0.2647  0.3155 -0.1589
   23CGG    AL4 6876  13.773  12.779  14.341 -0.1248 -0.1041 -0.2046
   23CGG   AL41 6877  13.846  12.179  14.274  0.5338 -0.5829  0.0010
   23CGG   AL42 6878  13.693  11.422  14.110  0.1103  0.6458 -0.3347
   23CGG   AL43 6879  13.662  11.725  14.142  0.0434 -0.1364 -0.2710
   23CGG   AL44 6880  13.882  11.893  14.253 -0.3362  0.2461  0.0149
   23CGG   AL81 6881  13.947  11.288  14.178  0.2285 -0.3231  0.6203
   23CGG   AL82 6882  13.797  10.534  14.014 -0.2113  0.1160 -0.3216
   23CGG   AL83 6883  13.766  10.845  14.041  0.6447  0.1303  0.2462
   23CGG   AL84 6884  13.992  11.006  14.154 -0.5870  0.1077 -0.4785
   23CGG    SI5 6885  13.670  12.284  14.514  0.2857  0.0271  0.0410
   23CGG    SI6 6886  13.591  12.872  14.585 -0.6196 -0.0081  0.3714
   23CGG    SI7 6887  13.669  13.109  14.054  0.1039 -0.2603  0.7038
   23CGG    SI8 6888  13.733  12.512  13.990  0.0698 -0.9533  0.2547
   23CGG    SI9 6889  13.364  12.706  14.467  0.5065  0.1917 -0.0482
   23CGG   SI10 6890  13.413  12.412  14.442  0.6103 -0.4134 -0.2003
   23CGG   SI11 6891  13.966  12.689  14.104  0.4493  0.0598 -0.0122
   23CGG   SI12 6892  13.919  12.974  14.130  0.0373  0.2646  0.1634
   23CGG   SI45 6893  13.772  11.396  14.422  0.1255  0.2719 -0.3103
   23CGG   SI46 6894  13.700  11.991  14.491 -0.1169 -0.2158  0.6497
   23CGG   SI47 6895  13.776  12.221  13.966 -0.4232 -0.5138  0.0292
   23CGG   SI48 6896  13.840  11.626  13.908 -0.4913 -0.0327  0.4361
   23CGG   SI49 6897  13.475  11.816  14.372  0.0369 -0.0958 -0.1561
   23CGG   SI50 6898  13.515  11.527  14.346  0.2430 -0.1566  0.1322
   23CGG   SI51 6899  14.073  11.797  14.023  0.3081 -0.0828  0.2931
   23CGG   SI52 6900  14.031  12.087  14.039 -0.2828  0.3034 -0.2415
   23CGG   SI85 6901  13.880  10.502  14.321  0.3121  0.4161 -0.5432
   23CGG   SI86 6902  13.809  11.096  14.395  0.7317 -0.5015  0.2910
   23CGG   SI87 6903  13.878  11.336  13.859  0.0897  0.2172  0.1216
   23CGG   SI88 6904  13.943  10.734  13.810 -0.4576  0.2050 -0.0765
   23CGG   SI89 6905  13.572  10.934  14.275 -0.2761  0.3521 -0.0520
   23CGG   SI90 6906  13.621  10.640  14.256 -0.1419 -0.2936  0.1162
   23CGG   SI91 6907  14.171  10.903  13.923 -0.2939 -0.0195 -0.0331
   23CGG   SI92 6908  14.129  11.204  13.939  0.0815  0.4087  0.1876
   24CGG    AL1 6909  13.260  13.037  14.183 -0.3741 -0.2294  0.0186
   24CGG    AL2 6910  13.108  12.275  14.019  0.0435  0.0165  0.2338
   24CGG    AL3 6911  13.083  12.575  14.043  0.1504  0.4023  0.2446
   24CGG    AL4 6912  13.294  12.748  14.155 -0.0387 -0.0213 -0.2446
   24CGG   AL41 6913  13.367  12.145  14.093 -0.1153  0.2165  0.2847
   24CGG   AL42 6914  13.210  11.390  13.923 -0.2004  0.0534  0.1659
   24CGG   AL43 6915  13.190  11.684  13.958  0.0394 -0.0835 -0.2936
   24CGG   AL44 6916  13.408  11.853  14.069 -0.0122 -0.1281  0.0379
   24CGG   AL81 6917  13.469  11.257  13.996 -0.1632  0.0860  0.1957
   24CGG   AL82 6918  13.320  10.493  13.828  0.2813  0.6219 -0.4479
   24CGG   AL83 6919  13.292  10.795  13.859  0.1078 -0.0203  0.4691
   24CGG   AL84 6920  13.507  10.966  13.965  0.0204 -0.3748  0.0307
   24CGG    SI5 6921  13.186  12.235  14.330  0.3184 -0.6593 -0.0565
   24CGG    SI6 6922  13.110  12.839  14.400 -0.2212  0.0700  0.3815
   24CGG    SI7 6923  13.184  13.071  13.869 -0.3319 -0.0082 -0.2009
   24CGG    SI8 6924  13.256  12.465  13.808 -0.1156 -0.3486  0.2693
   24CGG    SI9 6925  12.891  12.671  14.276  0.1340  0.1753 -0.0616
   24CGG   SI10 6926  12.933  12.370  14.251  0.1605  0.4113  0.0471
   24CGG   SI11 6927  13.478  12.647  13.918  0.2653  0.0362 -0.0671
   24CGG   SI12 6928  13.448  12.934  13.946  0.2279  0.0155 -0.7061
   24CGG   SI45 6929  13.295  11.359  14.229 -0.1114 -0.2700 -0.2111
   24CGG   SI46 6930  13.226  11.951  14.308  0.0448  0.4677  0.1888
   24CGG   SI47 6931  13.287  12.171  13.780 -0.0203 -0.0619 -0.2621
   24CGG   SI48 6932  13.365  11.581  13.713  0.0472 -0.0147 -0.0130
   24CGG   SI49 6933  12.997  11.777  14.196  0.0385  0.3985  0.4626
   24CGG   SI50 6934  13.037  11.491  14.164 -0.3177  0.0838  0.2765
   24CGG   SI51 6935  13.588  11.756  13.838  0.0331  0.4152  0.3771
   24CGG   SI52 6936  13.552  12.049  13.856  0.2198  0.2603 -0.0166
   24CGG   SI85 6937  13.395  10.468  14.140 -0.5710 -0.1005  0.0048
   24CGG   SI86 6938  13.323  11.065  14.200 -0.2974 -0.0555 -0.4555
   24CGG   SI87 6939  13.402  11.288  13.680 -0.0449 -0.4323  0.2683
   24CGG   SI88 6940  13.462  10.686  13.622 -0.3440  0.3306  0.0812
   24CGG   SI89 6941  13.095  10.894  14.086 -0.3432  0.2346  0.0272
   24CGG   SI90 6942  13.145  10.600  14.068  0.2194  0.0639  0.3564
   24CGG   SI91 6943  13.694  10.862  13.729  0.1715 -0.5178  0.0523
   24CGG   SI92 6944  13.652  11.157  13.751  0.0432 -0.0202  0.1150
   25CGG    AL1 6945  12.780  13.002  13.998 -0.1418  0.1966  0.1147
   25CGG    AL2 6946  12.629  12.235  13.843  0.2593  0.1712  0.1459
   25CGG    AL3 6947  12.594  12.538  13.868  0.3356  0.1040  0.2216
   25CGG    AL4 6948  12.821  12.714  13.967  0.2897  0.2388  0.3576
   25CGG   AL41 6949  12.891  12.098  13.908 -0.3186  0.1294  0.6038
   25CGG   AL42 6950  12.743  11.348  13.734  0.0514 -0.0964 -0.8025
   25CGG   AL43 6951  12.705  11.649  13.778 -0.2169 -0.2120 -0.4139
   25CGG   AL44 6952  12.930  11.809  13.884  0.0064  0.3452  0.2685
   25CGG   AL81 6953  12.997  11.219  13.803  0.2548  0.1687  0.2489
   25CGG   AL82 6954  12.837  10.461  13.652 -0.4704 -0.2010 -0.0504
   25CGG   AL83 6955  12.804  10.755  13.677  0.1854 -0.0880  0.0229
   25CGG   AL84 6956  13.033  10.925  13.776 -0.4401  0.2142  0.5932
   25CGG    SI5 6957  12.710  12.202  14.154 -0.2134  0.2388  0.1392
   25CGG    SI6 6958  12.639  12.801  14.210 -0.3830 -0.4137  0.4729
   25CGG    SI7 6959  12.704  13.038  13.693  0.2867 -0.3156 -0.0820
   25CGG    SI8 6960  12.778  12.429  13.632  0.4931 -0.1953 -0.0424
   25CGG    SI9 6961  12.411  12.633  14.112 -0.1002  0.2611 -0.1638
   25CGG   SI10 6962  12.453  12.342  14.079 -0.2166  0.0362 -0.2386
   25CGG   SI11 6963  13.009  12.605  13.735 -0.0411 -0.2353  0.5789
   25CGG   SI12 6964  12.964  12.898  13.758  0.0193  0.1554 -0.2256
   25CGG   SI45 6965  12.825  11.322  14.042  0.2869 -0.2445  0.3672
   25CGG   SI46 6966  12.743  11.910  14.119 -0.0239  0.9495 -0.2581
   25CGG   SI47 6967  12.809  12.137  13.602  0.2230  0.0903  0.4478
   25CGG   SI48 6968  12.878  11.548  13.538 -0.3080 -0.0527  0.2283
   25CGG   SI49 6969  12.518  11.734  14.019 -0.1066 -0.4093 -0.2201
   25CGG   SI50 6970  12.564  11.449  13.981  0.0798 -0.0816  0.0146
   25CGG   SI51 6971  13.111  11.711  13.646 -0.0694 -0.3062 -0.1719
   25CGG   SI52 6972  13.073  12.003  13.667 -0.2901  0.2636 -0.4806
   25CGG   SI85 6973  12.918  10.426  13.964 -0.1151 -0.3497 -0.3743
   25CGG   SI86 6974  12.851  11.032  14.010  0.0736  0.4969 -0.2691
   25CGG   SI87 6975  12.923  11.251  13.495  0.2583  0.1562 -0.1121
   25CGG   SI88 6976  12.982  10.659  13.438  0.1424 -0.0814  0.1138
   25CGG   SI89 6977  12.619  10.857  13.916 -0.5440 -0.0155 -0.1322
   25CGG   SI90 6978  12.663  10.560  13.889  0.1248  0.0260 -0.4613
   25CGG   SI91 6979  13.224  10.824  13.542  0.4285 -0.2099  0.2659
   25CGG   SI92 6980  13.177  11.122  13.568  0.1860  0.1210 -0.0957
   26CGG    AL1 6981  12.301  12.956  13.828 -0.1933  0.3312  0.2601
   26CGG    AL2 6982  12.147  12.213  13.662 -0.0668  0.2954 -0.0614
   26CGG    AL3 6983  12.114  12.505  13.691  0.0574  0.1736  0.2114
   26CGG    AL4 6984  12.338  12.669  13.796  0.2038  0.2424  0.3616
   26CGG   AL41 6985  12.410  12.067  13.733 -0.4695  0.0605 -0.0604
   26CGG   AL42 6986  12.245  11.313  13.565 -0.0825  0.1441 -0.3590
   26CGG   AL43 6987  12.211  11.607  13.599 -0.1618  0.3114  0.2555
   26CGG   AL44 6988  12.448  11.761  13.708  0.3154 -0.0573  0.1631
   26CGG   AL81 6989  12.506  11.180  13.633 -0.0419  0.0556  0.5754
   26CGG   AL82 6990  12.352  10.418  13.472  0.0035 -0.0003 -0.0714
   26CGG   AL83 6991  12.313  10.714  13.502 -0.0541 -0.2456  0.0943
   26CGG   AL84 6992  12.540  10.880  13.608  0.0275  0.2920  0.0658
   26CGG    SI5 6993  12.222  12.166  13.974 -0.2181 -0.7027 -0.1678
   26CGG    SI6 6994  12.160  12.766  14.047 -0.1917  0.0371 -0.4016
   26CGG    SI7 6995  12.217  13.002  13.518 -0.2070 -0.2961 -0.1427
   26CGG    SI8 6996  12.291  12.404  13.438  0.4879  0.5707  0.4706
   26CGG    SI9 6997  11.927  12.594  13.933  0.0858 -0.3363  0.2150
   26CGG   SI10 6998  11.967  12.302  13.897  0.0421  0.0755 -0.1985
   26CGG   SI11 6999  12.522  12.571  13.552  0.1897 -0.0458 -0.2234
   26CGG   SI12 7000  12.479  12.866  13.582  0.2273  0.0853  0.1781
   26CGG   SI45 7001  12.330  11.278  13.877 -0.2175  0.0441  0.3888
   26CGG   SI46 7002  12.265  11.870  13.939 -0.2183  0.3844  0.2807
   26CGG   SI47 7003  12.325  12.103  13.424 -0.4860  0.2598 -0.1091
   26CGG   SI48 7004  12.395  11.505  13.360 -0.0050  0.1348 -0.0550
   26CGG   SI49 7005  12.029  11.696  13.836 -0.2255  0.0802 -0.1994
   26CGG   SI50 7006  12.071  11.404  13.813  0.2381  0.2077  0.1413
   26CGG   SI51 7007  12.625  11.677  13.469  0.0653  0.3275  0.1407
   26CGG   SI52 7008  12.576  11.966  13.497 -0.2098  0.6098 -0.1495
   26CGG   SI85 7009  12.436  10.398  13.781 -0.0555 -0.1926  0.0776
   26CGG   SI86 7010  12.363  10.982  13.848  0.1858 -0.2178 -0.2850
   26CGG   SI87 7011  12.427  11.216  13.321  0.5839  0.7618 -0.2038
   26CGG   SI88 7012  12.487  10.614  13.256 -0.4470  0.1148 -0.3981
   26CGG   SI89 7013  12.126  10.811  13.739  0.2852 -0.5612 -0.3220
   26CGG   SI90 7014  12.173  10.518  13.711 -0.7086 -0.4471  0.2210
   26CGG   SI91 7015  12.725  10.788  13.363  0.6914 -0.5584 -0.0443
   26CGG   SI92 7016  12.687  11.077  13.394 -0.5386  0.1438  0.3104
   27CGG    AL1 7017  11.815  12.927  13.650  0.0730  0.0175 -0.1753
   27CGG    AL2 7018  11.659  12.167  13.481  0.3837 -0.0530 -0.2298
   27CGG    AL3 7019  11.636  12.462  13.523  0.0576 -0.0805 -0.1332
   27CGG    AL4 7020  11.850  12.637  13.625  0.0830 -0.3302  0.2145
   27CGG   AL41 7021  11.928  12.038  13.556 -0.0062 -0.0511 -0.2521
   27CGG   AL42 7022  11.760  11.280  13.388 -0.4554  0.0051  0.0541
   27CGG   AL43 7023  11.734  11.571  13.422 -0.0133  0.1218  0.1455
   27CGG   AL44 7024  11.963  11.740  13.524 -0.1657  0.5823 -0.0568
   27CGG   AL81 7025  12.024  11.135  13.456 -0.5909 -0.4591  0.2678
   27CGG   AL82 7026  11.870  10.377  13.296 -0.0122 -0.2394 -0.1065
   27CGG   AL83 7027  11.836  10.669  13.324  0.1119  0.0201 -0.0737
   27CGG   AL84 7028  12.055  10.845  13.429  0.0841  0.1808 -0.1998
   27CGG    SI5 7029  11.746  12.132  13.793 -0.4907 -0.3310  0.0227
   27CGG    SI6 7030  11.665  12.732  13.866 -0.3911  0.2387 -0.0762
   27CGG    SI7 7031  11.737  12.966  13.341  0.1005  0.0666  0.0319
   27CGG    SI8 7032  11.818  12.364  13.282  0.0158 -0.2223  0.6085
   27CGG    SI9 7033  11.441  12.553  13.750  0.2905 -0.0015  0.1308
   27CGG   SI10 7034  11.489  12.261  13.733 -0.0229  0.1231  0.0515
   27CGG   SI11 7035  12.038  12.548  13.381  0.3677  0.0905  0.4606
   27CGG   SI12 7036  11.996  12.835  13.413 -0.0176 -0.2347 -0.6328
   27CGG   SI45 7037  11.850  11.245  13.694  0.0936  0.2678  0.2231
   27CGG   SI46 7038  11.775  11.840  13.766 -0.4838  0.0316  0.1129
   27CGG   SI47 7039  11.849  12.071  13.246  0.4209  0.1149 -0.1283
   27CGG   SI48 7040  11.905  11.471  13.179 -0.1756 -0.4900  0.1862
   27CGG   SI49 7041  11.550  11.668  13.662  0.4370  0.1866  0.1896
   27CGG   SI50 7042  11.593  11.379  13.637  0.0723  0.1668  0.3157
   27CGG   SI51 7043  12.142  11.645  13.281 -0.0933 -0.3545  0.5262
   27CGG   SI52 7044  12.107  11.938  13.312 -0.2865  0.2857 -0.0741
   27CGG   SI85 7045  11.953  10.348  13.602 -0.1884 -0.1177 -0.3300
   27CGG   SI86 7046  11.876  10.948  13.665  0.2757 -0.4943  0.2834
   27CGG   SI87 7047  11.945  11.178  13.145 -0.3141  0.2774 -0.0521
   27CGG   SI88 7048  12.011  10.580  13.084  0.2580 -0.2717  0.4077
   27CGG   SI89 7049  11.649  10.767  13.565 -0.4723  0.1796  0.4233
   27CGG   SI90 7050  11.692  10.478  13.537  0.1264 -0.0461 -0.0900
   27CGG   SI91 7051  12.241  10.747  13.192  0.5345 -0.6038  0.0690
   27CGG   SI92 7052  12.204  11.037  13.213  0.1174 -0.0534 -0.1234
   28CGG    AL1 7053  11.323  12.885  13.469  0.4505 -0.0613 -0.0610
   28CGG    AL2 7054  11.178  12.129  13.306  0.1383 -0.1414 -0.2390
   28CGG    AL3 7055  11.140  12.423  13.336 -0.2572  0.3828  0.5959
   28CGG    AL4 7056  11.368  12.589  13.438  0.0632 -0.1003 -0.0951
   28CGG   AL41 7057  11.434  11.989  13.376  0.0161 -0.6562 -0.1129
   28CGG   AL42 7058  11.278  11.239  13.221 -0.1386 -0.0706 -0.0898
   28CGG   AL43 7059  11.250  11.531  13.243  0.2966  0.3592  0.0948
   28CGG   AL44 7060  11.471  11.700  13.343 -0.1228 -0.1662  0.3285
   28CGG   AL81 7061  11.545  11.099  13.285  0.1146 -0.4957 -0.0173
   28CGG   AL82 7062  11.377  10.339  13.118 -0.1608  0.0302  0.0893
   28CGG   AL83 7063  11.352  10.629  13.151  0.0229 -0.1482 -0.0777
   28CGG   AL84 7064  11.575  10.805  13.254 -0.0708 -0.0871 -0.1521
   28CGG    SI5 7065  11.263  12.091  13.617  0.2018  0.1236 -0.0428
   28CGG    SI6 7066  11.186  12.683  13.675  0.2169 -0.0078 -0.4128
   28CGG    SI7 7067  11.246  12.926  13.161  0.0379 -0.1072  0.1396
   28CGG    SI8 7068  11.319  12.323  13.100  0.4731 -0.5823  0.2893
   28CGG    SI9 7069  10.958  12.514  13.574  0.1783  0.1101  0.4332
   28CGG   SI10 7070  11.000  12.224  13.544  0.1620  0.0776 -0.3138
   28CGG   SI11 7071  11.561  12.495  13.210  0.5265 -0.1850 -0.5581
   28CGG   SI12 7072  11.509  12.794  13.228  0.1114 -0.3155  0.1391
   28CGG   SI45 7073  11.366  11.205  13.526  0.1277 -0.3072 -0.0270
   28CGG   SI46 7074  11.295  11.805  13.593  0.0894  0.1627  0.0585
   28CGG   SI47 7075  11.354  12.028  13.073 -0.4284 -0.1542  0.7265
   28CGG   SI48 7076  11.425  11.425  13.011  0.0072  0.0109  0.0808
   28CGG   SI49 7077  11.065  11.633  13.484 -0.2954  0.1848  0.3209
   28CGG   SI50 7078  11.112  11.343  13.465 -0.0339 -0.0511 -0.4123
   28CGG   SI51 7079  11.652  11.596  13.114  0.1080 -0.1411  0.0702
   28CGG   SI52 7080  11.618  11.897  13.138  0.1661  0.3606 -0.3057
   28CGG   SI85 7081  11.464  10.302  13.431  0.1221  0.1472  0.1101
   28CGG   SI86 7082  11.397  10.906  13.501 -0.1829 -0.5245 -0.2774
   28CGG   SI87 7083  11.456  11.136  12.977  0.3492 -0.7381 -0.1555
   28CGG   SI88 7084  11.531  10.537  12.911 -0.0558  0.1951 -0.2866
   28CGG   SI89 7085  11.169  10.723  13.393 -0.0706  0.1827 -0.1956
   28CGG   SI90 7086  11.212  10.436  13.367 -0.0477  0.1684  0.0267
   28CGG   SI91 7087  11.761  10.716  13.015  0.3315 -0.1022 -0.3337
   28CGG   SI92 7088  11.714  11.006  13.044 -0.0355 -0.3309  0.0479
   29CGG    AL1 7089  10.843  12.853  13.292  0.2690 -0.0377 -0.1286
   29CGG    AL2 7090  10.695  12.081  13.133 -0.1057  0.3605 -0.0630
   29CGG    AL3 7091  10.653  12.386  13.163 -0.3486 -0.3118 -0.2816
   29CGG    AL4 7092  10.881  12.559  13.263  0.3714 -0.2258  0.2193
   29CGG   AL41 7093  10.959  11.948  13.194 -0.1093 -0.1081 -0.1455
   29CGG   AL42 7094  10.804  11.192  13.041  0.1652  0.2687 -0.1562
   29CGG   AL43 7095  10.773  11.493  13.069  0.3146  0.3178  0.4808
   29CGG   AL44 7096  10.992  11.659  13.171  0.2177 -0.0684  0.0077
   29CGG   AL81 7097  11.066  11.064  13.115 -0.0935  0.4066 -0.2900
   29CGG   AL82 7098  10.906  10.296  12.950 -0.0925 -1.0853  0.0112
   29CGG   AL83 7099  10.871  10.596  12.971  0.1663  0.3089  0.2103
   29CGG   AL84 7100  11.089  10.768  13.080 -0.0273 -0.1931 -0.0852
   29CGG    SI5 7101  10.784  12.049  13.441  0.3167 -0.1490  0.0170
   29CGG    SI6 7102  10.703  12.660  13.510 -0.0438  0.0926  0.4624
   29CGG    SI7 7103  10.758  12.889  12.987 -0.4518  0.0750  0.2020
   29CGG    SI8 7104  10.825  12.289  12.922  0.6601  0.2686 -0.1874
   29CGG    SI9 7105  10.478  12.482  13.411 -0.0068  0.1559  0.5578
   29CGG   SI10 7106  10.531  12.189  13.382  0.2188 -0.2467 -0.0686
   29CGG   SI11 7107  11.061  12.463  13.020  0.1925  0.1288 -0.1835
   29CGG   SI12 7108  11.023  12.757  13.051  0.3921  0.1819 -0.1238
   29CGG   SI45 7109  10.888  11.159  13.357  0.2649  0.0207  0.2541
   29CGG   SI46 7110  10.812  11.761  13.410  0.1976  0.1865 -0.0135
   29CGG   SI47 7111  10.879  11.997  12.881 -0.0499  0.4570 -0.0350
   29CGG   SI48 7112  10.948  11.387  12.830  0.2586 -0.3819 -0.4272
   29CGG   SI49 7113  10.588  11.589  13.304  0.0722 -0.3059 -0.0260
   29CGG   SI50 7114  10.636  11.290  13.282 -0.0979 -0.0558 -0.0220
   29CGG   SI51 7115  11.174  11.567  12.933  0.4581 -0.3298 -0.0198
   29CGG   SI52 7116  11.135  11.861  12.961  0.1341  0.6387 -1.0585
   29CGG   SI85 7117  10.990  10.267  13.259 -0.1314 -0.1073  0.2421
   29CGG   SI86 7118  10.918  10.867  13.326 -0.2572 -0.1143  0.2239
   29CGG   SI87 7119  10.982  11.097  12.805  0.1828  0.3831  0.1929
   29CGG   SI88 7120  11.040  10.498  12.732 -0.1408  0.2374  0.1550
   29CGG   SI89 7121  10.693  10.697  13.214  0.2032  0.3446  0.3531
   29CGG   SI90 7122  10.738  10.403  13.191  0.3762  0.1951  0.3723
   29CGG   SI91 7123  11.275  10.672  12.844 -0.1661 -0.0786  0.9533
   29CGG   SI92 7124  11.237  10.963  12.870 -0.4367 -0.1854 -0.4370
   30CGG    AL1 7125  10.355  12.813  13.135 -0.3094  0.2163 -0.1224
   30CGG    AL2 7126  10.197  12.047  12.969 -0.5458  0.0311 -0.0868
   30CGG    AL3 7127  10.171  12.339  13.002  0.8841 -0.3473 -0.3556
   30CGG    AL4 7128  10.400  12.514  13.101  0.2926  0.4010  0.5159
   30CGG   AL41 7129  10.472  11.911  13.030 -0.1901  0.2801 -0.1261
   30CGG   AL42 7130  10.324  11.151  12.869 -0.1061 -0.0275 -0.5403
   30CGG   AL43 7131  10.289  11.447  12.902  0.1178  0.3195 -0.6673
   30CGG   AL44 7132  10.507  11.619  12.996  0.0876  0.2357 -0.2555
   30CGG   AL81 7133  10.586  11.016  12.928  0.1587  0.3249  0.0934
   30CGG   AL82 7134  10.413  10.263  12.778 -0.3383 -0.4174  0.1133
   30CGG   AL83 7135  10.388  10.548  12.813 -0.2697  0.0504 -0.1355
   30CGG   AL84 7136  10.618  10.719  12.901  0.0262  0.4099 -0.1436
   30CGG    SI5 7137  10.299  12.006  13.278  0.1747 -0.1436 -0.3401
   30CGG    SI6 7138  10.220  12.608  13.348 -0.0629 -0.2432  0.2994
   30CGG    SI7 7139  10.269  12.840  12.825 -0.1098 -0.2231 -0.3225
   30CGG    SI8 7140  10.337  12.240  12.756 -0.0655 -0.4040  0.0274
   30CGG    SI9 7141   9.996  12.428  13.248  0.4694 -0.4361  0.0734
   30CGG   SI10 7142  10.035  12.128  13.213  0.1698 -0.4206 -0.1745
   30CGG   SI11 7143  10.568  12.419  12.856 -0.0752  0.8116 -0.0983
   30CGG   SI12 7144  10.528  12.715  12.891 -0.0804  0.2330  0.2554
   30CGG   SI45 7145  10.412  11.118  13.175 -0.5389 -0.5682  0.0574
   30CGG   SI46 7146  10.334  11.710  13.242  0.2880  0.1102 -0.2257
   30CGG   SI47 7147  10.381  11.954  12.721 -0.2672  0.4390  0.0610
   30CGG   SI48 7148  10.465  11.348  12.659  0.4127  0.5463 -0.0384
   30CGG   SI49 7149  10.105  11.539  13.144 -0.1556  0.5347 -0.0114
   30CGG   SI50 7150  10.152  11.248  13.114 -0.2351  0.2987  0.0801
   30CGG   SI51 7151  10.692  11.525  12.754  0.1168  0.3635 -0.2183
   30CGG   SI52 7152  10.640  11.819  12.781 -0.7483 -0.0489  0.0714
   30CGG   SI85 7153  10.503  10.227  13.085 -0.3854 -0.2510  0.0517
   30CGG   SI86 7154  10.441  10.821  13.146 -0.2783  0.2521 -0.3431
   30CGG   SI87 7155  10.501  11.049  12.626 -0.0805 -0.3991 -0.1357
   30CGG   SI88 7156  10.557  10.454  12.560  0.5297  0.2163 -0.0148
   30CGG   SI89 7157  10.209  10.649  13.048  0.1425  0.4297  0.0508
   30CGG   SI90 7158  10.250  10.353  13.028 -0.2432 -0.4253  0.2900
   30CGG   SI91 7159  10.789  10.627  12.659 -0.0425 -0.1856  0.4068
   30CGG   SI92 7160  10.760  10.917  12.690 -0.0179 -0.1568  0.0199
   31CGG    AL1 7161   9.868  12.753  12.970 -0.1295 -0.4369 -0.2733
   31CGG    AL2 7162   9.716  12.004  12.812  0.1252 -0.3295  0.1944
   31CGG    AL3 7163   9.680  12.295  12.841  0.3017 -0.1644 -0.4148
   31CGG    AL4 7164   9.898  12.466  12.940 -0.0438  0.4542  0.2000
   31CGG   AL41 7165   9.984  11.865  12.874  0.6597  0.0680  0.1964
   31CGG   AL42 7166   9.832  11.111  12.706 -0.0439  0.3139 -0.1076
   31CGG   AL43 7167   9.792  11.411  12.744 -0.0093  0.4313  0.1290
   31CGG   AL44 7168  10.020  11.577  12.844 -0.3023  0.0033 -0.1543
   31CGG   AL81 7169  10.103  10.978  12.768  0.2886 -0.4790  0.4462
   31CGG   AL82 7170   9.930  10.210  12.620  0.0378 -0.2962 -0.0035
   31CGG   AL83 7171   9.897  10.514  12.649  0.3597 -0.1069 -0.0912
   31CGG   AL84 7172  10.128  10.683  12.739  0.7596  0.6772 -0.5322
   31CGG    SI5 7173   9.811  11.965  13.120  0.0545  0.2095  0.0459
   31CGG    SI6 7174   9.736  12.563  13.194 -0.3003 -0.2315 -0.2622
   31CGG    SI7 7175   9.785  12.797  12.668  0.1266  0.1897 -0.1991
   31CGG    SI8 7176   9.854  12.198  12.597  0.3338  0.0109  0.0250
   31CGG    SI9 7177   9.503  12.386  13.092  0.2831  0.0537  0.5347
   31CGG   SI10 7178   9.551  12.094  13.062 -0.2829 -0.1144  0.6718
   31CGG   SI11 7179  10.084  12.375  12.692  0.1613 -0.1352  0.2328
   31CGG   SI12 7180  10.046  12.668  12.728  0.1660 -0.2766  0.3346
   31CGG   SI45 7181   9.931  11.082  13.013  0.5584  0.0704 -0.1187
   31CGG   SI46 7182   9.845  11.673  13.093 -0.8237  0.0163 -0.0856
   31CGG   SI47 7183   9.895  11.907  12.568  0.0946  0.0520  0.0809
   31CGG   SI48 7184   9.969  11.308  12.495  0.5887 -0.1694 -0.3721
   31CGG   SI49 7185   9.612  11.497  12.997 -0.0301  0.4054 -0.2267
   31CGG   SI50 7186   9.664  11.209  12.960 -0.1258  0.0833  0.1469
   31CGG   SI51 7187  10.203  11.483  12.598  0.5476  0.0577 -0.0320
   31CGG   SI52 7188  10.155  11.782  12.624 -0.0353 -0.0923  0.4191
   31CGG   SI85 7189  10.026  10.188  12.925  0.2933  0.1941  0.0624
   31CGG   SI86 7190   9.957  10.785  12.985 -0.4688 -0.1548 -0.2512
   31CGG   SI87 7191  10.007  11.007  12.467  0.2014 -0.0438  0.0464
   31CGG   SI88 7192  10.071  10.407  12.405  0.1175 -0.1684  0.3487
   31CGG   SI89 7193   9.727  10.614  12.887  0.3098 -0.1303 -0.0480
   31CGG   SI90 7194   9.767  10.317  12.861 -0.2666 -0.2880  0.0589
   31CGG   SI91 7195  10.304  10.589  12.501 -0.1980 -0.2711 -0.0190
   31CGG   SI92 7196  10.277  10.880  12.526  0.4989  0.0306 -0.3024
   32CGG    AL1 7197   9.373  12.716  12.805  0.0781  0.3552 -0.0397
   32CGG    AL2 7198   9.225  11.957  12.649  0.0146 -0.0876 -0.2351
   32CGG    AL3 7199   9.193  12.255  12.678 -0.3561  0.0453  0.2657
   32CGG    AL4 7200   9.422  12.424  12.775 -0.0779 -0.1492 -0.0407
   32CGG   AL41 7201   9.503  11.821  12.712  0.1617  0.1574  0.4950
   32CGG   AL42 7202   9.330  11.070  12.552 -0.3819  0.3336  0.2712
   32CGG   AL43 7203   9.298  11.363  12.589 -0.5428  0.3350  0.3089
   32CGG   AL44 7204   9.534  11.529  12.681  0.1214 -0.2032  0.0145
   32CGG   AL81 7205   9.603  10.932  12.611 -0.2423  0.1457  0.1418
   32CGG   AL82 7206   9.446  10.167  12.462  0.5334 -0.4522 -0.0800
   32CGG   AL83 7207   9.409  10.462  12.489  0.0094  0.2549 -0.6567
   32CGG   AL84 7208   9.636  10.641  12.581  0.1149 -0.0830  0.0982
   32CGG    SI5 7209   9.326  11.919  12.951 -0.2062  0.0513  0.0023
   32CGG    SI6 7210   9.247  12.517  13.024  0.3113 -0.0088 -0.2296
   32CGG    SI7 7211   9.287  12.743  12.499  0.0643  0.4742  0.2558
   32CGG    SI8 7212   9.363  12.152  12.427  0.1363 -0.1616 -0.1759
   32CGG    SI9 7213   9.017  12.344  12.922  0.1551  0.1030  0.1948
   32CGG   SI10 7214   9.061  12.054  12.900 -0.2530  0.1224  0.0757
   32CGG   SI11 7215   9.601  12.335  12.527  0.2012  0.3033  0.3206
   32CGG   SI12 7216   9.554  12.625  12.561  0.1313  0.0023 -0.1418
   32CGG   SI45 7217   9.436  11.035  12.860 -0.2950 -0.1038  0.7686
   32CGG   SI46 7218   9.361  11.623  12.923  0.1920  0.3113 -0.0671
   32CGG   SI47 7219   9.403  11.858  12.406 -0.0864  0.0539  0.2989
   32CGG   SI48 7220   9.470  11.265  12.338 -0.0340 -0.1731 -0.3011
   32CGG   SI49 7221   9.129  11.453  12.839 -0.2842  0.1657 -0.2974
   32CGG   SI50 7222   9.167  11.162  12.801 -0.0657  0.2018  0.3208
   32CGG   SI51 7223   9.712  11.435  12.436  0.0755 -0.4965 -0.3718
   32CGG   SI52 7224   9.673  11.732  12.469  0.4957 -0.4949  0.0815
   32CGG   SI85 7225   9.540  10.141  12.763 -0.0364  0.0604 -0.3195
   32CGG   SI86 7226   9.470  10.734  12.831  0.2610 -0.2038  0.1691
   32CGG   SI87 7227   9.505  10.969  12.307 -0.3449 -0.0859  0.1319
   32CGG   SI88 7228   9.584  10.367  12.244 -0.4787 -0.4112 -0.2130
   32CGG   SI89 7229   9.235  10.556  12.736 -0.1987 -0.5638 -0.0636
   32CGG   SI90 7230   9.274  10.263  12.707 -0.0086 -0.1548  0.0517
   32CGG   SI91 7231   9.813  10.547  12.337 -0.0166 -0.0232 -0.0841
   32CGG   SI92 7232   9.766  10.834  12.364  0.1689 -0.2983  0.0740
   33CGG    AL1 7233   8.888  12.668  12.641 -0.1642 -0.1001 -0.3370
   33CGG    AL2 7234   8.744  11.914  12.500 -0.0394 -0.0584 -0.0197
   33CGG    AL3 7235   8.701  12.211  12.525 -0.7227  0.0590 -0.1572
   33CGG    AL4 7236   8.935  12.374  12.620  0.2162 -0.0122  0.0248
   33CGG   AL41 7237   8.998  11.782  12.558 -0.3166  0.0895  0.0585
   33CGG   AL42 7238   8.843  11.022  12.384 -0.6831  0.1955 -0.1227
   33CGG   AL43 7239   8.812  11.315  12.425 -0.0055 -0.1862  0.1925
   33CGG   AL44 7240   9.037  11.487  12.525 -0.0078 -0.3390 -0.0957
   33CGG   AL81 7241   9.111  10.888  12.450  0.1849  0.0330  0.4008
   33CGG   AL82 7242   8.958  10.137  12.303 -0.0946 -0.2949  0.7139
   33CGG   AL83 7243   8.917  10.422  12.327  0.1728 -0.2521 -0.0543
   33CGG   AL84 7244   9.148  10.592  12.423  0.7094  0.1870  0.3917
   33CGG    SI5 7245   8.836  11.881  12.810  0.0118 -0.8952 -0.2556
   33CGG    SI6 7246   8.760  12.484  12.863 -0.3074  0.4735  0.1990
   33CGG    SI7 7247   8.806  12.708  12.336  0.5038  0.1640 -0.0365
   33CGG    SI8 7248   8.877  12.109  12.278 -0.2511 -0.1917 -0.0184
   33CGG    SI9 7249   8.529  12.301  12.769 -0.4309 -0.1283 -0.1675
   33CGG   SI10 7250   8.583  12.015  12.749  0.3867  0.4956  0.0476
   33CGG   SI11 7251   9.104  12.290  12.365 -0.2678  0.7484  0.0781
   33CGG   SI12 7252   9.067  12.574  12.398  0.2434 -0.3477  0.3613
   33CGG   SI45 7253   8.943  10.990  12.696 -0.6411 -0.2817  0.0168
   33CGG   SI46 7254   8.874  11.588  12.785 -0.2082  0.6767  0.5385
   33CGG   SI47 7255   8.913  11.822  12.249 -0.1715  0.3785  0.1074
   33CGG   SI48 7256   8.984  11.213  12.174 -0.0963 -0.0260  0.5678
   33CGG   SI49 7257   8.638  11.412  12.671  0.2048 -0.2103 -0.0093
   33CGG   SI50 7258   8.680  11.115  12.636  0.0676 -0.2272  0.5788
   33CGG   SI51 7259   9.210  11.394  12.280  0.1243 -0.0857  0.0041
   33CGG   SI52 7260   9.175  11.687  12.311  0.0458 -0.3302  0.0739
   33CGG   SI85 7261   9.046  10.103  12.609  0.3749 -0.6273 -0.0991
   33CGG   SI86 7262   8.983  10.694  12.676  0.8805  0.0742  0.6941
   33CGG   SI87 7263   9.023  10.919  12.140  0.0847 -0.0668  0.1216
   33CGG   SI88 7264   9.092  10.329  12.078 -0.1343  0.1297 -0.1213
   33CGG   SI89 7265   8.738  10.520  12.577 -0.2522  0.0822 -0.0023
   33CGG   SI90 7266   8.789  10.231  12.554 -0.0147 -0.1716  0.7819
   33CGG   SI91 7267   9.323  10.501  12.182 -0.1418  0.1638  0.4433
   33CGG   SI92 7268   9.278  10.792  12.201  0.0873 -0.2545 -0.1132
   34CGG    AL1 7269   8.398  12.629  12.481  0.3559 -0.2857 -0.0170
   34CGG    AL2 7270   8.247  11.869  12.333  0.2946 -0.1888 -0.3187
   34CGG    AL3 7271   8.218  12.174  12.367  0.2687  0.2134 -0.1932
   34CGG    AL4 7272   8.441  12.331  12.452  0.1306 -0.1617 -0.3319
   34CGG   AL41 7273   8.523  11.743  12.394  0.4324 -0.0869 -0.0464
   34CGG   AL42 7274   8.355  10.979  12.237 -0.0279  0.0120 -0.3369
   34CGG   AL43 7275   8.324  11.274  12.271 -0.0541 -0.3813 -0.0818
   34CGG   AL44 7276   8.545  11.449  12.364 -0.1201  0.2512  0.2973
   34CGG   AL81 7277   8.619  10.839  12.295 -0.2311 -0.0092 -0.1787
   34CGG   AL82 7278   8.468  10.091  12.134 -0.5179 -0.1389 -0.0389
   34CGG   AL83 7279   8.430  10.383  12.165 -0.0854  0.4379  0.8090
   34CGG   AL84 7280   8.661  10.542  12.267 -0.5655  0.0304  0.2364
   34CGG    SI5 7281   8.350  11.846  12.640 -0.0936  0.5376  0.0977
   34CGG    SI6 7282   8.277  12.434  12.710 -0.2555 -0.1067  0.0581
   34CGG    SI7 7283   8.311  12.655  12.175  0.0358  0.2500 -0.1622
   34CGG    SI8 7284   8.379  12.061  12.118 -0.0199 -0.5235  0.3503
   34CGG    SI9 7285   8.045  12.266  12.618 -0.3383  0.3375  0.1876
   34CGG   SI10 7286   8.084  11.973  12.587 -0.0840  0.2499  0.3729
   34CGG   SI11 7287   8.613  12.232  12.215  0.1351 -0.1154  0.2629
   34CGG   SI12 7288   8.574  12.527  12.235 -0.2820  0.2880 -0.1271
   34CGG   SI45 7289   8.447  10.948  12.541  0.1735 -0.0299  0.1388
   34CGG   SI46 7290   8.376  11.555  12.607  0.1084 -0.0361  0.1936
   34CGG   SI47 7291   8.421  11.771  12.093 -0.0333  0.3218 -0.0065
   34CGG   SI48 7292   8.488  11.169  12.023  0.2876  0.0873 -0.2051
   34CGG   SI49 7293   8.152  11.373  12.510  0.3926  0.1288 -0.2880
   34CGG   SI50 7294   8.182  11.077  12.481 -0.2087 -0.2765 -0.0728
   34CGG   SI51 7295   8.724  11.346  12.120 -0.0261 -0.1857  0.0984
   34CGG   SI52 7296   8.681  11.641  12.147 -0.4680  0.4051 -0.4951
   34CGG   SI85 7297   8.559  10.055  12.448  0.2577 -0.0534 -0.0345
   34CGG   SI86 7298   8.486  10.652  12.514 -0.7890 -0.3179  0.2630
   34CGG   SI87 7299   8.525  10.879  11.991  0.0584  0.3640  0.0292
   34CGG   SI88 7300   8.599  10.287  11.915  0.0680  0.0537 -0.0243
   34CGG   SI89 7301   8.260  10.481  12.410  0.5108 -0.2536  0.0328
   34CGG   SI90 7302   8.293  10.185  12.380 -0.0024  0.2943 -0.3958
   34CGG   SI91 7303   8.832  10.454  12.016 -0.0422 -0.0135 -0.2205
   34CGG   SI92 7304   8.785  10.743  12.043 -0.4074 -0.1822 -0.0836
   35CGG    AL1 7305   7.909  12.577  12.339  0.0133 -0.0710  0.3436
   35CGG    AL2 7306   7.754  11.828  12.183  0.4579  0.4620 -0.5426
   35CGG    AL3 7307   7.727  12.122  12.216  0.0087  0.5961  0.2724
   35CGG    AL4 7308   7.954  12.301  12.309  0.1380 -0.0254 -0.0992
   35CGG   AL41 7309   8.025  11.704  12.229 -0.0447  0.4314  0.0141
   35CGG   AL42 7310   7.871  10.935  12.081 -0.0872  0.1402  0.0475
   35CGG   AL43 7311   7.832  11.231  12.111 -0.0966 -0.1310  0.1792
   35CGG   AL44 7312   8.059  11.407  12.207 -0.0626  0.0057 -0.2318
   35CGG   AL81 7313   8.132  10.802  12.136 -0.2868 -0.3492  0.5059
   35CGG   AL82 7314   7.981  10.042  11.984  0.5381 -0.3699  0.1429
   35CGG   AL83 7315   7.946  10.339  12.014  0.2710 -0.2912 -0.0333
   35CGG   AL84 7316   8.166  10.521  12.100  0.2521  0.1544 -0.0170
   35CGG    SI5 7317   7.864  11.798  12.484  0.1976 -0.6942  0.2586
   35CGG    SI6 7318   7.786  12.392  12.564  0.1349 -0.1167  0.1503
   35CGG    SI7 7319   7.810  12.621  12.033  0.1621  0.1799  0.1504
   35CGG    SI8 7320   7.893  12.021  11.971  0.0939 -0.0442  0.2272
   35CGG    SI9 7321   7.554  12.223  12.462 -0.0201  0.1833  0.0533
   35CGG   SI10 7322   7.593  11.924  12.439 -0.2261  0.0577  0.7634
   35CGG   SI11 7323   8.121  12.197  12.064  0.5120 -0.5271 -0.1177
   35CGG   SI12 7324   8.076  12.496  12.083 -0.1079 -0.0832 -0.7824
   35CGG   SI45 7325   7.960  10.904  12.388 -0.0248 -0.0107 -0.1512
   35CGG   SI46 7326   7.894  11.510  12.451  0.1108  0.6247 -0.4642
   35CGG   SI47 7327   7.935  11.733  11.929  0.4165 -0.2491  0.4383
   35CGG   SI48 7328   7.998  11.134  11.860  0.1656  0.3830  0.2896
   35CGG   SI49 7329   7.667  11.329  12.356  0.0120  0.1107  0.2271
   35CGG   SI50 7330   7.702  11.039  12.323 -0.4244 -0.0527 -0.0349
   35CGG   SI51 7331   8.236  11.306  11.957 -0.0662  0.3865 -0.4230
   35CGG   SI52 7332   8.193  11.602  11.990 -0.2832 -0.1611 -0.1238
   35CGG   SI85 7333   8.079  10.013  12.285 -0.0050 -0.3251 -0.3207
   35CGG   SI86 7334   8.000  10.617  12.356 -0.5160  0.2166 -0.0967
   35CGG   SI87 7335   8.049  10.839  11.829  0.0390  0.0955  0.0062
   35CGG   SI88 7336   8.109  10.236  11.765 -0.2243 -0.3004  0.1302
   35CGG   SI89 7337   7.773  10.442  12.255 -0.1782 -0.0552  0.0192
   35CGG   SI90 7338   7.816  10.147  12.236  0.2101  0.1301 -0.5429
   35CGG   SI91 7339   8.342  10.419  11.857  0.6487 -0.4080  0.1104
   35CGG   SI92 7340   8.305  10.710  11.885  0.0191 -0.1945 -0.1520
   36CGG    AL1 7341   7.420  12.552  12.185  0.6580  0.4224  0.0910
   36CGG    AL2 7342   7.267  11.784  12.029 -0.1912  0.0077  0.1503
   36CGG    AL3 7343   7.231  12.084  12.064  0.3012 -0.3289  0.6211
   36CGG    AL4 7344   7.458  12.252  12.156 -0.0978  0.0792 -0.0533
   36CGG   AL41 7345   7.531  11.650  12.080  0.6991 -0.3595 -0.1755
   36CGG   AL42 7346   7.374  10.894  11.929 -0.1480  0.0726 -0.7370
   36CGG   AL43 7347   7.336  11.194  11.960 -0.2287 -0.0941  0.0412
   36CGG   AL44 7348   7.570  11.355  12.052  0.0444 -0.2508  0.5147
   36CGG   AL81 7349   7.639  10.767  11.983 -0.4604 -0.2637 -0.0072
   36CGG   AL82 7350   7.491  10.006  11.833  0.0227 -0.3550  0.4414
   36CGG   AL83 7351   7.453  10.292  11.861  0.0514 -0.2050  0.3732
   36CGG   AL84 7352   7.682  10.463  11.947  0.3307 -0.2629  0.1436
   36CGG    SI5 7353   7.362  11.748  12.333 -0.1921 -0.5606  0.1784
   36CGG    SI6 7354   7.292  12.353  12.403  0.0078  0.5072  0.0018
   36CGG    SI7 7355   7.316  12.566  11.883  0.1188  0.0167 -0.2658
   36CGG    SI8 7356   7.395  11.979  11.805  0.1659  0.0165 -0.1110
   36CGG    SI9 7357   7.059  12.178  12.311  0.5080  0.2020  0.2869
   36CGG   SI10 7358   7.101  11.890  12.276  0.3741  0.2386 -0.3886
   36CGG   SI11 7359   7.634  12.155  11.912  0.1992 -0.2796 -0.2206
   36CGG   SI12 7360   7.581  12.442  11.940  0.0219 -0.2155  0.2773
   36CGG   SI45 7361   7.474  10.860  12.235 -0.4736  0.3634  0.4340
   36CGG   SI46 7362   7.399  11.452  12.304 -0.0053  0.0346 -0.0470
   36CGG   SI47 7363   7.432  11.683  11.775 -0.4674  0.6463 -0.4001
   36CGG   SI48 7364   7.506  11.089  11.710  0.1972 -0.2907 -0.0171
   36CGG   SI49 7365   7.164  11.279  12.208 -0.4695  0.1218  0.1195
   36CGG   SI50 7366   7.221  10.989  12.181  0.2158  0.0257  0.4713
   36CGG   SI51 7367   7.736  11.263  11.805 -0.0974  0.0446  0.1294
   36CGG   SI52 7368   7.699  11.553  11.834  0.3114  0.0145 -0.1003
   36CGG   SI85 7369   7.592   9.971  12.139  0.6001 -0.2687  0.0125
   36CGG   SI86 7370   7.513  10.571  12.197 -0.1878  0.1631 -0.1236
   36CGG   SI87 7371   7.543  10.801  11.678 -0.3888  0.4580 -0.0017
   36CGG   SI88 7372   7.621  10.191  11.611 -0.2545  0.0837  0.4110
   36CGG   SI89 7373   7.280  10.391  12.113  0.2900  0.2130 -0.0568
   36CGG   SI90 7374   7.331  10.102  12.091  0.1074  0.2866 -0.1364
   36CGG   SI91 7375   7.853  10.367  11.706  0.3086 -0.3769  0.4342
   36CGG   SI92 7376   7.804  10.668  11.731 -0.0182  0.2688 -0.4830
   37CGG    AL1 7377   6.921  12.493  12.036  0.2933 -0.0191 -0.5099
   37CGG    AL2 7378   6.776  11.742  11.886 -0.0380  0.8948 -0.2820
   37CGG    AL3 7379   6.738  12.022  11.921  0.4091 -0.2100 -0.2452
   37CGG    AL4 7380   6.964  12.204  12.006  0.4022  0.5944  0.4423
   37CGG   AL41 7381   7.042  11.606  11.930  0.1957  0.1215  0.1322
   37CGG   AL42 7382   6.885  10.848  11.788  0.1827 -0.4831  0.1690
   37CGG   AL43 7383   6.848  11.151  11.813 -0.1681  0.2339  0.0157
   37CGG   AL44 7384   7.072  11.318  11.899 -0.3603 -0.1049  0.0125
   37CGG   AL81 7385   7.158  10.713  11.848  0.1355  0.2563  0.3357
   37CGG   AL82 7386   6.997   9.962  11.691  0.1528 -0.1405 -0.0431
   37CGG   AL83 7387   6.956  10.257  11.717  0.2171  0.3938 -0.0315
   37CGG   AL84 7388   7.179  10.424  11.813 -0.1617 -0.0554 -0.0475
   37CGG    SI5 7389   6.883  11.708  12.188 -0.1262 -0.5136 -0.2284
   37CGG    SI6 7390   6.800  12.305  12.248  0.2602 -0.0179 -0.3218
   37CGG    SI7 7391   6.831  12.537  11.735 -0.0805  0.2925  0.2811
   37CGG    SI8 7392   6.901  11.939  11.663 -0.0747  0.0841 -0.0295
   37CGG    SI9 7393   6.568  12.131  12.160  0.2056  0.0179 -0.1761
   37CGG   SI10 7394   6.613  11.834  12.150  0.0453  0.5635  0.2184
   37CGG   SI11 7395   7.135  12.114  11.758 -0.2616 -0.2027 -0.1988
   37CGG   SI12 7396   7.090  12.403  11.789 -0.3591  0.0870  0.4530
   37CGG   SI45 7397   6.987  10.814  12.099 -0.6749 -0.0150 -0.0761
   37CGG   SI46 7398   6.911  11.415  12.157 -0.0694  0.0407  0.0368
   37CGG   SI47 7399   6.946  11.645  11.630 -0.2503  0.0074  0.0590
   37CGG   SI48 7400   7.012  11.046  11.565  0.0238  0.1642 -0.2398
   37CGG   SI49 7401   6.671  11.242  12.062 -0.4168 -0.3308 -0.0427
   37CGG   SI50 7402   6.724  10.952  12.035  0.2353 -0.2194  0.0333
   37CGG   SI51 7403   7.242  11.218  11.657  0.1534  0.1811 -0.0900
   37CGG   SI52 7404   7.207  11.517  11.683 -0.1108  0.1548  0.2836
   37CGG   SI85 7405   7.103   9.926  11.992 -0.4380 -0.1851  0.0414
   37CGG   SI86 7406   7.022  10.523  12.065  0.2856 -0.1473 -0.4075
   37CGG   SI87 7407   7.059  10.751  11.535 -0.0960  0.0702  0.0475
   37CGG   SI88 7408   7.117  10.153  11.467 -0.3723 -0.0363 -0.2056
   37CGG   SI89 7409   6.784  10.357  11.966 -0.0328  0.3958  0.5033
   37CGG   SI90 7410   6.839  10.058  11.945  0.5231 -0.3170  0.0630
   37CGG   SI91 7411   7.350  10.321  11.560 -0.6110  0.1560 -0.1377
   37CGG   SI92 7412   7.320  10.618  11.592 -0.1570  0.3426 -0.2591
   38CGG    AL1 7413   6.434  12.451  11.882  0.0132  0.1402 -0.5680
   38CGG    AL2 7414   6.284  11.689  11.739 -0.3817  0.1780  0.3800
   38CGG    AL3 7415   6.243  11.986  11.767  0.1540 -0.3312  0.1463
   38CGG    AL4 7416   6.476  12.159  11.852  0.0463  0.1792 -0.3323
   38CGG   AL41 7417   6.543  11.564  11.786  0.2851  0.0713 -0.0039
   38CGG   AL42 7418   6.386  10.805  11.635 -0.4068 -0.2351 -0.3344
   38CGG   AL43 7419   6.361  11.098  11.673  0.2240 -0.2712  0.0531
   38CGG   AL44 7420   6.577  11.276  11.760  0.1528  0.3184  0.1971
   38CGG   AL81 7421   6.653  10.680  11.690  0.0186 -0.2977 -0.2921
   38CGG   AL82 7422   6.507   9.902  11.549  0.0939  0.0510 -0.0905
   38CGG   AL83 7423   6.462  10.207  11.585  0.3033 -0.1578 -0.3434
   38CGG   AL84 7424   6.691  10.385  11.661 -0.1541  0.1498  0.1963
   38CGG    SI5 7425   6.380  11.667  12.039 -0.2222 -0.6622 -0.3152
   38CGG    SI6 7426   6.308  12.253  12.103 -0.0302  0.0226 -0.1167
   38CGG    SI7 7427   6.331  12.482  11.580 -0.2731  0.2822  0.2797
   38CGG    SI8 7428   6.406  11.891  11.512 -0.2737  0.1005  0.0892
   38CGG    SI9 7429   6.072  12.083  12.015 -0.0629 -0.0172  0.0570
   38CGG   SI10 7430   6.114  11.794  11.982 -0.4014  0.2321  0.0363
   38CGG   SI11 7431   6.649  12.066  11.608 -0.3436 -0.0619  0.1615
   38CGG   SI12 7432   6.599  12.362  11.633 -0.3237 -0.2135  0.5844
   38CGG   SI45 7433   6.489  10.777  11.943 -0.2050 -0.0473  0.3758
   38CGG   SI46 7434   6.417  11.378  12.011  0.2320 -0.1562  0.0362
   38CGG   SI47 7435   6.448  11.590  11.484  0.4510  0.2146  0.4271
   38CGG   SI48 7436   6.515  11.000  11.418  0.2633  0.0407  0.2227
   38CGG   SI49 7437   6.185  11.189  11.928 -0.1245 -0.4094  0.5998
   38CGG   SI50 7438   6.224  10.901  11.888  0.0517 -0.1967  0.0268
   38CGG   SI51 7439   6.750  11.178  11.505 -0.0638  0.3471  0.6010
   38CGG   SI52 7440   6.710  11.463  11.539  0.2036 -0.6034  0.0184
   38CGG   SI85 7441   6.610   9.875  11.851 -0.1357  0.0849  0.0001
   38CGG   SI86 7442   6.524  10.478  11.906  0.3721  0.0222 -0.1788
   38CGG   SI87 7443   6.559  10.705  11.383  0.2687 -0.2327  0.3127
   38CGG   SI88 7444   6.627  10.112  11.328 -0.1639  0.0238  0.1390
   38CGG   SI89 7445   6.300  10.287  11.833  0.1548  0.0421  0.0730
   38CGG   SI90 7446   6.343   9.998  11.803 -0.0221  0.1380  0.1482
   38CGG   SI91 7447   6.864  10.284  11.416 -0.1952 -0.1976  0.2265
   38CGG   SI92 7448   6.821  10.581  11.447 -0.0195  0.4023 -0.0763
   39CGG    AL1 7449   5.934  12.404  11.735  0.3453 -0.2464  0.4953
   39CGG    AL2 7450   5.779  11.652  11.593  0.0343 -0.3348 -0.1043
   39CGG    AL3 7451   5.750  11.936  11.629 -0.1261 -0.5973  0.0971
   39CGG    AL4 7452   5.982  12.108  11.717 -0.0593 -0.3317  0.3585
   39CGG   AL41 7453   6.049  11.526  11.653 -0.2629  0.2140  0.2123
   39CGG   AL42 7454   5.899  10.757  11.501 -0.1061 -0.2590 -0.4154
   39CGG   AL43 7455   5.865  11.048  11.528 -0.0383 -0.2068 -0.0543
   39CGG   AL44 7456   6.091  11.223  11.621  0.2924  0.2146  0.5611
   39CGG   AL81 7457   6.167  10.627  11.552  0.1536 -0.1107 -0.0534
   39CGG   AL82 7458   6.009   9.864  11.418  0.1207  0.0965  0.1886
   39CGG   AL83 7459   5.974  10.156  11.444 -0.0461 -0.0099  0.0316
   39CGG   AL84 7460   6.204  10.334  11.524  0.5035  0.1325 -0.1660
   39CGG    SI5 7461   5.888  11.625  11.902  0.0652 -0.0360  0.2284
   39CGG    SI6 7462   5.810  12.209  11.963  0.1323  0.0280 -0.2579
   39CGG    SI7 7463   5.840  12.443  11.435  0.1440  0.4401  0.6129
   39CGG    SI8 7464   5.904  11.848  11.371 -0.3357 -0.3766  0.2347
   39CGG    SI9 7465   5.573  12.037  11.876 -0.1809  0.1615 -0.1217
   39CGG   SI10 7466   5.620  11.747  11.848  0.0638 -0.1613 -0.2116
   39CGG   SI11 7467   6.143  12.021  11.461 -0.2560 -0.0922 -0.0129
   39CGG   SI12 7468   6.109  12.309  11.490  0.3443 -0.4604 -0.3796
   39CGG   SI45 7469   6.004  10.726  11.803 -0.1293  0.4031  0.3917
   39CGG   SI46 7470   5.930  11.327  11.876  0.6569  0.8173 -0.3653
   39CGG   SI47 7471   5.948  11.557  11.347  0.5455  0.3028 -0.1015
   39CGG   SI48 7472   6.024  10.951  11.279  0.2565 -0.1290  0.0497
   39CGG   SI49 7473   5.694  11.146  11.777 -0.2095  0.5266 -0.2961
   39CGG   SI50 7474   5.741  10.851  11.753  0.2184 -0.3698  0.4313
   39CGG   SI51 7475   6.258  11.134  11.367  0.0863  0.1324 -0.4296
   39CGG   SI52 7476   6.214  11.425  11.397  0.3109  0.0029 -0.3241
   39CGG   SI85 7477   6.117   9.831  11.720  0.2628 -0.2519  0.6014
   39CGG   SI86 7478   6.042  10.428  11.777 -0.1059  0.1323 -0.1801
   39CGG   SI87 7479   6.073  10.664  11.249  0.0851  0.2733  0.3609
   39CGG   SI88 7480   6.138  10.057  11.192  0.2792  0.1037  0.1763
   39CGG   SI89 7481   5.804  10.260  11.693  0.1124 -0.5869  0.0335
   39CGG   SI90 7482   5.849   9.967  11.670 -0.3436  0.4011  0.1153
   39CGG   SI91 7483   6.364  10.243  11.275 -0.3412  0.4270 -0.0389
   39CGG   SI92 7484   6.326  10.535  11.302  0.1275 -0.2956  0.0003
   40CGG    AL1 7485   5.435  12.356  11.602 -0.2360 -0.2283 -0.0151
   40CGG    AL2 7486   5.284  11.598  11.470 -0.1061  0.2684 -0.2433
   40CGG    AL3 7487   5.241  11.900  11.496  0.0665  0.3707 -0.3649
   40CGG    AL4 7488   5.468  12.067  11.576 -0.1173  0.5556 -0.4010
   40CGG   AL41 7489   5.552  11.463  11.504 -0.1308 -0.3363 -0.8831
   40CGG   AL42 7490   5.400  10.704  11.364 -0.5800 -0.0329  0.1515
   40CGG   AL43 7491   5.362  11.006  11.387  0.4778  0.7168 -0.3198
   40CGG   AL44 7492   5.592  11.170  11.479 -0.4694  0.4106  0.2783
   40CGG   AL81 7493   5.670  10.584  11.413 -0.2483  0.0175  0.1947
   40CGG   AL82 7494   5.508   9.827  11.274 -0.0410  0.1837 -0.8044
   40CGG   AL83 7495   5.478  10.111  11.313  0.0410 -0.3603  0.0761
   40CGG   AL84 7496   5.709  10.287  11.393 -0.0181 -0.0623 -0.2940
   40CGG    SI5 7497   5.393  11.564  11.768 -0.1969  0.6314  0.3677
   40CGG    SI6 7498   5.309  12.171  11.825  0.1701  0.2443  0.0666
   40CGG    SI7 7499   5.331  12.403  11.300 -0.4533  0.5492 -0.3085
   40CGG    SI8 7500   5.399  11.795  11.240  0.2008  0.3121  0.0322
   40CGG    SI9 7501   5.071  11.993  11.748 -0.1917 -0.2881  0.1013
   40CGG   SI10 7502   5.126  11.704  11.728 -0.2444 -0.1563 -0.0417
   40CGG   SI11 7503   5.634  11.965  11.332 -0.3188 -0.3005  0.1848
   40CGG   SI12 7504   5.602  12.258  11.360 -0.2045  0.1830  0.4896
   40CGG   SI45 7505   5.514  10.673  11.665  0.5821  0.4515 -0.1600
   40CGG   SI46 7506   5.430  11.272  11.729 -0.2246  0.0023  0.0371
   40CGG   SI47 7507   5.434  11.499  11.212  0.0228 -0.0075 -0.0086
   40CGG   SI48 7508   5.519  10.905  11.136 -0.4197 -0.3152  0.0870
   40CGG   SI49 7509   5.194  11.098  11.630  0.0070 -0.1042 -0.2322
   40CGG   SI50 7510   5.242  10.810  11.621 -0.5018  0.4066 -0.4780
   40CGG   SI51 7511   5.759  11.080  11.231  0.2013 -0.1758  0.1811
   40CGG   SI52 7512   5.711  11.375  11.252  0.0651 -0.0175 -0.1386
   40CGG   SI85 7513   5.610   9.794  11.579  0.2535  0.0346  0.0730
   40CGG   SI86 7514   5.546  10.386  11.640 -0.0255 -0.1716 -0.3176
   40CGG   SI87 7515   5.563  10.609  11.109 -0.4719 -0.1244 -0.0773
   40CGG   SI88 7516   5.640  10.022  11.054  0.2693  0.5565 -0.0518
   40CGG   SI89 7517   5.304  10.213  11.553  0.1343 -0.1984 -0.5651
   40CGG   SI90 7518   5.344   9.922  11.526  0.2275 -0.1468  0.2273
   40CGG   SI91 7519   5.873  10.188  11.146  0.1763 -0.7223  0.1883
   40CGG   SI92 7520   5.831  10.485  11.166 -0.5343 -0.2388 -0.1702
   41CGG    AL1 7521  15.011  10.477  14.457 -0.2085  0.0928  0.2249
   41CGG    AL2 7522  14.865   9.727  14.289  0.0274  0.2039  0.0404
   41CGG    AL3 7523  14.832  10.009  14.318 -0.0567 -0.0172 -0.4246
   41CGG    AL4 7524  15.052  10.180  14.418 -0.1497  0.1848  0.0505
   41CGG   AL41 7525  15.133   9.591  14.368 -0.3432  0.2219  0.6350
   41CGG   AL42 7526  14.977   8.834  14.196  0.3745  0.5473  0.2294
   41CGG   AL43 7527  14.941   9.137  14.225 -0.0491 -0.0051  0.3418
   41CGG   AL44 7528  15.168   9.294  14.335 -0.0741 -0.4766 -0.1842
   41CGG   AL81 7529  15.232   8.717  14.275 -0.2376 -0.2701  0.2158
   41CGG   AL82 7530  15.081   7.936  14.109  0.5418 -0.3691 -1.0054
   41CGG   AL83 7531  15.055   8.237  14.144  0.0135 -0.3329  0.3731
   41CGG   AL84 7532  15.278   8.411  14.256  0.3464 -0.1855  0.7550
   41CGG    SI5 7533  14.937   9.682  14.600 -0.3124  0.4097 -0.2209
   41CGG    SI6 7534  14.873  10.267  14.663 -0.0715 -0.4333 -0.0945
   41CGG    SI7 7535  14.938  10.506  14.152  0.5743 -0.1392 -0.2938
   41CGG    SI8 7536  15.015   9.917  14.083  0.3531  0.1782 -0.1091
   41CGG    SI9 7537  14.638  10.105  14.554 -0.3547 -0.2091 -0.2933
   41CGG   SI10 7538  14.681   9.814  14.525  0.2045 -0.2600 -0.4822
   41CGG   SI11 7539  15.244  10.093  14.179  0.1703 -0.5871 -0.2465
   41CGG   SI12 7540  15.199  10.387  14.228 -0.3109 -0.2259  0.1137
   41CGG   SI45 7541  15.042   8.803  14.513  0.1244 -0.0544  0.1524
   41CGG   SI46 7542  14.995   9.395  14.581  0.3515 -0.1550  0.0224
   41CGG   SI47 7543  15.057   9.631  14.056 -0.7380 -0.0603  0.3821
   41CGG   SI48 7544  15.119   9.033  13.984  0.4359 -0.1115 -0.3452
   41CGG   SI49 7545  14.750   9.229  14.466 -0.1530  0.3295  0.0944
   41CGG   SI50 7546  14.793   8.933  14.435 -0.0679 -0.4777  0.5669
   41CGG   SI51 7547  15.347   9.202  14.087  0.3500 -0.1977 -0.0476
   41CGG   SI52 7548  15.312   9.494  14.130 -0.1276 -0.1234  0.1105
   41CGG   SI85 7549  15.152   7.898  14.421 -0.0398  0.1654 -0.3974
   41CGG   SI86 7550  15.089   8.513  14.489  0.2804  0.4017  0.2605
   41CGG   SI87 7551  15.169   8.739  13.962  0.0397 -0.0708  0.4032
   41CGG   SI88 7552  15.234   8.133  13.908 -0.4859  0.4096  0.0476
   41CGG   SI89 7553  14.859   8.341  14.373  0.1105 -0.1022  0.3381
   41CGG   SI90 7554  14.902   8.042  14.349 -0.1484  0.3409  0.3148
   41CGG   SI91 7555  15.459   8.317  14.010  0.0232  0.0185  0.3617
   41CGG   SI92 7556  15.426   8.610  14.052 -0.0612  0.0614  0.6946
   42CGG    AL1 7557  14.536  10.424  14.274 -0.3650  0.0282  0.4028
   42CGG    AL2 7558  14.379   9.683  14.109 -0.4502 -0.0350 -0.3196
   42CGG    AL3 7559  14.335   9.976  14.133  0.0483 -0.1969 -0.3521
   42CGG    AL4 7560  14.563  10.134  14.247 -0.5795  0.2180  0.1095
   42CGG   AL41 7561  14.640   9.549  14.182  0.3882 -0.2133 -0.3620
   42CGG   AL42 7562  14.492   8.789  14.012  0.0792 -0.0786  0.2246
   42CGG   AL43 7563  14.449   9.094  14.040  0.0111 -0.1500 -0.2309
   42CGG   AL44 7564  14.674   9.258  14.150  0.2754 -0.0893  0.2635
   42CGG   AL81 7565  14.752   8.665  14.079 -0.4525  0.3653 -0.0082
   42CGG   AL82 7566  14.609   7.901  13.919  0.3475 -0.1794 -0.3135
   42CGG   AL83 7567  14.574   8.198  13.948  0.1298 -0.0512  0.0980
   42CGG   AL84 7568  14.794   8.369  14.059 -0.6927 -0.0794  0.5902
   42CGG    SI5 7569  14.460   9.646  14.413  0.9694 -0.1687 -0.0996
   42CGG    SI6 7570  14.393  10.236  14.490 -0.0459 -0.2004  0.3944
   42CGG    SI7 7571  14.458  10.472  13.970 -0.1934  0.1027 -0.0721
   42CGG    SI8 7572  14.524   9.879  13.904  0.1907 -0.0269  0.1434
   42CGG    SI9 7573  14.160  10.072  14.368  0.0659 -0.5861  0.1936
   42CGG   SI10 7574  14.198   9.779  14.350  0.0831  0.3446  0.1295
   42CGG   SI11 7575  14.754  10.036  14.011  0.1533  0.1007  0.1784
   42CGG   SI12 7576  14.710  10.328  14.033  0.2862 -0.1821  0.1723
   42CGG   SI45 7577  14.568   8.764  14.318  0.1298  0.3336  0.1721
   42CGG   SI46 7578  14.503   9.355  14.393  0.2111  0.1220 -0.0614
   42CGG   SI47 7579  14.572   9.594  13.872 -0.2278 -0.2196 -0.0107
   42CGG   SI48 7580  14.633   8.990  13.807  0.0117  0.0239  0.5185
   42CGG   SI49 7581  14.272   9.182  14.284  0.3337  0.3632 -0.0278
   42CGG   SI50 7582  14.309   8.891  14.241  0.0914  0.2957  0.2227
   42CGG   SI51 7583  14.865   9.169  13.912  0.1227 -0.0399 -0.0862
   42CGG   SI52 7584  14.828   9.464  13.949  0.6622 -0.2262 -0.2255
   42CGG   SI85 7585  14.683   7.877  14.232  0.3735  0.1897  0.1014
   42CGG   SI86 7586  14.608   8.466  14.285 -0.0087  0.1390 -0.1116
   42CGG   SI87 7587  14.677   8.703  13.778 -0.1712  0.3913  0.4115
   42CGG   SI88 7588  14.758   8.097  13.720  0.1713  0.3894  0.2245
   42CGG   SI89 7589  14.388   8.286  14.182  0.3000  0.5508  0.2196
   42CGG   SI90 7590  14.427   7.998  14.147  0.2629 -0.1024  0.1419
   42CGG   SI91 7591  14.991   8.273  13.825  0.3663  0.1961  0.1077
   42CGG   SI92 7592  14.943   8.571  13.850 -0.2502  0.4120  0.2014
   43CGG    AL1 7593  14.057  10.395  14.087 -0.0942 -0.3610  0.1590
   43CGG    AL2 7594  13.907   9.629  13.919 -0.0551 -0.3761 -0.0327
   43CGG    AL3 7595  13.864   9.938  13.952  0.0347  0.0736 -0.2213
   43CGG    AL4 7596  14.087  10.107  14.053 -0.1637 -0.1607 -0.6220
   43CGG   AL41 7597  14.165   9.505  14.000  0.1731  0.3949 -0.0423
   43CGG   AL42 7598  14.016   8.745  13.828 -0.7026  0.1284  0.2232
   43CGG   AL43 7599  13.978   9.045  13.856  0.0394 -0.1259 -0.0870
   43CGG   AL44 7600  14.193   9.217  13.963 -0.0404 -0.0035 -0.3131
   43CGG   AL81 7601  14.273   8.620  13.893  0.3490  0.4553 -0.0494
   43CGG   AL82 7602  14.121   7.857  13.744 -0.1133  0.1855  0.0861
   43CGG   AL83 7603  14.084   8.158  13.768 -0.4815 -0.0719  0.0584
   43CGG   AL84 7604  14.312   8.317  13.872  0.1280 -0.4219 -0.1126
   43CGG    SI5 7605  13.978   9.606  14.237 -0.5672 -0.4888 -0.0501
   43CGG    SI6 7606  13.904  10.202  14.296 -0.3271  0.1617  0.0880
   43CGG    SI7 7607  13.982  10.439  13.781 -0.1674  0.0660 -0.0178
   43CGG    SI8 7608  14.048   9.836  13.708  0.2209  0.2872 -0.1121
   43CGG    SI9 7609  13.680  10.027  14.191 -0.0530  0.3395  0.2029
   43CGG   SI10 7610  13.730   9.733  14.154  0.1625 -0.1393  0.2099
   43CGG   SI11 7611  14.264  10.013  13.822  0.2313  0.3014 -0.1071
   43CGG   SI12 7612  14.239  10.301  13.847  0.5154  0.3032  0.1213
   43CGG   SI45 7613  14.090   8.720  14.134 -0.4732  0.1893 -0.1324
   43CGG   SI46 7614  14.017   9.312  14.218 -0.5300 -0.1609  0.0362
   43CGG   SI47 7615  14.096   9.541  13.691 -0.2663 -0.1228  0.1727
   43CGG   SI48 7616  14.149   8.947  13.617 -0.5274  0.1401  0.2749
   43CGG   SI49 7617  13.796   9.145  14.099 -0.2771 -0.2321  0.3953
   43CGG   SI50 7618  13.835   8.854  14.065 -0.1291  0.1021  0.0193
   43CGG   SI51 7619  14.383   9.119  13.731  0.1376  0.3360 -0.1976
   43CGG   SI52 7620  14.352   9.409  13.765  0.0321 -0.2530  0.3741
   43CGG   SI85 7621  14.198   7.826  14.049 -0.0685  0.1931 -0.0541
   43CGG   SI86 7622  14.130   8.420  14.110 -0.0807 -0.0808 -0.0532
   43CGG   SI87 7623  14.204   8.653  13.588 -0.6307 -0.0042 -0.1935
   43CGG   SI88 7624  14.269   8.055  13.534  0.1752  0.1918 -0.1071
   43CGG   SI89 7625  13.904   8.255  14.004  0.5454 -0.0069  0.5410
   43CGG   SI90 7626  13.942   7.959  13.978 -0.3676 -0.2163 -0.3630
   43CGG   SI91 7627  14.502   8.225  13.637 -0.2005  0.6527  0.0922
   43CGG   SI92 7628  14.457   8.521  13.663  0.0121  0.1056  0.5766
   44CGG    AL1 7629  13.580  10.361  13.900 -0.0737  0.2884  0.1465
   44CGG    AL2 7630  13.422   9.608  13.743  0.0212  0.5512 -0.4362
   44CGG    AL3 7631  13.393   9.900  13.767 -0.0754  0.3423 -0.1383
   44CGG    AL4 7632  13.612  10.075  13.878  0.2077 -0.4170  0.0126
   44CGG   AL41 7633  13.685   9.461  13.808  0.1383 -0.3841 -0.5264
   44CGG   AL42 7634  13.528   8.722  13.653 -0.2500  0.3648  0.1055
   44CGG   AL43 7635  13.496   9.009  13.689 -0.2482  0.2728 -0.5589
   44CGG   AL44 7636  13.731   9.185  13.779  0.3657  0.2962 -0.5804
   44CGG   AL81 7637  13.790   8.575  13.717  0.4714  0.2333  0.3838
   44CGG   AL82 7638  13.648   7.817  13.561  0.4034  0.2587 -0.2243
   44CGG   AL83 7639  13.606   8.111  13.593  0.4031  0.1644 -0.0213
   44CGG   AL84 7640  13.830   8.288  13.691  0.0051  0.4948  0.0220
   44CGG    SI5 7641  13.504   9.567  14.047  0.0624 -0.3120  0.3323
   44CGG    SI6 7642  13.425  10.168  14.118  0.0471 -0.4439 -0.4887
   44CGG    SI7 7643  13.502  10.399  13.588 -0.1809  0.2920  0.4392
   44CGG    SI8 7644  13.572   9.799  13.526  0.3020 -0.0664  0.2756
   44CGG    SI9 7645  13.208   9.997  14.003  0.1901 -0.0929  0.0261
   44CGG   SI10 7646  13.246   9.704  13.981  0.0035 -0.2085  0.0930
   44CGG   SI11 7647  13.795   9.971  13.640 -0.2381 -0.1883 -0.1314
   44CGG   SI12 7648  13.760  10.270  13.662  0.0124 -0.1000  0.0248
   44CGG   SI45 7649  13.618   8.679  13.958  0.4886 -0.4221 -0.0472
   44CGG   SI46 7650  13.541   9.275  14.018 -0.0385 -0.1807  0.1681
   44CGG   SI47 7651  13.610   9.505  13.514 -0.0662 -0.0949  0.2265
   44CGG   SI48 7652  13.670   8.909  13.444 -0.4484  0.4865  0.5698
   44CGG   SI49 7653  13.314   9.105  13.925  0.2985 -0.1365  0.1396
   44CGG   SI50 7654  13.357   8.810  13.899  0.0921 -0.6783 -0.3346
   44CGG   SI51 7655  13.904   9.080  13.541 -0.0873 -0.0355  0.0100
   44CGG   SI52 7656  13.869   9.374  13.572  0.1302  0.0289 -0.0712
   44CGG   SI85 7657  13.718   7.787  13.866 -0.2518  0.0958 -0.3559
   44CGG   SI86 7658  13.653   8.390  13.937  0.0159  0.1651  0.0281
   44CGG   SI87 7659  13.710   8.611  13.413 -0.4209 -0.0335 -0.3122
   44CGG   SI88 7660  13.785   8.017  13.353  0.6331 -0.0171 -0.0637
   44CGG   SI89 7661  13.427   8.211  13.837  0.2136 -0.1396  0.2540
   44CGG   SI90 7662  13.465   7.919  13.803  0.1725  0.5228 -0.2522
   44CGG   SI91 7663  14.012   8.194  13.451 -0.5328  0.2598 -0.3383
   44CGG   SI92 7664  13.969   8.484  13.472  0.5318 -0.3391 -0.6925
   45CGG    AL1 7665  13.095  10.326  13.723 -0.1725 -0.1442 -0.2352
   45CGG    AL2 7666  12.942   9.560  13.555  0.1375  0.0249 -0.8520
   45CGG    AL3 7667  12.914   9.868  13.592 -0.2452 -0.0075  0.6453
   45CGG    AL4 7668  13.133  10.038  13.700  0.0305 -0.1696 -0.0589
   45CGG   AL41 7669  13.211   9.425  13.629 -0.0177 -0.1408 -0.2241
   45CGG   AL42 7670  13.044   8.677  13.466 -0.0966  0.1619 -0.6132
   45CGG   AL43 7671  13.019   8.964  13.502  0.0676  0.2079 -0.1949
   45CGG   AL44 7672  13.240   9.134  13.608 -0.3739 -0.4884  0.0631
   45CGG   AL81 7673  13.311   8.539  13.546  0.1194  0.2455 -0.0860
   45CGG   AL82 7674  13.160   7.782  13.384 -0.3996  0.3027  0.1402
   45CGG   AL83 7675  13.120   8.083  13.415 -0.0775 -0.2233 -0.2618
   45CGG   AL84 7676  13.346   8.250  13.526  0.0757 -0.0735  0.1001
   45CGG    SI5 7677  13.025   9.544  13.866 -0.0308  0.1580 -0.0092
   45CGG    SI6 7678  12.951  10.135  13.937 -0.3173  0.2578 -0.1437
   45CGG    SI7 7679  13.022  10.359  13.411  0.3933  0.4003 -0.2169
   45CGG    SI8 7680  13.082   9.760  13.346 -0.3536  0.0071  0.1113
   45CGG    SI9 7681  12.723   9.960  13.822 -0.0743  0.0256  0.1114
   45CGG   SI10 7682  12.767   9.666  13.790  0.1931 -0.4653 -0.0722
   45CGG   SI11 7683  13.320   9.936  13.457  0.3518 -0.2050 -0.0394
   45CGG   SI12 7684  13.276  10.232  13.477 -0.0136 -0.0647 -0.1347
   45CGG   SI45 7685  13.130   8.642  13.784 -0.6938 -0.0969 -0.3083
   45CGG   SI46 7686  13.060   9.240  13.842 -0.5736 -0.3198  0.0995
   45CGG   SI47 7687  13.135   9.463  13.320 -0.2149  0.1662 -0.4778
   45CGG   SI48 7688  13.202   8.862  13.266 -0.2052  0.6578 -0.4538
   45CGG   SI49 7689  12.830   9.064  13.744  0.3208 -0.1038  0.0566
   45CGG   SI50 7690  12.873   8.770  13.709  0.0049 -0.1463 -0.1390
   45CGG   SI51 7691  13.421   9.041  13.374 -0.3777  0.7920  0.2037
   45CGG   SI52 7692  13.390   9.333  13.395  0.1202 -0.2558 -0.1805
   45CGG   SI85 7693  13.243   7.749  13.696  0.1053 -0.2111 -0.3795
   45CGG   SI86 7694  13.167   8.350  13.769  0.0302  0.1390  0.1160
   45CGG   SI87 7695  13.235   8.567  13.242  0.1255 -0.1788  0.2400
   45CGG   SI88 7696  13.299   7.981  13.173  0.0887  0.4147 -0.0102
   45CGG   SI89 7697  12.935   8.175  13.654 -0.1856  0.0455  0.2266
   45CGG   SI90 7698  12.978   7.883  13.626  0.1217 -0.0874 -0.1625
   45CGG   SI91 7699  13.530   8.152  13.282 -0.0154 -0.1207  0.1004
   45CGG   SI92 7700  13.493   8.444  13.306  0.4647 -0.1747  0.2175
   46CGG    AL1 7701  12.616  10.289  13.543  0.2438 -0.1112 -0.3578
   46CGG    AL2 7702  12.461   9.525  13.382  0.3580  0.1411  0.2423
   46CGG    AL3 7703  12.425   9.826  13.408 -0.0655  0.1533 -0.1100
   46CGG    AL4 7704  12.646   9.997  13.518 -0.0582  0.4829  0.6829
   46CGG   AL41 7705  12.715   9.396  13.450 -0.1927 -0.0271 -0.4335
   46CGG   AL42 7706  12.573   8.624  13.290 -0.0086  0.0480 -0.1087
   46CGG   AL43 7707  12.540   8.930  13.323  0.1365  0.0482  0.5525
   46CGG   AL44 7708  12.755   9.102  13.434 -0.3426  0.1641 -0.0540
   46CGG   AL81 7709  12.831   8.493  13.356 -0.5995 -0.0104  0.0536
   46CGG   AL82 7710  12.673   7.740  13.204 -0.2155 -0.4005 -0.0580
   46CGG   AL83 7711  12.642   8.031  13.230  0.1070 -0.4098 -0.0629
   46CGG   AL84 7712  12.858   8.201  13.336  0.2609 -0.5902 -0.8345
   46CGG    SI5 7713  12.541   9.496  13.693  0.3511 -0.2925 -0.1601
   46CGG    SI6 7714  12.468  10.097  13.754  0.3470 -0.1363  0.3442
   46CGG    SI7 7715  12.536  10.321  13.229  0.1180  0.2766 -0.3980
   46CGG    SI8 7716  12.603   9.715  13.167  0.6233 -0.1396 -0.0201
   46CGG    SI9 7717  12.241   9.921  13.646  0.1102  0.1630 -0.0244
   46CGG   SI10 7718  12.288   9.628  13.620 -0.0401  0.0887 -0.1130
   46CGG   SI11 7719  12.830   9.893  13.276  0.2129 -0.3090 -0.7972
   46CGG   SI12 7720  12.788  10.193  13.309  0.1675  0.1365  0.0435
   46CGG   SI45 7721  12.654   8.593  13.594 -0.2995 -0.2953 -0.7142
   46CGG   SI46 7722  12.571   9.204  13.665  0.1339  0.0707 -0.0126
   46CGG   SI47 7723  12.645   9.423  13.139 -0.0161  0.1697  0.2026
   46CGG   SI48 7724  12.718   8.825  13.075  0.3436  0.0622  0.0042
   46CGG   SI49 7725  12.351   9.022  13.556 -0.1284 -0.0923  0.2628
   46CGG   SI50 7726  12.398   8.727  13.525  0.5577 -0.4161 -0.0666
   46CGG   SI51 7727  12.940   8.997  13.198  0.5183  0.4350  0.1088
   46CGG   SI52 7728  12.899   9.295  13.216 -0.4161  0.2319 -0.0509
   46CGG   SI85 7729  12.755   7.707  13.511  0.3029 -0.1385 -0.0491
   46CGG   SI86 7730  12.687   8.303  13.571  0.4131 -0.2373 -0.1311
   46CGG   SI87 7731  12.754   8.529  13.048 -0.0566 -0.0238  0.3339
   46CGG   SI88 7732  12.819   7.937  12.987 -0.2101  0.2514 -0.1642
   46CGG   SI89 7733  12.456   8.130  13.472  0.1577  0.5014  0.0981
   46CGG   SI90 7734  12.495   7.837  13.444 -0.1046 -0.0111  0.4504
   46CGG   SI91 7735  13.046   8.110  13.104  0.0439 -0.1262  0.0309
   46CGG   SI92 7736  13.009   8.396  13.122 -0.4794  0.3085 -0.1318
   47CGG    AL1 7737  12.127  10.248  13.367  0.2416 -0.4144 -0.3294
   47CGG    AL2 7738  11.977   9.485  13.197 -0.1065 -0.6133  0.0026
   47CGG    AL3 7739  11.936   9.790  13.233 -0.3376  0.4414  0.2908
   47CGG    AL4 7740  12.160   9.954  13.338  0.0862 -0.1574 -0.2379
   47CGG   AL41 7741  12.243   9.352  13.267 -0.7063  0.3046 -0.3417
   47CGG   AL42 7742  12.096   8.597  13.113 -0.0093  0.1846  0.0787
   47CGG   AL43 7743  12.051   8.896  13.136  0.1458  0.2000 -0.4465
   47CGG   AL44 7744  12.284   9.058  13.247  0.3322 -0.0115  0.3632
   47CGG   AL81 7745  12.355   8.456  13.179  0.2335 -0.0202  0.3211
   47CGG   AL82 7746  12.188   7.697  13.022 -0.6936  0.4979 -0.0303
   47CGG   AL83 7747  12.161   7.995  13.048 -0.3752 -0.1455 -0.3585
   47CGG   AL84 7748  12.389   8.166  13.159  0.0855 -0.0831  0.7147
   47CGG    SI5 7749  12.067   9.456  13.504  0.3761  0.1698  0.0909
   47CGG    SI6 7750  11.987  10.054  13.574  0.1463  0.0856  0.2196
   47CGG    SI7 7751  12.055  10.289  13.053 -0.3033  0.2394  0.0548
   47CGG    SI8 7752  12.117   9.685  12.992 -0.3091  0.1665 -0.0023
   47CGG    SI9 7753  11.760   9.883  13.475 -0.2632 -0.0298  0.0448
   47CGG   SI10 7754  11.811   9.595  13.443 -0.0081  0.1727  0.3289
   47CGG   SI11 7755  12.346   9.857  13.101  0.0289 -0.3029  0.0097
   47CGG   SI12 7756  12.308  10.153  13.128 -0.2694 -0.5192 -0.2079
   47CGG   SI45 7757  12.177   8.564  13.426  0.1632  0.2780  0.0445
   47CGG   SI46 7758  12.097   9.156  13.485  0.2746  0.1525 -0.2305
   47CGG   SI47 7759  12.167   9.393  12.959  0.3776 -0.4187  0.1367
   47CGG   SI48 7760  12.235   8.793  12.900  0.3718  0.2387  0.0326
   47CGG   SI49 7761  11.865   8.988  13.373 -0.1542 -0.1166 -0.0625
   47CGG   SI50 7762  11.913   8.691  13.351  0.0136 -0.1754 -0.0669
   47CGG   SI51 7763  12.465   8.961  13.008 -0.0723 -0.1247 -0.1573
   47CGG   SI52 7764  12.428   9.252  13.029 -0.1799 -0.1775  0.1397
   47CGG   SI85 7765  12.274   7.670  13.333 -0.1107  0.0815  0.0009
   47CGG   SI86 7766  12.208   8.275  13.394  0.1884  0.3155  0.0058
   47CGG   SI87 7767  12.280   8.499  12.866  0.3641  0.1083 -0.9172
   47CGG   SI88 7768  12.340   7.890  12.816  0.1991  0.2412  0.0141
   47CGG   SI89 7769  11.978   8.090  13.283 -0.1053  0.2831 -0.0997
   47CGG   SI90 7770  12.017   7.800  13.263 -0.1258 -0.2249 -0.0489
   47CGG   SI91 7771  12.569   8.067  12.921 -0.0340  0.0498  0.2675
   47CGG   SI92 7772  12.534   8.360  12.939 -0.1448 -0.2502 -0.0886
   48CGG    AL1 7773  11.643  10.203  13.189 -0.3363  0.5490  0.0142
   48CGG    AL2 7774  11.499   9.448  13.016 -0.0216 -0.2210 -0.0920
   48CGG    AL3 7775  11.454   9.745  13.049 -0.3273 -0.5253  0.3457
   48CGG    AL4 7776  11.677   9.916  13.157  0.0335  0.1575 -0.1488
   48CGG   AL41 7777  11.756   9.311  13.082  0.0913  0.4483 -0.3142
   48CGG   AL42 7778  11.593   8.554  12.930 -0.3655 -0.4605 -0.1310
   48CGG   AL43 7779  11.573   8.852  12.958  0.4768 -0.0406 -0.0089
   48CGG   AL44 7780  11.797   9.023  13.060  0.4508  0.1442 -0.1222
   48CGG   AL81 7781  11.873   8.421  13.000  0.3358 -0.1676  0.0185
   48CGG   AL82 7782  11.708   7.668  12.841 -0.1389 -0.2588 -0.2008
   48CGG   AL83 7783  11.670   7.953  12.874 -0.2116 -0.0598  0.1273
   48CGG   AL84 7784  11.904   8.119  12.969  0.4816  0.0955  0.1797
   48CGG    SI5 7785  11.581   9.419  13.327 -0.5844  0.2069 -0.3970
   48CGG    SI6 7786  11.498  10.012  13.400  0.2384 -0.4281 -0.5434
   48CGG    SI7 7787  11.562  10.240  12.879  0.3760  0.0573  0.4572
   48CGG    SI8 7788  11.642   9.641  12.811  0.3170  0.0058  0.0229
   48CGG    SI9 7789  11.276   9.831  13.291 -0.1527  0.1585  0.3638
   48CGG   SI10 7790  11.331   9.541  13.266  0.1476  0.0807 -0.1076
   48CGG   SI11 7791  11.860   9.821  12.927 -0.2755 -0.4816  0.2355
   48CGG   SI12 7792  11.819  10.112  12.949 -0.3692  0.1244  0.2297
   48CGG   SI45 7793  11.684   8.518  13.239  0.1689 -0.0559 -0.0592
   48CGG   SI46 7794  11.612   9.125  13.296  0.3306  0.1851  0.4158
   48CGG   SI47 7795  11.677   9.348  12.773 -0.1238  0.4149  0.9210
   48CGG   SI48 7796  11.745   8.745  12.723  0.0288 -0.1500 -0.0452
   48CGG   SI49 7797  11.385   8.950  13.188  0.2513  0.1274 -0.4002
   48CGG   SI50 7798  11.423   8.659  13.162  0.0808 -0.0140  0.5310
   48CGG   SI51 7799  11.979   8.918  12.818 -0.0460 -0.3572 -0.3298
   48CGG   SI52 7800  11.935   9.215  12.846  0.1154  0.2950  0.3179
   48CGG   SI85 7801  11.798   7.632  13.150 -0.0409  0.0285 -0.0716
   48CGG   SI86 7802  11.725   8.224  13.209 -0.5229 -0.0396  0.3708
   48CGG   SI87 7803  11.786   8.455  12.696 -0.1664 -0.2048 -0.1182
   48CGG   SI88 7804  11.858   7.859  12.629  0.1395  0.0041  0.5726
   48CGG   SI89 7805  11.496   8.049  13.109  0.7580  0.0283 -0.0291
   48CGG   SI90 7806  11.537   7.759  13.091  0.1577 -0.1278 -0.2022
   48CGG   SI91 7807  12.091   8.029  12.736  0.0535 -0.1719 -0.3011
   48CGG   SI92 7808  12.051   8.327  12.766 -0.5167  0.2534  0.2157
   49CGG    AL1 7809  11.161  10.163  13.013 -0.4423 -0.5985  0.0379
   49CGG    AL2 7810  11.011   9.400  12.852  0.2701 -0.0487 -0.2238
   49CGG    AL3 7811  10.977   9.703  12.884  0.3780 -0.1581  0.2540
   49CGG    AL4 7812  11.199   9.869  12.981  0.1459 -0.0333  0.3930
   49CGG   AL41 7813  11.277   9.270  12.913  0.0366  0.2106 -0.3271
   49CGG   AL42 7814  11.119   8.512  12.756  0.0292 -0.0074 -0.1394
   49CGG   AL43 7815  11.076   8.813  12.787 -0.0228  0.1129 -0.4061
   49CGG   AL44 7816  11.302   8.983  12.879 -0.3806 -0.1958 -0.0135
   49CGG   AL81 7817  11.378   8.382  12.819  0.3456  0.0058  0.1748
   49CGG   AL82 7818  11.233   7.621  12.669  0.0647 -0.0945  0.3300
   49CGG   AL83 7819  11.194   7.916  12.698 -0.2952  0.2165  0.1024
   49CGG   AL84 7820  11.420   8.083  12.799  0.0958 -0.2054 -0.2604
   49CGG    SI5 7821  11.106   9.369  13.158  0.5899 -0.3700 -0.3586
   49CGG    SI6 7822  11.016   9.967  13.222  0.3477 -0.0129 -0.2140
   49CGG    SI7 7823  11.082  10.206  12.703  0.2408  0.2309  0.0156
   49CGG    SI8 7824  11.148   9.604  12.641  0.1948 -0.2745  0.0266
   49CGG    SI9 7825  10.787   9.792  13.119  0.2928  0.0675 -0.3183
   49CGG   SI10 7826  10.841   9.500  13.102  0.0453  0.0161  0.0803
   49CGG   SI11 7827  11.380   9.772  12.737 -0.1674 -0.2147 -0.4196
   49CGG   SI12 7828  11.339  10.067  12.774  0.4295 -0.4360  0.2356
   49CGG   SI45 7829  11.205   8.488  13.065  0.1787  0.2501 -0.2721
   49CGG   SI46 7830  11.126   9.084  13.126 -0.0153  0.7352 -0.0279
   49CGG   SI47 7831  11.196   9.312  12.607  0.1531 -0.1638 -0.1608
   49CGG   SI48 7832  11.252   8.707  12.544  0.1825 -0.2605  0.3806
   49CGG   SI49 7833  10.898   8.908  13.028 -0.0164  0.3400 -0.6606
   49CGG   SI50 7834  10.950   8.617  13.006  0.2266  0.0360  0.0348
   49CGG   SI51 7835  11.488   8.884  12.646 -0.3411  0.3359  0.1087
   49CGG   SI52 7836  11.447   9.177  12.671 -0.3527 -0.0402  0.0565
   49CGG   SI85 7837  11.321   7.592  12.981 -0.0486 -0.1619  0.0207
   49CGG   SI86 7838  11.246   8.187  13.034 -0.1387 -0.2891  0.3846
   49CGG   SI87 7839  11.298   8.407  12.514  0.3407 -0.1502  0.4305
   49CGG   SI88 7840  11.371   7.818  12.452  0.0767 -0.4892  0.1135
   49CGG   SI89 7841  11.012   8.021  12.938 -0.2364  0.0231  0.5354
   49CGG   SI90 7842  11.060   7.725  12.912  0.3147  0.0002 -0.6159
   49CGG   SI91 7843  11.601   7.993  12.562  0.3483  0.0766 -0.0056
   49CGG   SI92 7844  11.569   8.278  12.597  0.1001 -0.5690  0.1142
   50CGG    AL1 7845  10.681  10.130  12.840  0.1813  0.2758  0.1159
   50CGG    AL2 7846  10.528   9.361  12.690  0.2309  0.0995  0.1990
   50CGG    AL3 7847  10.485   9.654  12.712  0.2239  0.2984 -0.5752
   50CGG    AL4 7848  10.708   9.824  12.807  0.0735 -0.1692  0.0884
   50CGG   AL41 7849  10.789   9.229  12.746  0.2849  0.2860 -0.0540
   50CGG   AL42 7850  10.629   8.477  12.590 -0.1644 -0.1662 -0.0519
   50CGG   AL43 7851  10.598   8.776  12.620 -0.0698 -0.3348 -0.2120
   50CGG   AL44 7852  10.823   8.946  12.719 -0.4358  0.4550  0.2915
   50CGG   AL81 7853  10.890   8.343  12.651 -0.3567 -0.1557  0.2897
   50CGG   AL82 7854  10.737   7.580  12.507  0.1065 -0.3692 -0.1127
   50CGG   AL83 7855  10.699   7.873  12.536  0.3819  0.3263  0.2078
   50CGG   AL84 7856  10.928   8.048  12.631 -0.1284  0.1941  0.2424
   50CGG    SI5 7857  10.612   9.331  12.995  0.2859  0.0623 -0.6226
   50CGG    SI6 7858  10.539   9.931  13.052  0.0766  0.1189 -0.1967
   50CGG    SI7 7859  10.595  10.165  12.533  0.2634 -0.0029  0.4976
   50CGG    SI8 7860  10.663   9.557  12.477  0.4059 -0.1791 -0.0807
   50CGG    SI9 7861  10.311   9.762  12.959 -0.1953  0.3247 -0.1041
   50CGG   SI10 7862  10.346   9.462  12.930  0.4100 -0.0649 -0.2255
   50CGG   SI11 7863  10.896   9.734  12.573  0.6798  0.6198  0.3438
   50CGG   SI12 7864  10.850  10.027  12.596 -0.2348 -0.2236  0.0057
   50CGG   SI45 7865  10.717   8.446  12.897 -0.5349 -0.0583 -0.2360
   50CGG   SI46 7866  10.651   9.039  12.964  0.0993 -0.0133 -0.1747
   50CGG   SI47 7867  10.699   9.266  12.440 -0.6608  0.1925 -0.5072
   50CGG   SI48 7868  10.768   8.677  12.373  0.0788  0.2665  0.0741
   50CGG   SI49 7869  10.419   8.874  12.860 -0.5320  0.4698 -0.2514
   50CGG   SI50 7870  10.463   8.576  12.836  0.5679 -0.0636  0.0225
   50CGG   SI51 7871  10.994   8.842  12.476  0.0757 -0.1772 -0.3450
   50CGG   SI52 7872  10.959   9.134  12.500  0.1413 -0.3941 -0.0596
   50CGG   SI85 7873  10.829   7.545  12.809  0.1469 -0.3477  0.1997
   50CGG   SI86 7874  10.752   8.147  12.873 -0.1902 -0.0972 -0.1467
   50CGG   SI87 7875  10.807   8.377  12.346 -0.2348 -0.3138 -0.2378
   50CGG   SI88 7876  10.878   7.778  12.288  0.1469  0.1378 -0.4452
   50CGG   SI89 7877  10.527   7.969  12.778  0.1338 -0.0707 -0.1413
   50CGG   SI90 7878  10.565   7.676  12.760 -0.1448  0.0584  0.1844
   50CGG   SI91 7879  11.112   7.951  12.389 -0.2684 -0.1025  0.0555
   50CGG   SI92 7880  11.060   8.236  12.413 -0.2325 -0.0857  0.4603
   51CGG    AL1 7881  10.198  10.080  12.684 -0.0816 -0.3224 -0.0865
   51CGG    AL2 7882  10.030   9.311  12.527 -0.1378  0.2125 -0.3306
   51CGG    AL3 7883  10.001   9.615  12.558  0.2522 -0.6374 -0.3533
   51CGG    AL4 7884  10.223   9.800  12.655 -0.4367  0.0112  0.2388
   51CGG   AL41 7885  10.292   9.194  12.590  0.3676  0.3815  0.0631
   51CGG   AL42 7886  10.144   8.432  12.432 -0.1128  0.3824 -0.1018
   51CGG   AL43 7887  10.107   8.727  12.458 -0.2190 -0.3466  0.2008
   51CGG   AL44 7888  10.334   8.895  12.552  0.2741  0.2322 -0.1007
   51CGG   AL81 7889  10.406   8.300  12.498  0.0585  0.0212  0.0897
   51CGG   AL82 7890  10.246   7.535  12.345  0.2255 -0.1743 -0.3675
   51CGG   AL83 7891  10.220   7.831  12.375  0.5617 -0.1710  0.0628
   51CGG   AL84 7892  10.432   8.013  12.470  0.4848 -0.4136  0.0658
   51CGG    SI5 7893  10.124   9.291  12.838  0.0514  0.1162  0.2347
   51CGG    SI6 7894  10.056   9.891  12.904  0.3584  0.0761 -0.1125
   51CGG    SI7 7895  10.110  10.118  12.377 -0.2415 -0.2089 -0.2456
   51CGG    SI8 7896  10.168   9.508  12.314  0.0388 -0.1595  0.2470
   51CGG    SI9 7897   9.827   9.715  12.802 -0.1147  0.1338 -0.2776
   51CGG   SI10 7898   9.865   9.423  12.772 -0.4174 -0.2882  0.3841
   51CGG   SI11 7899  10.397   9.689  12.408  0.2877 -0.0447 -0.3136
   51CGG   SI12 7900  10.366   9.991  12.437  0.0327  0.1499  0.3457
   51CGG   SI45 7901  10.235   8.407  12.743 -0.0673  0.2598 -0.3361
   51CGG   SI46 7902  10.163   9.000  12.804 -0.4571  0.2779 -0.0685
   51CGG   SI47 7903  10.211   9.214  12.291  0.2331 -0.0060  0.3240
   51CGG   SI48 7904  10.276   8.621  12.212 -0.2250 -0.3428 -0.2115
   51CGG   SI49 7905   9.936   8.825  12.707  0.2497  0.1988  0.0337
   51CGG   SI50 7906   9.976   8.532  12.679  0.6201 -0.5779 -0.1803
   51CGG   SI51 7907  10.508   8.811  12.309 -0.2427  0.3814 -0.1636
   51CGG   SI52 7908  10.473   9.101  12.347  0.0261  0.0172  0.3508
   51CGG   SI85 7909  10.344   7.513  12.649 -0.1620  0.1768 -0.1509
   51CGG   SI86 7910  10.266   8.113  12.714 -0.1111 -0.2219  0.3834
   51CGG   SI87 7911  10.319   8.328  12.190 -0.0779  0.3171 -0.2221
   51CGG   SI88 7912  10.384   7.730  12.133  0.1732 -0.2209  0.1129
   51CGG   SI89 7913  10.039   7.935  12.612  0.0338 -0.4213 -0.0944
   51CGG   SI90 7914  10.083   7.642  12.594 -0.3434  0.0572 -0.2896
   51CGG   SI91 7915  10.613   7.909  12.224 -0.1432  0.2863 -0.1972
   51CGG   SI92 7916  10.579   8.196  12.250 -0.4686  0.3056 -0.0317
   52CGG    AL1 7917   9.710  10.037  12.520  0.0427 -0.0233  0.1825
   52CGG    AL2 7918   9.548   9.278  12.371 -0.0910 -0.3998 -0.0297
   52CGG    AL3 7919   9.516   9.580  12.397  0.0455  0.2543  0.5058
   52CGG    AL4 7920   9.740   9.754  12.486  0.4419  0.1099 -0.4910
   52CGG   AL41 7921   9.812   9.140  12.424 -0.2094 -0.0650 -0.0628
   52CGG   AL42 7922   9.652   8.381  12.281  0.1987  0.2459 -0.2924
   52CGG   AL43 7923   9.612   8.679  12.302 -0.1293 -0.0032  0.0615
   52CGG   AL44 7924   9.843   8.854  12.405  0.0900  0.1077  0.6702
   52CGG   AL81 7925   9.920   8.250  12.337  0.3354  0.1713 -0.6138
   52CGG   AL82 7926   9.757   7.489  12.188  0.1535 -0.3691 -0.0161
   52CGG   AL83 7927   9.726   7.785  12.215 -0.1506  0.1265 -0.2321
   52CGG   AL84 7928   9.947   7.957  12.302 -0.4832 -0.0934 -0.1248
   52CGG    SI5 7929   9.639   9.246  12.668  0.0748 -0.2574  0.1620
   52CGG    SI6 7930   9.567   9.850  12.735  0.1081 -0.0177  0.2272
   52CGG    SI7 7931   9.617  10.074  12.211  0.1097 -0.1756 -0.1258
   52CGG    SI8 7932   9.681   9.474  12.146 -0.1340  0.4322 -0.5163
   52CGG    SI9 7933   9.340   9.674  12.634  0.0848 -0.2512 -0.0719
   52CGG   SI10 7934   9.374   9.379  12.603 -0.1506  0.1855  0.1851
   52CGG   SI11 7935   9.915   9.645  12.250  0.0251 -0.0421 -0.0914
   52CGG   SI12 7936   9.878   9.942  12.272  0.0999  0.2352 -0.1547
   52CGG   SI45 7937   9.748   8.355  12.586 -0.5055  0.1540 -0.4309
   52CGG   SI46 7938   9.675   8.954  12.645 -0.1763  0.0969  0.3255
   52CGG   SI47 7939   9.722   9.182  12.123  0.5376  0.0316 -0.1925
   52CGG   SI48 7940   9.785   8.576  12.061  0.2894 -0.1374  0.2996
   52CGG   SI49 7941   9.444   8.779  12.553 -0.2254  0.3539  0.2943
   52CGG   SI50 7942   9.481   8.486  12.521  0.1848 -0.0513  0.1129
   52CGG   SI51 7943  10.015   8.757  12.151  0.0080  0.2947  0.0075
   52CGG   SI52 7944   9.982   9.047  12.183  0.2370 -0.1628  0.7285
   52CGG   SI85 7945   9.856   7.462  12.494  0.2143 -0.3920  0.3337
   52CGG   SI86 7946   9.783   8.066  12.555  0.1098  0.3542 -0.2779
   52CGG   SI87 7947   9.820   8.280  12.037 -0.1953  0.0814 -0.0888
   52CGG   SI88 7948   9.896   7.684  11.971 -0.0370  0.0702 -0.7013
   52CGG   SI89 7949   9.555   7.892  12.456  0.0727 -0.3070  0.2122
   52CGG   SI90 7950   9.589   7.597  12.435 -0.1780 -0.2201 -0.3218
   52CGG   SI91 7951  10.128   7.855  12.059 -0.1353 -0.1910 -0.2487
   52CGG   SI92 7952  10.089   8.152  12.088  0.4304 -0.0485  0.2964
   53CGG    AL1 7953   9.219  10.001  12.359 -0.4054  0.1295  0.3288
   53CGG    AL2 7954   9.061   9.232  12.202  0.2691 -0.3188 -0.5879
   53CGG    AL3 7955   9.020   9.536  12.231  0.4002  0.4200 -0.2042
   53CGG    AL4 7956   9.253   9.708  12.324 -0.0670  0.0442 -0.4058
   53CGG   AL41 7957   9.324   9.110  12.267 -0.5786 -0.3998  0.2144
   53CGG   AL42 7958   9.153   8.341  12.113  0.1861  0.2645 -0.1651
   53CGG   AL43 7959   9.133   8.648  12.145 -0.0396 -0.2233 -0.2722
   53CGG   AL44 7960   9.358   8.817  12.245  0.0783 -0.6653  0.5673
   53CGG   AL81 7961   9.424   8.201  12.177  0.1866 -0.5774 -0.6244
   53CGG   AL82 7962   9.270   7.440  12.030 -0.3402 -0.6053 -0.1450
   53CGG   AL83 7963   9.236   7.742  12.052  0.5683 -0.2845 -0.3055
   53CGG   AL84 7964   9.458   7.920  12.150  0.0664  0.0675 -0.1011
   53CGG    SI5 7965   9.153   9.209  12.511 -0.4060  0.3216  0.1774
   53CGG    SI6 7966   9.081   9.807  12.577  0.0611 -0.1703  0.5848
   53CGG    SI7 7967   9.131  10.040  12.055 -0.4667 -0.1296 -0.0527
   53CGG    SI8 7968   9.194   9.431  11.993 -0.1825 -0.2953 -0.0335
   53CGG    SI9 7969   8.850   9.629  12.476 -0.4143 -0.2098  0.0363
   53CGG   SI10 7970   8.887   9.337  12.450  0.2186 -0.3903 -0.1891
   53CGG   SI11 7971   9.432   9.614  12.080 -0.2544  0.0096 -0.1546
   53CGG   SI12 7972   9.391   9.903  12.115 -0.0172 -0.3311 -0.0511
   53CGG   SI45 7973   9.259   8.316  12.422 -0.5606  0.0063  0.2089
   53CGG   SI46 7974   9.189   8.910  12.487  0.0036 -0.1585 -0.2439
   53CGG   SI47 7975   9.236   9.137  11.960 -0.1644 -0.2924  0.0283
   53CGG   SI48 7976   9.298   8.533  11.902 -0.3696  0.0068 -0.2645
   53CGG   SI49 7977   8.958   8.739  12.385 -0.0948  0.5793 -0.4447
   53CGG   SI50 7978   8.998   8.449  12.360 -0.0097  0.2212  0.0761
   53CGG   SI51 7979   9.530   8.718  12.000  0.2175 -0.2159  0.4994
   53CGG   SI52 7980   9.497   9.011  12.025 -0.6331  0.1452 -0.4793
   53CGG   SI85 7981   9.363   7.424  12.338 -0.1166 -0.0740 -0.0889
   53CGG   SI86 7982   9.290   8.024  12.403 -0.3540  0.1800 -0.2139
   53CGG   SI87 7983   9.336   8.237  11.873  0.4439  0.1498  0.2474
   53CGG   SI88 7984   9.406   7.639  11.813  0.1775 -0.0612  0.6590
   53CGG   SI89 7985   9.051   7.844  12.291 -0.3305 -0.3443 -0.3301
   53CGG   SI90 7986   9.108   7.555  12.283 -0.1056  0.0792  0.4298
   53CGG   SI91 7987   9.639   7.819  11.905 -0.1211 -0.1038  0.0554
   53CGG   SI92 7988   9.599   8.108  11.937  0.5667  0.2568  0.2339
   54CGG    AL1 7989   8.743   9.950  12.207 -0.1643 -0.2612 -0.1708
   54CGG    AL2 7990   8.580   9.194  12.040  0.1948 -0.0264  0.3072
   54CGG    AL3 7991   8.534   9.491  12.069  0.0077 -0.1182  0.0575
   54CGG    AL4 7992   8.761   9.666  12.170 -0.4841  0.0801 -0.1217
   54CGG   AL41 7993   8.827   9.057  12.106  0.1064 -0.0073  0.2188
   54CGG   AL42 7994   8.668   8.307  11.944  0.7197  0.1209  0.4001
   54CGG   AL43 7995   8.637   8.602  11.982  0.0770 -0.3332  0.3224
   54CGG   AL44 7996   8.865   8.768  12.077 -0.1648  0.1232  0.4790
   54CGG   AL81 7997   8.932   8.173  11.998 -0.1086  0.3230 -0.0706
   54CGG   AL82 7998   8.767   7.412  11.871 -0.1498  0.2073 -0.2658
   54CGG   AL83 7999   8.743   7.696  11.893 -0.5942 -0.0395  0.3025
   54CGG   AL84 8000   8.970   7.876  11.971  0.0666 -0.6537 -0.8172
   54CGG    SI5 8001   8.665   9.161  12.357  0.6397 -0.2627  0.2747
   54CGG    SI6 8002   8.596   9.758  12.426 -0.3103 -0.1000  0.0736
   54CGG    SI7 8003   8.644   9.993  11.898 -0.1726  0.0644 -0.1357
   54CGG    SI8 8004   8.708   9.394  11.824 -0.4227 -0.1688 -0.3691
   54CGG    SI9 8005   8.367   9.587  12.313  0.6206  0.3723 -0.2704
   54CGG   SI10 8006   8.410   9.297  12.291 -0.0242  0.0462  0.3164
   54CGG   SI11 8007   8.936   9.569  11.927 -0.6635 -0.2285  0.0244
   54CGG   SI12 8008   8.900   9.860  11.954 -0.1668  0.0291 -0.0165
   54CGG   SI45 8009   8.768   8.281  12.244  0.1815  0.5991 -0.1215
   54CGG   SI46 8010   8.698   8.870  12.324 -0.3506  0.3560  0.0114
   54CGG   SI47 8011   8.748   9.091  11.794  0.1357 -0.1982 -0.0317
   54CGG   SI48 8012   8.808   8.501  11.730  0.0229 -0.2704 -0.3250
   54CGG   SI49 8013   8.468   8.692  12.229  0.0205 -0.2295 -0.0584
   54CGG   SI50 8014   8.504   8.405  12.195  0.0290  0.0558 -0.2987
   54CGG   SI51 8015   9.043   8.668  11.839 -0.0577 -0.1600  0.2003
   54CGG   SI52 8016   9.008   8.962  11.860  0.9958 -0.0811 -0.4030
   54CGG   SI85 8017   8.876   7.377  12.176 -0.0528 -0.0565 -0.0772
   54CGG   SI86 8018   8.804   7.985  12.232 -0.0819 -0.3093  0.0763
   54CGG   SI87 8019   8.833   8.201  11.694 -0.2606 -0.4247 -0.1685
   54CGG   SI88 8020   8.909   7.593  11.647  0.1860 -0.1697  0.1460
   54CGG   SI89 8021   8.571   7.800  12.144  0.0467 -0.1414  0.3136
   54CGG   SI90 8022   8.614   7.513  12.126 -0.4256  0.1749  0.1447
   54CGG   SI91 8023   9.150   7.776  11.740  0.2895  0.1151  0.2440
   54CGG   SI92 8024   9.097   8.067  11.757 -0.3032  0.0595 -0.1908
   55CGG    AL1 8025   8.252   9.910  12.041  0.0637 -0.0357 -0.2199
   55CGG    AL2 8026   8.078   9.152  11.896  0.3673  0.2778  0.3627
   55CGG    AL3 8027   8.049   9.444  11.913 -0.1263 -0.2970 -0.1047
   55CGG    AL4 8028   8.280   9.614  12.008 -0.2641  0.3745 -0.6125
   55CGG   AL41 8029   8.356   9.022  11.951  0.2224  0.1102 -0.4221
   55CGG   AL42 8030   8.173   8.257  11.795 -0.0832  0.1904  0.2583
   55CGG   AL43 8031   8.150   8.557  11.823 -0.5069  0.2690 -0.1377
   55CGG   AL44 8032   8.378   8.727  11.919  0.2928 -0.3077  0.0846
   55CGG   AL81 8033   8.442   8.120  11.854  0.0282  0.2710 -0.3383
   55CGG   AL82 8034   8.289   7.360  11.722  0.0647 -0.3741  0.0042
   55CGG   AL83 8035   8.250   7.658  11.746 -0.3071 -0.1211  0.3487
   55CGG   AL84 8036   8.487   7.835  11.835 -0.1984  0.0893 -0.0434
   55CGG    SI5 8037   8.183   9.129  12.194 -0.3540 -0.3266 -0.0411
   55CGG    SI6 8038   8.112   9.713  12.259 -0.1020 -0.2142  0.3323
   55CGG    SI7 8039   8.158   9.942  11.737  0.2247 -0.3487 -0.5289
   55CGG    SI8 8040   8.212   9.336  11.676  0.5246  0.1773 -0.1895
   55CGG    SI9 8041   7.881   9.548  12.165 -0.2807  0.2332  0.6633
   55CGG   SI10 8042   7.915   9.254  12.147 -0.0439 -0.2522  0.2524
   55CGG   SI11 8043   8.450   9.517  11.762  0.2829 -0.1188 -0.0398
   55CGG   SI12 8044   8.423   9.812  11.794  0.0440 -0.2431  0.0659
   55CGG   SI45 8045   8.277   8.236  12.102 -0.2112  0.2019  0.0943
   55CGG   SI46 8046   8.215   8.831  12.171 -0.2665  0.5763 -0.5969
   55CGG   SI47 8047   8.254   9.051  11.642 -0.3354 -0.4096 -0.0922
   55CGG   SI48 8048   8.316   8.448  11.578  0.2325 -0.2218 -0.0507
   55CGG   SI49 8049   7.979   8.653  12.080 -0.3740 -0.1250  0.3954
   55CGG   SI50 8050   8.021   8.367  12.047 -0.3284  0.1489 -0.4288
   55CGG   SI51 8051   8.552   8.628  11.676  0.2881 -0.0647  0.1620
   55CGG   SI52 8052   8.520   8.921  11.698  0.2833  0.0909 -0.3237
   55CGG   SI85 8053   8.393   7.338  12.031 -0.1352 -0.1076  0.2637
   55CGG   SI86 8054   8.314   7.937  12.078  0.1294  0.4087 -0.4430
   55CGG   SI87 8055   8.352   8.158  11.550 -0.1930 -0.0612  0.0152
   55CGG   SI88 8056   8.417   7.554  11.499  0.3925  0.0641 -0.3908
   55CGG   SI89 8057   8.078   7.753  11.999  0.0862  0.2894  0.7748
   55CGG   SI90 8058   8.120   7.460  11.966 -0.0881 -0.1357 -0.1265
   55CGG   SI91 8059   8.650   7.734  11.587  0.0238 -0.2363  0.0505
   55CGG   SI92 8060   8.611   8.025  11.616 -0.2004 -0.3406  0.0703
   56CGG    AL1 8061   7.753   9.871  11.888 -0.1936 -0.0542  0.2859
   56CGG    AL2 8062   7.589   9.108  11.738 -0.0852  0.1136  0.1821
   56CGG    AL3 8063   7.559   9.409  11.767  0.3465  0.3662 -0.2738
   56CGG    AL4 8064   7.789   9.574  11.857 -0.2688 -0.1755 -0.2593
   56CGG   AL41 8065   7.856   8.974  11.800 -0.2322  0.1910  0.3797
   56CGG   AL42 8066   7.685   8.216  11.653 -0.1709 -0.3897  0.0224
   56CGG   AL43 8067   7.654   8.517  11.681  0.2006  0.0268  0.5030
   56CGG   AL44 8068   7.895   8.678  11.768  0.2959  0.1613 -0.1459
   56CGG   AL81 8069   7.958   8.075  11.706  0.0707 -0.4063 -0.0812
   56CGG   AL82 8070   7.788   7.326  11.563 -0.2552  0.1692 -0.0617
   56CGG   AL83 8071   7.759   7.621  11.598  0.0618 -0.2127 -0.1130
   56CGG   AL84 8072   7.991   7.785  11.680 -0.1608  0.0250 -0.9421
   56CGG    SI5 8073   7.692   9.076  12.048 -0.4273  0.3042 -0.2127
   56CGG    SI6 8074   7.624   9.677  12.107  0.3572 -0.0014  0.3497
   56CGG    SI7 8075   7.656   9.903  11.585 -0.5099  0.1212  0.4415
   56CGG    SI8 8076   7.722   9.300  11.522  0.5491  0.2844  0.2717
   56CGG    SI9 8077   7.393   9.502  12.016  0.3698  0.4458  0.2032
   56CGG   SI10 8078   7.435   9.206  11.989  0.0883 -0.1190  0.4321
   56CGG   SI11 8079   7.959   9.477  11.613 -0.3037 -0.2527  0.3193
   56CGG   SI12 8080   7.924   9.776  11.637  0.2741  0.6178 -0.0131
   56CGG   SI45 8081   7.785   8.186  11.958 -0.3300 -0.2342 -0.0971
   56CGG   SI46 8082   7.730   8.778  12.021  0.6807 -0.4281 -0.2393
   56CGG   SI47 8083   7.759   9.005  11.496 -0.1268 -0.1682  0.1355
   56CGG   SI48 8084   7.830   8.411  11.434 -0.1425  0.0738  0.2235
   56CGG   SI49 8085   7.487   8.612  11.927 -0.0226  0.1000  0.2616
   56CGG   SI50 8086   7.524   8.322  11.902  0.1899  0.0403  0.0765
   56CGG   SI51 8087   8.066   8.577  11.520  0.3522 -0.6157 -0.1412
   56CGG   SI52 8088   8.021   8.877  11.546  0.4668 -0.0875 -0.2437
   56CGG   SI85 8089   7.892   7.281  11.869 -0.4494  0.1869  0.0699
   56CGG   SI86 8090   7.828   7.892  11.930 -0.4460  0.2011  0.3773
   56CGG   SI87 8091   7.860   8.121  11.404  0.2603 -0.0362 -0.7935
   56CGG   SI88 8092   7.922   7.513  11.338 -0.2653 -0.0551 -0.1135
   56CGG   SI89 8093   7.589   7.719  11.842 -0.0887  0.0193 -0.1731
   56CGG   SI90 8094   7.631   7.422  11.819  0.1379 -0.1709  0.0549
   56CGG   SI91 8095   8.156   7.681  11.434  0.1503 -0.3882 -0.4375
   56CGG   SI92 8096   8.125   7.979  11.463  0.4593  0.4934 -0.0405
   57CGG    AL1 8097   7.275   9.827  11.743 -0.0587  0.0251  0.0574
   57CGG    AL2 8098   7.105   9.053  11.598  0.2931 -0.5335  0.1317
   57CGG    AL3 8099   7.072   9.359  11.619 -0.3782  0.6012 -0.2549
   57CGG    AL4 8100   7.295   9.538  11.709 -0.3081  0.0165  0.0086
   57CGG   AL41 8101   7.366   8.937  11.644 -0.1899  0.2857  0.3401
   57CGG   AL42 8102   7.194   8.164  11.511 -0.3945  0.1417 -0.4188
   57CGG   AL43 8103   7.165   8.457  11.539  0.1858 -0.2410  0.2036
   57CGG   AL44 8104   7.398   8.638  11.622  0.3038  0.1911  0.0983
   57CGG   AL81 8105   7.460   8.044  11.559 -0.2426  0.4208 -0.0395
   57CGG   AL82 8106   7.307   7.276  11.427  0.3926  0.2099 -0.0223
   57CGG   AL83 8107   7.267   7.574  11.457 -0.0596 -0.1624  0.2958
   57CGG   AL84 8108   7.495   7.754  11.535  0.0738 -0.1350  0.1703
   57CGG    SI5 8109   7.202   9.037  11.893  0.2157  0.0712 -0.3501
   57CGG    SI6 8110   7.134   9.641  11.965 -0.2365 -0.0749 -0.0011
   57CGG    SI7 8111   7.169   9.857  11.439 -0.2483  0.0086 -0.0749
   57CGG    SI8 8112   7.229   9.249  11.370  0.2343 -0.4999  0.2730
   57CGG    SI9 8113   6.911   9.459  11.868 -0.1236 -0.2056 -0.2416
   57CGG   SI10 8114   6.942   9.170  11.840  0.1365  0.1703 -0.2757
   57CGG   SI11 8115   7.465   9.430  11.460  0.5360 -0.2159 -0.3948
   57CGG   SI12 8116   7.432   9.724  11.494  0.5000  0.1735  0.0221
   57CGG   SI45 8117   7.295   8.146  11.813  0.4806 -0.2070 -0.5542
   57CGG   SI46 8118   7.232   8.745  11.864 -0.0097  0.0449 -0.2046
   57CGG   SI47 8119   7.272   8.954  11.344  0.7769 -0.0541  0.0342
   57CGG   SI48 8120   7.326   8.363  11.287  0.0056  0.3343 -0.3457
   57CGG   SI49 8121   6.998   8.563  11.780  0.0797 -0.1832  0.1543
   57CGG   SI50 8122   7.037   8.273  11.757  0.0973 -0.3526 -0.1130
   57CGG   SI51 8123   7.562   8.539  11.367 -0.6172 -0.1776 -0.0939
   57CGG   SI52 8124   7.530   8.831  11.397 -0.1207 -0.2801 -0.2572
   57CGG   SI85 8125   7.403   7.246  11.730  0.1121  0.3095 -0.2905
   57CGG   SI86 8126   7.328   7.853  11.791  0.1172 -0.2537 -0.1941
   57CGG   SI87 8127   7.367   8.070  11.259  0.0778  0.0468 -0.1713
   57CGG   SI88 8128   7.432   7.471  11.200  0.6242 -0.2143 -0.0726
   57CGG   SI89 8129   7.093   7.672  11.709  0.0896 -0.0303  0.1014
   57CGG   SI90 8130   7.143   7.378  11.675 -0.1186  0.0829 -0.1532
   57CGG   SI91 8131   7.664   7.654  11.286  0.1039  0.0314  0.1138
   57CGG   SI92 8132   7.635   7.947  11.314 -0.1102  0.1891 -0.3749
   58CGG    AL1 8133   6.773   9.780  11.593 -0.1735  0.0112  0.0049
   58CGG    AL2 8134   6.599   9.016  11.452 -0.6713 -0.0123  0.0528
   58CGG    AL3 8135   6.574   9.312  11.477 -0.1879  0.1422 -0.3198
   58CGG    AL4 8136   6.810   9.485  11.561  0.0123 -0.1412  0.0982
   58CGG   AL41 8137   6.876   8.893  11.509  0.0462  0.0512 -0.4774
   58CGG   AL42 8138   6.702   8.118  11.367  0.0899  0.2727  0.2015
   58CGG   AL43 8139   6.665   8.416  11.396  0.1455 -0.1030  0.5627
   58CGG   AL44 8140   6.898   8.588  11.476  0.0784 -0.4528 -0.1672
   58CGG   AL81 8141   6.960   7.992  11.425 -0.1910 -0.1256  0.1300
   58CGG   AL82 8142   6.816   7.228  11.269  0.3341  0.0927  0.1256
   58CGG   AL83 8143   6.772   7.528  11.301 -0.2070  0.0199  0.0818
   58CGG   AL84 8144   7.001   7.701  11.397  0.3365  0.1158 -0.2043
   58CGG    SI5 8145   6.712   8.994  11.755 -0.2312 -0.2297 -0.3275
   58CGG    SI6 8146   6.647   9.584  11.812 -0.2281  0.6385 -0.0785
   58CGG    SI7 8147   6.672   9.815  11.286  0.2468 -0.1536 -0.0145
   58CGG    SI8 8148   6.742   9.210  11.230  0.0621  0.4703  0.6610
   58CGG    SI9 8149   6.406   9.402  11.731  0.2918  0.0986 -0.4340
   58CGG   SI10 8150   6.448   9.119  11.706 -0.2377 -0.2809  0.2837
   58CGG   SI11 8151   6.977   9.392  11.310 -0.0648  0.2062 -0.0385
   58CGG   SI12 8152   6.935   9.682  11.338 -0.2741 -0.2708  0.3269
   58CGG   SI45 8153   6.803   8.092  11.679  0.2591 -0.0721 -0.0528
   58CGG   SI46 8154   6.741   8.697  11.728 -0.3437  0.3146 -0.0055
   58CGG   SI47 8155   6.772   8.916  11.204  0.0912  0.1125  0.2888
   58CGG   SI48 8156   6.830   8.314  11.150 -0.4320 -0.3383 -0.2334
   58CGG   SI49 8157   6.505   8.516  11.645 -0.0474 -0.2195  0.4010
   58CGG   SI50 8158   6.544   8.226  11.617 -0.4521 -0.1197 -0.2520
   58CGG   SI51 8159   7.068   8.492  11.227  0.4528  0.2185  0.7626
   58CGG   SI52 8160   7.030   8.783  11.255  0.3401  0.0550  0.1647
   58CGG   SI85 8161   6.905   7.200  11.576 -0.3359 -0.2712 -0.4073
   58CGG   SI86 8162   6.834   7.799  11.644  0.1185  0.5588  0.2416
   58CGG   SI87 8163   6.871   8.024  11.117 -0.1809  0.3281 -0.1927
   58CGG   SI88 8164   6.937   7.426  11.052 -0.3819  0.0721 -0.0002
   58CGG   SI89 8165   6.608   7.618  11.538 -0.1878 -0.1671 -0.3078
   58CGG   SI90 8166   6.650   7.327  11.509  0.1939 -0.1136 -0.6628
   58CGG   SI91 8167   7.168   7.608  11.153  0.0331 -0.0514  0.1810
   58CGG   SI92 8168   7.128   7.900  11.182  0.0092  0.0166  0.3329
   59CGG    AL1 8169   6.275   9.726  11.464 -0.2553 -0.0092 -0.0141
   59CGG    AL2 8170   6.110   8.970  11.314 -0.0149 -0.3680  0.0530
   59CGG    AL3 8171   6.078   9.266  11.348 -0.1609 -0.3398  0.5911
   59CGG    AL4 8172   6.312   9.431  11.429 -0.1795 -0.4599 -0.0990
   59CGG   AL41 8173   6.368   8.841  11.366  0.1748  0.1857  0.1381
   59CGG   AL42 8174   6.208   8.082  11.215 -0.0113  0.2708 -0.5946
   59CGG   AL43 8175   6.173   8.369  11.249 -0.4964  0.2411 -0.1249
   59CGG   AL44 8176   6.399   8.554  11.337  0.3995 -0.1496 -0.1250
   59CGG   AL81 8177   6.471   7.948  11.269  0.2622  0.0649  0.8333
   59CGG   AL82 8178   6.311   7.193  11.122  0.1209 -0.0820 -0.0408
   59CGG   AL83 8179   6.276   7.487  11.155 -0.3032 -0.3982 -0.0942
   59CGG   AL84 8180   6.509   7.662  11.242  0.0673  0.2507 -0.4231
   59CGG    SI5 8181   6.220   8.948  11.623  0.2426  0.5832  0.0652
   59CGG    SI6 8182   6.148   9.539  11.689  0.0669  0.1016  0.5641
   59CGG    SI7 8183   6.174   9.764  11.165  0.0822 -0.1076  0.0278
   59CGG    SI8 8184   6.227   9.171  11.091 -0.5010 -0.1576  0.1971
   59CGG    SI9 8185   5.910   9.368  11.598  0.2381 -0.0996 -0.2063
   59CGG   SI10 8186   5.960   9.074  11.575 -0.1238 -0.2185 -0.1558
   59CGG   SI11 8187   6.477   9.344  11.170 -0.6392 -0.0298  0.5490
   59CGG   SI12 8188   6.440   9.631  11.216  0.4375 -0.3133  0.1548
   59CGG   SI45 8189   6.316   8.052  11.521 -0.5799  0.1528  0.2527
   59CGG   SI46 8190   6.250   8.650  11.589  0.4407 -0.3284  0.2192
   59CGG   SI47 8191   6.268   8.876  11.063  0.3799 -0.3068 -0.1323
   59CGG   SI48 8192   6.336   8.277  10.993 -0.5258  0.1393  0.0539
   59CGG   SI49 8193   6.014   8.472  11.497  0.1731  0.2938 -0.0555
   59CGG   SI50 8194   6.049   8.177  11.468 -0.7008 -0.0377 -0.1386
   59CGG   SI51 8195   6.569   8.454  11.087 -0.2007 -0.1622  0.5243
   59CGG   SI52 8196   6.534   8.745  11.118 -0.7952 -0.5327 -0.2566
   59CGG   SI85 8197   6.422   7.162  11.419  0.1858 -0.1488 -0.1846
   59CGG   SI86 8198   6.352   7.758  11.496 -0.4672  0.1062 -0.7207
   59CGG   SI87 8199   6.379   7.986  10.969  0.1619  0.0935  0.0845
   59CGG   SI88 8200   6.445   7.387  10.903  0.0974  0.0584 -0.2484
   59CGG   SI89 8201   6.111   7.582  11.406 -0.0709  0.0737 -0.0511
   59CGG   SI90 8202   6.154   7.291  11.372  0.5205  0.4234  0.3014
   59CGG   SI91 8203   6.682   7.562  10.996 -0.4362  0.7930  0.0121
   59CGG   SI92 8204   6.645   7.857  11.024 -0.3466  0.1697 -0.4582
   60CGG    AL1 8205   5.773   9.696  11.331 -0.2041  0.0320  0.1190
   60CGG    AL2 8206   5.613   8.927  11.184 -0.1346 -0.3370  0.1053
   60CGG    AL3 8207   5.572   9.222  11.208 -0.1010  0.2595 -0.0693
   60CGG    AL4 8208   5.810   9.396  11.298  0.3665 -0.2061  0.2015
   60CGG   AL41 8209   5.879   8.791  11.228 -0.1709 -0.8918  0.0994
   60CGG   AL42 8210   5.716   8.030  11.079  0.1338  0.3672 -0.2009
   60CGG   AL43 8211   5.674   8.329  11.117 -0.4507  0.1502  0.3174
   60CGG   AL44 8212   5.909   8.507  11.191 -0.1707  0.1727  0.1438
   60CGG   AL81 8213   5.976   7.908  11.130  0.3204 -0.0414  0.3644
   60CGG   AL82 8214   5.828   7.150  10.964  0.1833 -0.5980  0.0135
   60CGG   AL83 8215   5.792   7.441  11.004 -0.4963  0.0441  0.0183
   60CGG   AL84 8216   6.016   7.614  11.096 -0.4340  0.0373 -0.0650
   60CGG    SI5 8217   5.720   8.904  11.485  0.3816  0.1704 -0.4439
   60CGG    SI6 8218   5.648   9.492  11.543 -0.0780  0.2001 -0.2730
   60CGG    SI7 8219   5.670   9.727  11.028 -0.1863  0.1347 -0.3021
   60CGG    SI8 8220   5.743   9.112  10.960  0.3317  0.0190 -0.1517
   60CGG    SI9 8221   5.407   9.322  11.459  0.0598 -0.0196  0.5701
   60CGG   SI10 8222   5.458   9.034  11.442 -0.2084  0.1228  0.0376
   60CGG   SI11 8223   5.967   9.299  11.049 -0.0917  0.6288  0.6198
   60CGG   SI12 8224   5.937   9.590  11.074  0.3145 -0.5324 -0.0868
   60CGG   SI45 8225   5.814   8.004  11.389  0.1615 -0.3020  0.2216
   60CGG   SI46 8226   5.748   8.604  11.450 -0.3029  0.0888  0.2285
   60CGG   SI47 8227   5.775   8.823  10.934  0.2398  0.1708  0.0959
   60CGG   SI48 8228   5.837   8.232  10.867 -0.2038 -0.0421  0.0359
   60CGG   SI49 8229   5.503   8.428  11.362 -0.4411 -0.0549  0.1966
   60CGG   SI50 8230   5.549   8.135  11.332 -0.0203 -0.0794 -0.0472
   60CGG   SI51 8231   6.082   8.404  10.938  0.6653 -0.5620 -0.3734
   60CGG   SI52 8232   6.037   8.691  10.975 -0.1201 -0.1422  0.0373
   60CGG   SI85 8233   5.928   7.111  11.270  0.1030 -0.6200  0.0446
   60CGG   SI86 8234   5.850   7.709  11.348 -0.6021 -0.0255 -0.4260
   60CGG   SI87 8235   5.877   7.948  10.822 -0.1154  0.2885 -0.2965
   60CGG   SI88 8236   5.953   7.350  10.745 -0.2001 -0.3072 -0.5464
   60CGG   SI89 8237   5.619   7.540  11.243 -0.2203 -0.2831 -0.5484
   60CGG   SI90 8238   5.658   7.245  11.216  0.4157  0.1429 -0.7047
   60CGG   SI91 8239   6.185   7.523  10.841 -0.3902  0.2656 -0.0925
   60CGG   SI92 8240   6.139   7.812  10.871 -0.1303 -0.1640 -0.2022
   61CGG    AL1 8241  15.345   7.815  14.186  0.0743  0.6362  0.1452
   61CGG    AL2 8242  15.179   7.040  14.025  0.5175 -0.0988  0.1582
   61CGG    AL3 8243  15.156   7.344  14.056  0.0201  0.0205  0.1763
   61CGG    AL4 8244  15.390   7.505  14.161 -0.0492 -0.0706 -0.5707
   61CGG   AL41 8245  15.440   6.901  14.101  0.0763  0.3730  0.4972
   61CGG   AL42 8246  15.300   6.154  13.917  0.5543 -0.1866  0.0665
   61CGG   AL43 8247  15.263   6.454  13.954  0.2756  0.5440  0.3060
   61CGG   AL44 8248  15.487   6.608  14.058  0.0566 -0.0661 -0.0311
   61CGG   AL81 8249  15.549   6.033  13.991 -0.2780  0.0760 -0.4869
   61CGG   AL82 8250  15.395   5.270  13.821  0.0510 -0.1028  0.6192
   61CGG   AL83 8251  15.375   5.553  13.864  0.0690 -0.0256  0.4219
   61CGG   AL84 8252  15.591   5.734  13.956 -0.2549 -0.0481 -0.2375
   61CGG    SI5 8253  15.254   6.995  14.340  0.2544 -0.1369 -0.1567
   61CGG    SI6 8254  15.199   7.608  14.389 -0.1030 -0.2925 -0.1575
   61CGG    SI7 8255  15.282   7.844  13.873 -0.3370 -0.0607  0.0490
   61CGG    SI8 8256  15.337   7.243  13.822 -0.2095  0.3793 -0.3902
   61CGG    SI9 8257  14.965   7.438  14.281  0.4452 -0.0331  0.0044
   61CGG   SI10 8258  15.006   7.148  14.259  0.3193  0.5230  0.2009
   61CGG   SI11 8259  15.581   7.407  13.933 -0.2791 -0.1240  0.1425
   61CGG   SI12 8260  15.533   7.706  13.952  0.2876  0.4236 -0.1229
   61CGG   SI45 8261  15.365   6.126  14.228 -0.2447 -0.0884 -0.3057
   61CGG   SI46 8262  15.294   6.703  14.303 -0.0516 -0.1938 -0.0344
   61CGG   SI47 8263  15.372   6.948  13.791 -0.0984 -0.3033 -0.3147
   61CGG   SI48 8264  15.443   6.351  13.711 -0.1550  0.3193 -0.2465
   61CGG   SI49 8265  15.069   6.537  14.183 -0.0736 -0.2438  0.1621
   61CGG   SI50 8266  15.115   6.252  14.157 -0.2923  0.0484  0.4330
   61CGG   SI51 8267  15.672   6.523  13.815 -0.2782 -0.1058  0.0830
   61CGG   SI52 8268  15.631   6.812  13.862  0.2183 -0.0346  0.0082
   61CGG   SI85 8269  15.474   5.220  14.132 -0.1761  0.2519  0.5564
   61CGG   SI86 8270  15.403   5.836  14.195  0.1120  0.1104 -0.0816
   61CGG   SI87 8271  15.491   6.062  13.682 -0.6012 -0.3178 -0.4465
   61CGG   SI88 8272  15.559   5.459  13.623 -0.2572 -0.2422 -0.0111
   61CGG   SI89 8273  15.179   5.657  14.088 -0.2261  0.0764  0.1054
   61CGG   SI90 8274  15.224   5.361  14.067  0.0166 -0.1269 -0.1299
   61CGG   SI91 8275  15.795   5.630  13.731  0.1610 -0.5797 -0.3885
   61CGG   SI92 8276  15.749   5.928  13.765  0.0103 -0.0722 -0.4165
   62CGG    AL1 8277  14.863   7.767  13.989 -0.0493 -0.1679 -0.4115
   62CGG    AL2 8278  14.714   7.006  13.830  0.2559  0.0948 -0.3169
   62CGG    AL3 8279  14.683   7.312  13.857 -0.2334 -0.2031 -0.0741
   62CGG    AL4 8280  14.901   7.476  13.968  0.3654  0.1016  0.0053
   62CGG   AL41 8281  14.957   6.860  13.903 -0.1680 -0.1597 -0.1003
   62CGG   AL42 8282  14.810   6.122  13.731  0.3030  0.0264 -0.0361
   62CGG   AL43 8283  14.780   6.401  13.771  0.2515 -0.3029  0.4420
   62CGG   AL44 8284  15.004   6.567  13.874  0.5484 -0.0379  0.2288
   62CGG   AL81 8285  15.074   5.985  13.810 -0.2770 -0.1494  0.1363
   62CGG   AL82 8286  14.940   5.221  13.628 -0.1457 -0.3785 -0.2542
   62CGG   AL83 8287  14.894   5.526  13.660  0.2380  0.2816  0.1520
   62CGG   AL84 8288  15.111   5.695  13.772  0.0583 -0.1489  0.0565
   62CGG    SI5 8289  14.780   6.962  14.137  0.2271  0.0061 -0.4457
   62CGG    SI6 8290  14.718   7.584  14.211 -0.2249  0.5267  0.2941
   62CGG    SI7 8291  14.799   7.808  13.681  0.1211  0.2516 -0.2033
   62CGG    SI8 8292  14.857   7.198  13.621  0.1573 -0.4313 -0.1417
   62CGG    SI9 8293  14.492   7.401  14.095  0.2357  0.2187  0.7405
   62CGG   SI10 8294  14.535   7.108  14.067  0.1591  0.1033 -0.2527
   62CGG   SI11 8295  15.086   7.375  13.741  0.1607  0.0076 -0.4202
   62CGG   SI12 8296  15.050   7.671  13.759 -0.1752  0.3250 -0.3333
   62CGG   SI45 8297  14.888   6.078  14.047  0.5905 -0.2857 -0.1366
   62CGG   SI46 8298  14.814   6.667  14.107 -0.3553 -0.0294  0.1231
   62CGG   SI47 8299  14.891   6.902  13.592 -0.0962  0.1900  0.0680
   62CGG   SI48 8300  14.967   6.311  13.522  0.2632 -0.0038 -0.2265
   62CGG   SI49 8301  14.585   6.493  14.008 -0.0679  0.2266 -0.4280
   62CGG   SI50 8302  14.632   6.208  13.973 -0.2131 -0.0860 -0.6410
   62CGG   SI51 8303  15.199   6.488  13.639 -0.0779  0.3219 -0.4390
   62CGG   SI52 8304  15.148   6.771  13.670  0.1732  0.1599  0.2722
   62CGG   SI85 8305  15.006   5.188  13.938  0.1110 -0.2450  0.0205
   62CGG   SI86 8306  14.925   5.791  14.016 -0.0292  0.1574 -0.0276
   62CGG   SI87 8307  15.001   6.014  13.500 -0.0498  0.0330  0.2311
   62CGG   SI88 8308  15.078   5.423  13.422  0.1258  0.3276 -0.3697
   62CGG   SI89 8309  14.701   5.620  13.903  0.2215  0.0152  0.0347
   62CGG   SI90 8310  14.743   5.325  13.864 -0.0329 -0.0242 -0.3491
   62CGG   SI91 8311  15.306   5.598  13.546 -0.1282  0.4019 -0.1852
   62CGG   SI92 8312  15.259   5.889  13.573 -0.0040  0.0068  0.1323
   63CGG    AL1 8313  14.388   7.732  13.816 -0.0321  0.1380  0.3951
   63CGG    AL2 8314  14.228   6.977  13.649 -0.1068  0.0077 -0.6071
   63CGG    AL3 8315  14.204   7.273  13.681  0.5227  0.3629 -0.3977
   63CGG    AL4 8316  14.425   7.441  13.786  0.0909  0.0865 -0.2903
   63CGG   AL41 8317  14.484   6.836  13.721  0.1758 -0.2149  0.5162
   63CGG   AL42 8318  14.323   6.073  13.550 -0.8037 -0.2693 -0.0963
   63CGG   AL43 8319  14.295   6.376  13.585 -0.1164 -0.1486 -0.0337
   63CGG   AL44 8320  14.525   6.542  13.696  0.2509 -0.0546 -0.1597
   63CGG   AL81 8321  14.591   5.943  13.615  0.2075  0.4501 -0.2838
   63CGG   AL82 8322  14.437   5.184  13.460 -0.1754  0.1036  0.0237
   63CGG   AL83 8323  14.404   5.480  13.492 -0.0486 -0.5189  0.1990
   63CGG   AL84 8324  14.625   5.657  13.590  0.2910  0.2839  0.2921
   63CGG    SI5 8325  14.313   6.944  13.961  0.3056 -0.5412  0.1798
   63CGG    SI6 8326  14.241   7.536  14.023  0.0691  0.0864 -0.1700
   63CGG    SI7 8327  14.312   7.763  13.506 -0.4368 -0.0242 -0.5402
   63CGG    SI8 8328  14.386   7.169  13.444  0.2963  0.1716  0.0603
   63CGG    SI9 8329  14.014   7.360  13.920  0.2504  0.0996 -0.4663
   63CGG   SI10 8330  14.057   7.078  13.900 -0.2412 -0.0229  0.4603
   63CGG   SI11 8331  14.606   7.346  13.549  0.1032  0.5800  0.3220
   63CGG   SI12 8332  14.573   7.637  13.574  0.4064 -0.1099 -0.4123
   63CGG   SI45 8333  14.418   6.048  13.853 -0.3182 -0.2115 -0.2182
   63CGG   SI46 8334  14.338   6.645  13.937 -0.1253  0.1517 -0.3646
   63CGG   SI47 8335  14.420   6.877  13.415  0.0088 -0.0765 -0.0134
   63CGG   SI48 8336  14.476   6.274  13.348 -0.2014 -0.3725 -0.0617
   63CGG   SI49 8337  14.116   6.479  13.820 -0.0196  0.2793 -0.2086
   63CGG   SI50 8338  14.158   6.187  13.797 -0.1080  0.3215  0.2043
   63CGG   SI51 8339  14.711   6.437  13.461  0.1784  0.0181 -0.2065
   63CGG   SI52 8340  14.668   6.741  13.480 -0.4412 -0.3063  0.2213
   63CGG   SI85 8341  14.522   5.152  13.771 -0.0423  0.4077 -0.0031
   63CGG   SI86 8342  14.452   5.758  13.832  0.0975 -0.1761 -0.1344
   63CGG   SI87 8343  14.516   5.986  13.303 -0.0950  0.2795 -0.0072
   63CGG   SI88 8344  14.586   5.386  13.248  0.1931  0.2528 -0.0128
   63CGG   SI89 8345  14.228   5.583  13.730 -0.1759 -0.0654 -0.1830
   63CGG   SI90 8346  14.264   5.289  13.704 -0.1167  0.1546  0.2109
   63CGG   SI91 8347  14.819   5.556  13.354 -0.5005  0.2840 -0.4002
   63CGG   SI92 8348  14.777   5.849  13.379  0.2241  0.2517 -0.0572
   64CGG    AL1 8349  13.897   7.685  13.632 -0.0648  0.1931 -0.0779
   64CGG    AL2 8350  13.754   6.931  13.466 -0.2421 -0.4394 -0.0354
   64CGG    AL3 8351  13.714   7.230  13.493 -0.1221 -0.3831 -0.3984
   64CGG    AL4 8352  13.939   7.400  13.609 -0.2318  0.2677 -0.0768
   64CGG   AL41 8353  14.013   6.804  13.540  0.1528 -0.0602  0.2227
   64CGG   AL42 8354  13.843   6.043  13.376 -0.2513  0.0035  0.4348
   64CGG   AL43 8355  13.824   6.340  13.403 -0.3176  0.1062 -0.5898
   64CGG   AL44 8356  14.046   6.517  13.511  0.1756  0.2486 -0.2275
   64CGG   AL81 8357  14.100   5.897  13.441 -0.0872 -0.0581  0.2198
   64CGG   AL82 8358  13.948   5.152  13.309 -0.4941  0.2449  0.7756
   64CGG   AL83 8359  13.917   5.441  13.329  0.3742  0.1424  0.3068
   64CGG   AL84 8360  14.149   5.604  13.425 -0.0172  0.0855  0.0030
   64CGG    SI5 8361  13.836   6.898  13.780  0.3903 -0.1558  0.1906
   64CGG    SI6 8362  13.757   7.489  13.845  0.1817  0.0710  0.2464
   64CGG    SI7 8363  13.825   7.724  13.321  0.1120 -0.1411  0.2105
   64CGG    SI8 8364  13.896   7.124  13.257  0.4785 -0.2845 -0.3510
   64CGG    SI9 8365  13.523   7.322  13.726 -0.6908  0.0752 -0.0546
   64CGG   SI10 8366  13.572   7.032  13.706  0.5711  0.1755  0.2921
   64CGG   SI11 8367  14.122   7.295  13.377  0.1503 -0.2261  0.1889
   64CGG   SI12 8368  14.080   7.589  13.396 -0.2540 -0.2201  0.3120
   64CGG   SI45 8369  13.929   6.017  13.680  0.0823  0.4533 -0.1984
   64CGG   SI46 8370  13.871   6.608  13.753 -0.0853 -0.1973 -0.2180
   64CGG   SI47 8371  13.936   6.833  13.231  0.0950  0.6865 -0.1207
   64CGG   SI48 8372  13.993   6.233  13.168 -0.2770 -0.4720  0.4911
   64CGG   SI49 8373  13.638   6.436  13.643  0.0902 -0.2956  0.1123
   64CGG   SI50 8374  13.672   6.144  13.613 -0.1354  0.2599  0.4536
   64CGG   SI51 8375  14.228   6.411  13.280  0.0410 -0.3535 -0.0054
   64CGG   SI52 8376  14.195   6.703  13.304  0.0034 -0.0090  0.9325
   64CGG   SI85 8377  14.027   5.106  13.614  0.5894 -0.3690 -0.4290
   64CGG   SI86 8378  13.967   5.715  13.664 -0.8564 -0.1421 -0.4841
   64CGG   SI87 8379  14.023   5.937  13.134  0.0085  0.0906 -0.2107
   64CGG   SI88 8380  14.088   5.333  13.090  0.0149 -0.0393 -0.0886
   64CGG   SI89 8381  13.741   5.537  13.569  0.4006 -0.2675  0.0689
   64CGG   SI90 8382  13.772   5.244  13.538  0.2822 -0.0155 -0.3168
   64CGG   SI91 8383  14.321   5.505  13.181 -0.3656 -0.2224  0.1212
   64CGG   SI92 8384  14.281   5.804  13.208  0.0303  0.0571 -0.1123
   65CGG    AL1 8385  13.421   7.659  13.444 -0.3774 -0.1851  0.1226
   65CGG    AL2 8386  13.264   6.895  13.293  0.0616  0.1559  0.4705
   65CGG    AL3 8387  13.230   7.196  13.319  0.0550 -0.3606  0.2710
   65CGG    AL4 8388  13.457   7.362  13.417  0.1441 -0.3642  0.2969
   65CGG   AL41 8389  13.529   6.768  13.363  0.5150  0.1000  0.0310
   65CGG   AL42 8390  13.368   5.998  13.207  0.4452  0.3372 -0.0291
   65CGG   AL43 8391  13.333   6.299  13.232  0.2110  0.6841 -0.6314
   65CGG   AL44 8392  13.558   6.467  13.328 -0.3378  0.1730 -0.2612
   65CGG   AL81 8393  13.630   5.865  13.270  0.6135 -0.0555 -0.5192
   65CGG   AL82 8394  13.464   5.104  13.130 -0.4892 -0.3367  0.4253
   65CGG   AL83 8395  13.445   5.398  13.151  0.4466 -0.4822 -0.1347
   65CGG   AL84 8396  13.674   5.571  13.255  0.3688  0.0936  0.1097
   65CGG    SI5 8397  13.345   6.865  13.604  0.3370 -0.4048 -0.0926
   65CGG    SI6 8398  13.275   7.459  13.652 -0.3695 -0.2820  0.1366
   65CGG    SI7 8399  13.344   7.693  13.136  0.1327  0.2521  0.0320
   65CGG    SI8 8400  13.412   7.087  13.085 -0.3123 -0.6002 -0.3283
   65CGG    SI9 8401  13.041   7.286  13.552 -0.4507 -0.0779 -0.1649
   65CGG   SI10 8402  13.090   6.998  13.532  0.3325 -0.0094 -0.0092
   65CGG   SI11 8403  13.644   7.268  13.182  0.6673  0.3956  0.0928
   65CGG   SI12 8404  13.606   7.563  13.210  0.0850  0.5178  0.1956
   65CGG   SI45 8405  13.454   5.973  13.509 -0.0351 -0.4556 -0.3146
   65CGG   SI46 8406  13.376   6.572  13.565 -0.0855 -0.2396 -0.1777
   65CGG   SI47 8407  13.454   6.798  13.049 -0.5349 -0.2126  0.4633
   65CGG   SI48 8408  13.511   6.193  12.996  0.0073 -0.1170 -0.2832
   65CGG   SI49 8409  13.148   6.394  13.470  0.4618  0.2287 -0.0797
   65CGG   SI50 8410  13.189   6.097  13.452 -0.2218 -0.5136  0.3682
   65CGG   SI51 8411  13.748   6.373  13.092  0.6372  0.3868  0.5310
   65CGG   SI52 8412  13.714   6.663  13.126  0.2463 -0.1138  0.5206
   65CGG   SI85 8413  13.555   5.070  13.446 -0.1746 -0.1229  0.3403
   65CGG   SI86 8414  13.487   5.674  13.488 -0.0068 -0.4650 -0.0519
   65CGG   SI87 8415  13.545   5.900  12.968 -0.2826  0.1135  0.5760
   65CGG   SI88 8416  13.615   5.283  12.909 -0.5173  0.1568 -0.1666
   65CGG   SI89 8417  13.258   5.502  13.379 -0.1828  0.0462 -0.0400
   65CGG   SI90 8418  13.299   5.207  13.371  0.0609  0.0967 -0.1019
   65CGG   SI91 8419  13.841   5.468  13.015 -0.0422 -0.1139  0.5061
   65CGG   SI92 8420  13.802   5.761  13.031 -0.3713 -0.2012  0.0726
   66CGG    AL1 8421  12.932   7.612  13.269 -0.2166 -0.0855  0.5071
   66CGG    AL2 8422  12.783   6.854  13.111 -0.3306  0.0643 -0.2016
   66CGG    AL3 8423  12.747   7.145  13.129 -0.2761  0.0166  0.3785
   66CGG    AL4 8424  12.970   7.307  13.235 -0.0202 -0.0105 -0.4710
   66CGG   AL41 8425  13.044   6.717  13.191 -0.2223 -0.3668  0.0044
   66CGG   AL42 8426  12.885   5.961  13.020 -0.2651  0.0795 -0.2254
   66CGG   AL43 8427  12.862   6.251  13.049 -0.3814 -0.1894  0.2597
   66CGG   AL44 8428  13.070   6.422  13.159  0.4371 -0.6746  0.0970
   66CGG   AL81 8429  13.148   5.824  13.095  0.1566 -0.8669  0.0874
   66CGG   AL82 8430  12.986   5.080  12.943 -0.3261 -0.1369 -0.1916
   66CGG   AL83 8431  12.950   5.373  12.970  0.2089  0.2505  0.2550
   66CGG   AL84 8432  13.184   5.534  13.072  0.1713  0.4345  0.4452
   66CGG    SI5 8433  12.864   6.831  13.418 -0.1921  0.0111 -0.2764
   66CGG    SI6 8434  12.786   7.414  13.472  0.2960 -0.2615  0.0399
   66CGG    SI7 8435  12.852   7.645  12.959  0.2870 -0.2352  0.1938
   66CGG    SI8 8436  12.932   7.040  12.895  0.0573  0.0164 -0.1089
   66CGG    SI9 8437  12.562   7.239  13.366  0.0594  0.1884  0.3184
   66CGG   SI10 8438  12.605   6.949  13.349  0.5433  0.3540 -0.2871
   66CGG   SI11 8439  13.159   7.212  13.007  0.5520 -0.2505  0.0424
   66CGG   SI12 8440  13.107   7.513  13.032 -0.2801  0.4893  0.5123
   66CGG   SI45 8441  12.966   5.933  13.333  0.6766  0.0099  0.1081
   66CGG   SI46 8442  12.894   6.531  13.401 -0.3063  0.0911  0.1797
   66CGG   SI47 8443  12.968   6.747  12.879 -0.1525 -0.5246 -0.2341
   66CGG   SI48 8444  13.038   6.150  12.806 -0.0838  0.0134  0.3288
   66CGG   SI49 8445  12.676   6.358  13.279 -0.0698  0.2651 -0.0251
   66CGG   SI50 8446  12.710   6.067  13.262  0.4616  0.2333  0.5590
   66CGG   SI51 8447  13.257   6.332  12.921 -0.4721 -0.0804 -0.0680
   66CGG   SI52 8448  13.221   6.623  12.956  0.0903 -0.1344  0.0752
   66CGG   SI85 8449  13.075   5.047  13.249  0.3151  0.3144  0.0831
   66CGG   SI86 8450  13.006   5.637  13.311 -0.0994  0.2769  0.1716
   66CGG   SI87 8451  13.068   5.853  12.779 -0.2950 -0.3226 -0.2572
   66CGG   SI88 8452  13.134   5.265  12.733  0.8124 -0.0125 -0.2619
   66CGG   SI89 8453  12.775   5.466  13.204 -0.1778  0.2800  0.2917
   66CGG   SI90 8454  12.814   5.175  13.187 -0.1218 -0.0811  0.1636
   66CGG   SI91 8455  13.372   5.428  12.831 -0.8196  0.1429 -0.3981
   66CGG   SI92 8456  13.323   5.725  12.854  0.4843  0.4925  0.1397
   67CGG    AL1 8457  12.449   7.573  13.089  0.3411  0.1649 -0.1258
   67CGG    AL2 8458  12.305   6.807  12.919 -0.1167 -0.1233  0.2440
   67CGG    AL3 8459  12.274   7.105  12.943 -0.1558 -0.4957 -0.2431
   67CGG    AL4 8460  12.492   7.281  13.055  0.2141  0.3846 -0.2963
   67CGG   AL41 8461  12.560   6.685  12.989  0.1678  0.3706 -0.3248
   67CGG   AL42 8462  12.403   5.922  12.838  0.0903  0.2889 -0.3610
   67CGG   AL43 8463  12.376   6.218  12.864 -0.3268 -0.3437 -0.1571
   67CGG   AL44 8464  12.601   6.380  12.969 -0.0364  0.3869  0.3540
   67CGG   AL81 8465  12.666   5.792  12.909 -0.5577 -0.2515 -0.0144
   67CGG   AL82 8466  12.510   5.016  12.760 -0.5269 -0.1549 -0.1092
   67CGG   AL83 8467  12.468   5.334  12.789  0.3972 -0.1242 -0.3572
   67CGG   AL84 8468  12.699   5.497  12.891  0.5586  0.4584 -0.1458
   67CGG    SI5 8469  12.388   6.781  13.231 -0.1118 -0.1386 -0.2647
   67CGG    SI6 8470  12.310   7.372  13.297 -0.3914  0.3533  0.0043
   67CGG    SI7 8471  12.363   7.591  12.783 -0.1254 -0.4300 -0.1207
   67CGG    SI8 8472  12.452   7.006  12.705 -0.0395  0.5383  0.0294
   67CGG    SI9 8473  12.095   7.201  13.191 -0.2455  0.2919  0.2494
   67CGG   SI10 8474  12.138   6.912  13.160  0.1652 -0.3294  0.0112
   67CGG   SI11 8475  12.678   7.177  12.822 -0.0361 -0.0634  0.0691
   67CGG   SI12 8476  12.639   7.473  12.850  0.0016 -0.3249  0.6768
   67CGG   SI45 8477  12.492   5.896  13.147  0.0196 -0.3581  0.5229
   67CGG   SI46 8478  12.420   6.488  13.206  0.4783 -0.1815  0.1542
   67CGG   SI47 8479  12.491   6.712  12.680  0.0391  0.5059  0.1323
   67CGG   SI48 8480  12.556   6.113  12.627  0.2429 -0.2018 -0.1964
   67CGG   SI49 8481  12.189   6.313  13.103  0.3707  0.0021 -0.3151
   67CGG   SI50 8482  12.234   6.028  13.078  0.1847  0.0903 -0.3680
   67CGG   SI51 8483  12.787   6.284  12.735 -0.1839 -0.2168 -0.1473
   67CGG   SI52 8484  12.750   6.579  12.760  0.2942  0.2557  0.1251
   67CGG   SI85 8485  12.589   4.999  13.077  0.1500  0.1526 -0.3051
   67CGG   SI86 8486  12.523   5.604  13.131  0.2869 -0.2160  0.2956
   67CGG   SI87 8487  12.584   5.825  12.596  0.0808 -0.4926 -0.2429
   67CGG   SI88 8488  12.643   5.224  12.558  0.0473  0.3088  0.0856
   67CGG   SI89 8489  12.288   5.429  13.030  0.1712  0.2131 -0.0508
   67CGG   SI90 8490  12.338   5.134  13.001  0.1891 -0.3877  0.1047
   67CGG   SI91 8491  12.875   5.392  12.655 -0.2254 -0.4538  0.1695
   67CGG   SI92 8492  12.840   5.689  12.675  0.4903  0.3358 -0.1898
   68CGG    AL1 8493  11.977   7.528  12.905  0.2438  0.0016  0.1444
   68CGG    AL2 8494  11.816   6.769  12.752  0.1575 -0.5417  0.0264
   68CGG    AL3 8495  11.787   7.069  12.779 -0.3825  0.5148  0.2202
   68CGG    AL4 8496  12.012   7.234  12.879 -0.1691 -0.0881  0.0567
   68CGG   AL41 8497  12.076   6.645  12.813 -0.1329 -0.1340 -0.1793
   68CGG   AL42 8498  11.908   5.879  12.664  0.0427  0.6753 -0.4712
   68CGG   AL43 8499  11.879   6.180  12.687 -0.1826 -0.5406 -0.8095
   68CGG   AL44 8500  12.109   6.344  12.790 -0.3021 -0.2421 -0.0300
   68CGG   AL81 8501  12.179   5.749  12.739  0.1044 -0.2816 -0.0817
   68CGG   AL82 8502  12.026   4.999  12.590  0.6374 -0.1073  0.0470
   68CGG   AL83 8503  11.990   5.278  12.618  0.2534 -0.1376  0.1860
   68CGG   AL84 8504  12.211   5.457  12.717  0.1960 -0.5822 -0.0202
   68CGG    SI5 8505  11.909   6.746  13.056 -0.0369  0.1001  0.2970
   68CGG    SI6 8506  11.846   7.333  13.127 -0.0502 -0.0332  0.0660
   68CGG    SI7 8507  11.886   7.570  12.602 -0.3526  0.2315  0.1473
   68CGG    SI8 8508  11.956   6.964  12.533 -0.1002  0.3469 -0.2543
   68CGG    SI9 8509  11.610   7.167  13.018  0.2761  0.1361 -0.4350
   68CGG   SI10 8510  11.642   6.870  12.989 -0.3612  0.1489  0.1905
   68CGG   SI11 8511  12.189   7.139  12.636  0.2757 -0.3289  0.2609
   68CGG   SI12 8512  12.145   7.432  12.661 -0.2044 -0.0478  0.1672
   68CGG   SI45 8513  12.000   5.860  12.979  0.0562 -0.1376 -0.0151
   68CGG   SI46 8514  11.936   6.452  13.036 -0.0467  0.2927 -0.0680
   68CGG   SI47 8515  11.990   6.673  12.508  0.1954 -0.3129  0.3821
   68CGG   SI48 8516  12.057   6.076  12.452 -0.1589  0.2130 -0.0044
   68CGG   SI49 8517  11.702   6.275  12.935  0.1070 -0.1569  0.6052
   68CGG   SI50 8518  11.741   5.984  12.904 -0.1297 -0.1976 -0.4584
   68CGG   SI51 8519  12.298   6.244  12.552 -0.3486  0.1595  0.0522
   68CGG   SI52 8520  12.255   6.540  12.580  0.2380 -0.3813 -0.2690
   68CGG   SI85 8521  12.116   4.965  12.892 -0.0886  0.3197  0.0221
   68CGG   SI86 8522  12.033   5.559  12.953 -0.4176 -0.0285 -0.3361
   68CGG   SI87 8523  12.092   5.780  12.433 -0.1386  0.2785  0.1396
   68CGG   SI88 8524  12.166   5.186  12.374  0.0362  0.7327  0.2529
   68CGG   SI89 8525  11.802   5.378  12.851  0.0392 -0.7136 -0.4490
   68CGG   SI90 8526  11.852   5.087  12.837 -0.0544 -0.0827 -0.1085
   68CGG   SI91 8527  12.390   5.362  12.478 -0.3587 -0.3018  0.0349
   68CGG   SI92 8528  12.352   5.652  12.495  0.0321  0.0890 -0.4455
   69CGG    AL1 8529  11.491   7.491  12.735 -0.1449 -0.3510 -0.1499
   69CGG    AL2 8530  11.335   6.731  12.585  0.0876 -0.0129 -0.0071
   69CGG    AL3 8531  11.294   7.030  12.610 -0.3132 -0.4655  0.2937
   69CGG    AL4 8532  11.529   7.199  12.710 -0.0224  0.1412  0.0466
   69CGG   AL41 8533  11.598   6.591  12.648  0.3992 -0.2582 -0.1589
   69CGG   AL42 8534  11.426   5.836  12.494  0.0727  0.3557  0.0080
   69CGG   AL43 8535  11.398   6.124  12.519  0.0282  0.5363 -0.1809
   69CGG   AL44 8536  11.626   6.300  12.621 -0.2307  0.2580  0.2308
   69CGG   AL81 8537  11.692   5.713  12.558  0.0349  0.5753  0.4098
   69CGG   AL82 8538  11.555   4.938  12.432  0.3750  0.1259  0.2079
   69CGG   AL83 8539  11.503   5.244  12.445 -0.1149  0.0617 -0.0429
   69CGG   AL84 8540  11.729   5.418  12.539  0.4411  0.3046  0.1470
   69CGG    SI5 8541  11.418   6.702  12.896  0.2100  0.2769  0.0571
   69CGG    SI6 8542  11.354   7.297  12.950 -0.4506  0.1564  0.0902
   69CGG    SI7 8543  11.409   7.527  12.421 -0.2922  0.2556 -0.2544
   69CGG    SI8 8544  11.477   6.927  12.373 -0.0931 -0.3247  0.1079
   69CGG    SI9 8545  11.120   7.129  12.857 -0.0002  0.0610 -0.3170
   69CGG   SI10 8546  11.165   6.831  12.827  0.0492 -0.1431 -0.4411
   69CGG   SI11 8547  11.706   7.100  12.466 -0.0469  0.0646 -0.1992
   69CGG   SI12 8548  11.665   7.394  12.496 -0.7217  0.2851 -0.5571
   69CGG   SI45 8549  11.527   5.818  12.799  0.5664  0.1477 -0.1160
   69CGG   SI46 8550  11.445   6.404  12.861  0.1808  0.3390 -0.4548
   69CGG   SI47 8551  11.518   6.637  12.338 -0.5188  0.1326 -0.1523
   69CGG   SI48 8552  11.564   6.025  12.275 -0.0403  0.0795 -0.3664
   69CGG   SI49 8553  11.219   6.227  12.761  0.1059  0.3495 -0.2848
   69CGG   SI50 8554  11.264   5.942  12.742 -0.3016 -0.1897 -0.0172
   69CGG   SI51 8555  11.799   6.202  12.377 -0.1340 -0.1690  0.1475
   69CGG   SI52 8556  11.771   6.502  12.405 -0.1333  0.8772 -0.1598
   69CGG   SI85 8557  11.625   4.920  12.740 -0.4634 -0.1356 -0.3699
   69CGG   SI86 8558  11.555   5.525  12.782  0.3002 -0.2449  0.0817
   69CGG   SI87 8559  11.613   5.733  12.259 -0.4283  0.0372  0.3492
   69CGG   SI88 8560  11.680   5.137  12.209 -0.2462  0.2419 -0.0485
   69CGG   SI89 8561  11.323   5.343  12.687 -0.2068 -0.5570  0.0587
   69CGG   SI90 8562  11.365   5.044  12.668 -0.0956  0.2402  0.4369
   69CGG   SI91 8563  11.911   5.320  12.300 -0.1990 -0.0393 -0.0242
   69CGG   SI92 8564  11.870   5.613  12.326  0.2556  0.2501  0.0079
   70CGG    AL1 8565  11.002   7.446  12.570 -0.0599 -0.0739  0.2754
   70CGG    AL2 8566  10.845   6.689  12.419  0.3474 -0.0512 -0.2529
   70CGG    AL3 8567  10.812   6.980  12.446  0.2994 -0.2102 -0.1680
   70CGG    AL4 8568  11.040   7.155  12.544  0.2362 -0.1428  0.0620
   70CGG   AL41 8569  11.104   6.558  12.484 -0.3664  0.5399  0.4079
   70CGG   AL42 8570  10.943   5.799  12.337  0.0068 -0.2920  0.3420
   70CGG   AL43 8571  10.911   6.091  12.366  0.0495  0.2291  0.0761
   70CGG   AL44 8572  11.139   6.254  12.456  0.2746 -0.7083  0.0922
   70CGG   AL81 8573  11.205   5.652  12.402  0.1220 -0.4702  0.5456
   70CGG   AL82 8574  11.061   4.895  12.257 -0.4245 -0.3141 -0.2333
   70CGG   AL83 8575  11.018   5.193  12.287  0.2919 -0.0944  0.0663
   70CGG   AL84 8576  11.246   5.356  12.377 -0.3975  0.2857 -0.3096
   70CGG    SI5 8577  10.937   6.665  12.731 -0.1051  0.5376 -0.2213
   70CGG    SI6 8578  10.868   7.251  12.788 -0.0153  0.1684 -0.2996
   70CGG    SI7 8579  10.916   7.482  12.262 -0.3669 -0.3275 -0.0536
   70CGG    SI8 8580  10.985   6.882  12.208 -0.2956 -0.2781  0.5329
   70CGG    SI9 8581  10.634   7.076  12.685 -0.0665  0.0016  0.3686
   70CGG   SI10 8582  10.671   6.785  12.666 -0.3631 -0.0558  0.0868
   70CGG   SI11 8583  11.219   7.053  12.300 -0.2661 -0.0812  0.0719
   70CGG   SI12 8584  11.174   7.350  12.321 -0.4107 -0.1586 -0.4588
   70CGG   SI45 8585  11.031   5.764  12.644  0.2180 -0.3996 -0.0249
   70CGG   SI46 8586  10.966   6.368  12.700 -0.2325  0.2676 -0.0538
   70CGG   SI47 8587  11.023   6.593  12.176 -0.2633 -0.4773  0.1009
   70CGG   SI48 8588  11.082   5.983  12.116  0.4121 -0.2229 -0.0873
   70CGG   SI49 8589  10.739   6.194  12.604  0.0625 -0.0747 -0.4365
   70CGG   SI50 8590  10.775   5.899  12.584 -0.3713  0.2807 -0.3474
   70CGG   SI51 8591  11.316   6.165  12.216 -0.5481  0.1796  0.4872
   70CGG   SI52 8592  11.283   6.457  12.244  0.2901 -0.2450 -0.2259
   70CGG   SI85 8593  11.137   4.868  12.567  0.1122  0.5363  0.0166
   70CGG   SI86 8594  11.070   5.469  12.618 -0.1403  0.2537  0.1374
   70CGG   SI87 8595  11.126   5.688  12.098  1.0609  0.3489  0.5684
   70CGG   SI88 8596  11.190   5.100  12.045  0.5199 -0.2683 -0.1298
   70CGG   SI89 8597  10.840   5.287  12.529 -0.6908 -0.4292 -0.3695
   70CGG   SI90 8598  10.882   4.996  12.494 -0.1534  0.1119 -0.2966
   70CGG   SI91 8599  11.422   5.264  12.136  0.0107 -0.3632  0.1912
   70CGG   SI92 8600  11.381   5.553  12.167 -0.8117 -0.1474 -0.1843
   71CGG    AL1 8601  10.509   7.402  12.403 -0.6697 -0.3730  0.0773
   71CGG    AL2 8602  10.346   6.651  12.254  0.4106 -0.1633 -0.1696
   71CGG    AL3 8603  10.317   6.947  12.283 -0.6069  0.2023  0.3444
   71CGG    AL4 8604  10.551   7.118  12.375 -0.2131  0.6430 -0.1637
   71CGG   AL41 8605  10.618   6.516  12.317 -0.1405  0.0568 -0.1300
   71CGG   AL42 8606  10.460   5.745  12.183 -0.1795 -0.2987  0.2030
   71CGG   AL43 8607  10.423   6.049  12.210 -0.2052 -0.1705  0.1946
   71CGG   AL44 8608  10.658   6.224  12.294 -0.0026 -0.1335 -0.0208
   71CGG   AL81 8609  10.721   5.611  12.249 -0.0813 -0.4983 -0.2471
   71CGG   AL82 8610  10.558   4.854  12.092 -0.2515  0.0717  0.3302
   71CGG   AL83 8611  10.524   5.137  12.132 -0.0499 -0.2817  0.3177
   71CGG   AL84 8612  10.750   5.315  12.220  0.1663 -0.3681  0.3386
   71CGG    SI5 8613  10.449   6.616  12.565 -0.2970  0.1816 -0.0831
   71CGG    SI6 8614  10.372   7.216  12.626  0.0477 -0.3174  0.0239
   71CGG    SI7 8615  10.425   7.433  12.101 -0.1981 -0.5348  0.1776
   71CGG    SI8 8616  10.491   6.840  12.036 -0.2501 -0.3180 -0.2777
   71CGG    SI9 8617  10.141   7.042  12.534 -0.6925 -0.3277  0.6724
   71CGG   SI10 8618  10.189   6.750  12.509 -0.1618 -0.1319 -0.0113
   71CGG   SI11 8619  10.733   7.015  12.140  0.6649  0.7381  0.0418
   71CGG   SI12 8620  10.688   7.307  12.162  0.3718  0.4799  0.1980
   71CGG   SI45 8621  10.552   5.726  12.493  0.0535  0.5166  0.5366
   71CGG   SI46 8622  10.491   6.325  12.536 -0.3763  0.0178 -0.1846
   71CGG   SI47 8623  10.523   6.547  12.009 -0.0298 -0.2117 -0.3219
   71CGG   SI48 8624  10.586   5.947  11.960  0.0549  0.1904  0.0439
   71CGG   SI49 8625  10.250   6.155  12.454 -0.1222 -0.1711  0.1791
   71CGG   SI50 8626  10.292   5.859  12.428 -0.2224 -0.2000 -0.2387
   71CGG   SI51 8627  10.822   6.123  12.058 -0.2738 -0.2512  0.2595
   71CGG   SI52 8628  10.789   6.418  12.077 -0.1561 -0.5844  0.2427
   71CGG   SI85 8629  10.663   4.814  12.399  0.6719 -0.1497 -0.4234
   71CGG   SI86 8630  10.587   5.421  12.471  0.0403 -0.4427 -0.2040
   71CGG   SI87 8631  10.631   5.646  11.940 -0.5292 -0.0707  0.2532
   71CGG   SI88 8632  10.704   5.047  11.883  0.2127 -0.1057  0.0598
   71CGG   SI89 8633  10.354   5.238  12.382 -0.3459  0.2121  0.5330
   71CGG   SI90 8634  10.400   4.950  12.355  0.1817  0.5498 -0.4680
   71CGG   SI91 8635  10.932   5.232  11.977 -0.3054 -0.0839  0.2049
   71CGG   SI92 8636  10.890   5.520  12.005 -0.1410 -0.1688 -0.6953
   72CGG    AL1 8637  10.018   7.358  12.241 -0.5388  0.0755  0.1081
   72CGG    AL2 8638   9.857   6.601  12.109 -0.2231  0.3955  0.2939
   72CGG    AL3 8639   9.827   6.891  12.131 -0.2491 -0.2474  0.0643
   72CGG    AL4 8640  10.064   7.062  12.221  0.3657  0.3554 -0.1682
   72CGG   AL41 8641  10.129   6.468  12.164  0.0226 -0.5759 -0.2299
   72CGG   AL42 8642   9.957   5.696  12.030  0.2716  0.0880 -0.2638
   72CGG   AL43 8643   9.939   6.006  12.054 -0.0886  0.1304 -0.0154
   72CGG   AL44 8644  10.158   6.179  12.145 -0.2777 -0.0903  0.4648
   72CGG   AL81 8645  10.231   5.575  12.093  0.0449  0.6035  0.0242
   72CGG   AL82 8646  10.054   4.804  11.967 -0.2087  0.4252 -0.4439
   72CGG   AL83 8647  10.035   5.105  11.990  0.1334 -0.2137 -0.1037
   72CGG   AL84 8648  10.272   5.270  12.070  0.2388 -0.3040  0.1893
   72CGG    SI5 8649   9.960   6.576  12.413 -0.1436  0.0673 -0.2508
   72CGG    SI6 8650   9.882   7.171  12.464  0.0144 -0.1668  0.2081
   72CGG    SI7 8651   9.930   7.389  11.936 -0.0689  0.4372 -0.3444
   72CGG    SI8 8652   9.993   6.788  11.887  0.0382  0.3445  0.3591
   72CGG    SI9 8653   9.652   6.992  12.376  0.0274  0.1900 -0.2078
   72CGG   SI10 8654   9.697   6.697  12.354 -0.2571 -0.1793 -0.4759
   72CGG   SI11 8655  10.231   6.964  11.980 -0.1091  0.0121 -0.0681
   72CGG   SI12 8656  10.194   7.261  11.998  0.3333 -0.0012 -0.0537
   72CGG   SI45 8657  10.060   5.674  12.336  0.1454  0.0434 -0.2885
   72CGG   SI46 8658   9.994   6.286  12.389  0.2973 -0.2056  0.2230
   72CGG   SI47 8659  10.031   6.501  11.854 -0.2203 -0.2695  0.0596
   72CGG   SI48 8660  10.096   5.887  11.810 -0.0981  0.1488 -0.3158
   72CGG   SI49 8661   9.764   6.105  12.299  0.5314 -0.2341  0.1126
   72CGG   SI50 8662   9.802   5.808  12.270 -0.0946  0.0375 -0.0415
   72CGG   SI51 8663  10.331   6.073  11.900  0.2747 -0.4312 -0.2411
   72CGG   SI52 8664  10.289   6.367  11.916 -0.1837 -0.0659 -0.0941
   72CGG   SI85 8665  10.155   4.786  12.270  0.3658  0.0325 -0.1523
   72CGG   SI86 8666  10.099   5.374  12.321  0.0234 -0.2754 -0.3177
   72CGG   SI87 8667  10.131   5.590  11.789  0.3408 -0.3058  0.0103
   72CGG   SI88 8668  10.207   4.992  11.750  0.3458  0.2637  0.0399
   72CGG   SI89 8669   9.855   5.207  12.229  0.0651  0.2312  0.4031
   72CGG   SI90 8670   9.896   4.914  12.212 -0.0790 -0.0303 -0.1613
   72CGG   SI91 8671  10.441   5.174  11.833 -0.1970 -0.0638  0.3830
   72CGG   SI92 8672  10.399   5.467  11.849 -0.4137  0.3926 -0.2002
   73CGG    AL1 8673   9.534   7.313  12.092  0.3041 -0.0335  0.0015
   73CGG    AL2 8674   9.377   6.550  11.953 -0.0227 -0.1598  0.0668
   73CGG    AL3 8675   9.346   6.847  11.977  0.0263  0.0780  0.2281
   73CGG    AL4 8676   9.574   7.022  12.066  0.0085  0.1364 -0.0037
   73CGG   AL41 8677   9.642   6.416  12.014  0.2025 -0.0279  0.0618
   73CGG   AL42 8678   9.478   5.660  11.873 -0.0466 -0.0230 -0.0331
   73CGG   AL43 8679   9.445   5.958  11.902  0.0389  0.0504  0.5003
   73CGG   AL44 8680   9.675   6.136  11.991  0.2348  0.3805  0.1723
   73CGG   AL81 8681   9.734   5.529  11.939 -0.1863  0.5613  0.1883
   73CGG   AL82 8682   9.572   4.755  11.793 -0.1605 -0.1062 -0.3259
   73CGG   AL83 8683   9.543   5.058  11.821 -0.0734 -0.0251  0.2632
   73CGG   AL84 8684   9.783   5.223  11.923  0.4109  0.0194  0.2190
   73CGG    SI5 8685   9.474   6.520  12.263  0.3039 -0.1785 -0.1820
   73CGG    SI6 8686   9.402   7.130  12.312  0.0782  0.1975 -0.3836
   73CGG    SI7 8687   9.442   7.342  11.782 -0.0778 -0.2464 -0.4036
   73CGG    SI8 8688   9.506   6.743  11.730  0.0294  0.2078  0.0661
   73CGG    SI9 8689   9.177   6.956  12.219  0.0038 -0.3332  0.2797
   73CGG   SI10 8690   9.211   6.661  12.201  0.1184  0.2947  0.1768
   73CGG   SI11 8691   9.741   6.920  11.823  0.2419 -0.3955  0.0364
   73CGG   SI12 8692   9.704   7.216  11.847 -0.1318 -0.0214  0.5067
   73CGG   SI45 8693   9.569   5.634  12.186 -0.3077 -0.4260  0.1315
   73CGG   SI46 8694   9.509   6.232  12.235  0.1685 -0.1044  0.0553
   73CGG   SI47 8695   9.544   6.447  11.709 -0.1227 -0.3853 -0.0088
   73CGG   SI48 8696   9.616   5.853  11.657  0.4744 -0.2813  0.5511
   73CGG   SI49 8697   9.262   6.058  12.139 -0.2388 -0.0783  0.4429
   73CGG   SI50 8698   9.313   5.760  12.122 -0.2749  0.1159  0.1467
   73CGG   SI51 8699   9.848   6.036  11.748 -0.1879  0.0902 -0.0431
   73CGG   SI52 8700   9.808   6.328  11.770 -0.3262 -0.0137  0.1870
   73CGG   SI85 8701   9.676   4.741  12.107  0.0195 -0.0807 -0.2182
   73CGG   SI86 8702   9.602   5.337  12.154  0.1093 -0.2405 -0.2103
   73CGG   SI87 8703   9.650   5.558  11.629 -0.3237  0.3273 -0.2994
   73CGG   SI88 8704   9.712   4.952  11.581 -0.7460  0.5817  0.1751
   73CGG   SI89 8705   9.364   5.166  12.064 -0.1104  0.6200 -0.4861
   73CGG   SI90 8706   9.410   4.873  12.042 -0.4344  0.2269 -0.1969
   73CGG   SI91 8707   9.953   5.120  11.681 -0.2003  0.2274 -0.0966
   73CGG   SI92 8708   9.905   5.419  11.697  0.2239 -0.2269 -0.3398
   74CGG    AL1 8709   9.038   7.271  11.925  0.2566  0.1849 -0.1983
   74CGG    AL2 8710   8.879   6.509  11.792 -0.1893  0.0031  0.5935
   74CGG    AL3 8711   8.851   6.813  11.820 -0.0054 -0.1901  0.0734
   74CGG    AL4 8712   9.090   6.975  11.908  0.6083 -0.4091  0.6132
   74CGG   AL41 8713   9.144   6.377  11.854 -0.4109  0.2830  0.1896
   74CGG   AL42 8714   8.981   5.616  11.714  0.3102 -0.3589 -0.1632
   74CGG   AL43 8715   8.943   5.900  11.739 -0.0911 -0.5873 -0.3267
   74CGG   AL44 8716   9.174   6.077  11.832  0.3222 -0.1383 -0.6694
   74CGG   AL81 8717   9.250   5.488  11.776  0.1661  0.0589  0.0743
   74CGG   AL82 8718   9.086   4.721  11.645 -0.2318 -0.1743 -0.0180
   74CGG   AL83 8719   9.059   5.010  11.662  0.2246 -0.0897  0.1659
   74CGG   AL84 8720   9.278   5.192  11.751 -0.3763 -0.0508 -0.1188
   74CGG    SI5 8721   8.981   6.493  12.096  0.3869  0.0185 -0.3850
   74CGG    SI6 8722   8.913   7.085  12.148  0.1401  0.1836  0.3033
   74CGG    SI7 8723   8.941   7.301  11.621  0.2511  0.2505  0.1689
   74CGG    SI8 8724   9.018   6.696  11.573  0.0234  0.3276 -0.1429
   74CGG    SI9 8725   8.673   6.903  12.063  0.1468 -0.2774 -0.2478
   74CGG   SI10 8726   8.715   6.614  12.039 -0.3483 -0.0548  0.4439
   74CGG   SI11 8727   9.251   6.878  11.664 -0.0177  0.1701 -0.2095
   74CGG   SI12 8728   9.195   7.172  11.675 -0.2898 -0.2663  0.2395
   74CGG   SI45 8729   9.078   5.588  12.025  0.4813 -0.1817  0.0284
   74CGG   SI46 8730   9.006   6.195  12.076 -0.5460  0.0425  0.1599
   74CGG   SI47 8731   9.052   6.400  11.546 -0.1103 -0.0431 -0.1346
   74CGG   SI48 8732   9.121   5.801  11.501  0.1997  0.2963 -0.1185
   74CGG   SI49 8733   8.776   6.011  11.989  0.1775 -0.3227 -0.3863
   74CGG   SI50 8734   8.814   5.714  11.968 -0.1747 -0.1411  0.4940
   74CGG   SI51 8735   9.347   5.975  11.596 -0.0294 -0.0199 -0.0428
   74CGG   SI52 8736   9.311   6.273  11.610 -0.2965 -0.1052  0.4424
   74CGG   SI85 8737   9.176   4.692  11.952 -0.4586 -0.3170 -0.6015
   74CGG   SI86 8738   9.112   5.295  11.991  0.3016 -0.3415  0.7165
   74CGG   SI87 8739   9.161   5.515  11.474  0.1423  0.0552  0.2466
   74CGG   SI88 8740   9.222   4.901  11.416  0.4512 -0.2143 -0.2202
   74CGG   SI89 8741   8.883   5.111  11.897  0.3278 -0.4906 -0.2244
   74CGG   SI90 8742   8.917   4.825  11.883  0.0397  0.4131 -0.4413
   74CGG   SI91 8743   9.457   5.088  11.515  0.1979 -0.0055 -0.1832
   74CGG   SI92 8744   9.416   5.384  11.535 -0.2692 -0.1249 -0.4134
   75CGG    AL1 8745   8.552   7.224  11.776  0.0114 -0.0342  0.0819
   75CGG    AL2 8746   8.393   6.460  11.634  0.4311  0.4467  0.2736
   75CGG    AL3 8747   8.362   6.757  11.661  0.3192 -0.0470 -0.1397
   75CGG    AL4 8748   8.589   6.930  11.752 -0.6133  0.1034 -0.1749
   75CGG   AL41 8749   8.653   6.337  11.695  0.1794  0.1462  0.1060
   75CGG   AL42 8750   8.497   5.570  11.558  0.2940  0.0956 -0.0320
   75CGG   AL43 8751   8.461   5.866  11.585 -0.0208 -0.1288  0.4232
   75CGG   AL44 8752   8.688   6.038  11.667 -0.2848  0.0422 -0.4068
   75CGG   AL81 8753   8.753   5.440  11.617  0.1084 -0.3954 -0.3614
   75CGG   AL82 8754   8.602   4.686  11.475 -0.1984  0.2835  0.1403
   75CGG   AL83 8755   8.552   4.979  11.495 -0.1219 -0.3463 -0.1827
   75CGG   AL84 8756   8.790   5.148  11.587 -0.2112 -0.1239 -0.5586
   75CGG    SI5 8757   8.486   6.444  11.946 -0.6624  0.2141  0.3690
   75CGG    SI6 8758   8.420   7.048  11.998 -0.0983  0.8300 -0.0551
   75CGG    SI7 8759   8.458   7.260  11.469 -0.0171 -0.5700 -0.1909
   75CGG    SI8 8760   8.526   6.657  11.420  0.0875  0.4454 -0.2730
   75CGG    SI9 8761   8.190   6.865  11.900 -0.0242 -0.0659 -0.3338
   75CGG   SI10 8762   8.227   6.570  11.881 -0.1550  0.3529 -0.0037
   75CGG   SI11 8763   8.759   6.829  11.510 -0.0632 -0.4108  0.1849
   75CGG   SI12 8764   8.716   7.126  11.526 -0.1684 -0.0503  0.1663
   75CGG   SI45 8765   8.595   5.543  11.872  0.0171  0.1003 -0.3682
   75CGG   SI46 8766   8.522   6.151  11.923  0.1751  0.2884 -0.4220
   75CGG   SI47 8767   8.572   6.364  11.381 -0.1185  0.1089  0.3440
   75CGG   SI48 8768   8.626   5.770  11.338  0.2124  0.0276 -0.2842
   75CGG   SI49 8769   8.287   5.970  11.825 -0.0034  0.0491 -0.1519
   75CGG   SI50 8770   8.332   5.675  11.807 -0.0597 -0.2643 -0.0986
   75CGG   SI51 8771   8.865   5.936  11.432 -0.2891 -0.1412  0.0262
   75CGG   SI52 8772   8.829   6.225  11.456  0.0644 -0.2334  0.0160
   75CGG   SI85 8773   8.692   4.662  11.784  0.3366  0.1778 -0.1463
   75CGG   SI86 8774   8.629   5.250  11.839  0.5252  0.1306 -0.1171
   75CGG   SI87 8775   8.673   5.475  11.312 -0.1095 -0.0379  0.2974
   75CGG   SI88 8776   8.732   4.869  11.257  0.2262  0.2769  0.3795
   75CGG   SI89 8777   8.388   5.082  11.740  0.2133  0.0011 -0.1932
   75CGG   SI90 8778   8.427   4.790  11.712 -0.1182 -0.1503 -0.2452
   75CGG   SI91 8779   8.965   5.043  11.356 -0.3695 -0.1335 -0.3495
   75CGG   SI92 8780   8.938   5.344  11.376  0.5137  0.2295 -0.4640
   76CGG    AL1 8781   8.060   7.180  11.625 -0.2043  0.2686  0.2156
   76CGG    AL2 8782   7.899   6.423  11.480  0.1837 -0.2102  0.0873
   76CGG    AL3 8783   7.869   6.722  11.506  0.2659 -0.1953  0.1946
   76CGG    AL4 8784   8.095   6.890  11.594 -0.3060  0.0680 -0.5748
   76CGG   AL41 8785   8.168   6.291  11.533 -0.0995  0.4144 -0.2204
   76CGG   AL42 8786   8.003   5.542  11.397  0.0186 -0.2409 -0.0854
   76CGG   AL43 8787   7.973   5.826  11.426 -0.0088  0.1098  0.0662
   76CGG   AL44 8788   8.204   6.002  11.516  0.0963  0.3364 -0.1025
   76CGG   AL81 8789   8.268   5.408  11.460  0.1922 -0.0231 -0.7658
   76CGG   AL82 8790   8.116   4.638  11.308 -0.0017 -0.0595 -0.2363
   76CGG   AL83 8791   8.081   4.935  11.328  0.1328 -0.0001 -0.0241
   76CGG   AL84 8792   8.304   5.108  11.428 -0.4836 -0.4293  0.1197
   76CGG    SI5 8793   7.997   6.393  11.781  0.2476 -0.1785 -0.2570
   76CGG    SI6 8794   7.927   6.985  11.850  0.1338  0.2276  0.0642
   76CGG    SI7 8795   7.966   7.218  11.319  0.1126  0.1686 -0.1535
   76CGG    SI8 8796   8.032   6.618  11.258 -0.2987  0.0953  0.1452
   76CGG    SI9 8797   7.696   6.816  11.756 -0.6419  0.0807  0.0157
   76CGG   SI10 8798   7.734   6.525  11.725 -0.0913 -0.1797 -0.0280
   76CGG   SI11 8799   8.270   6.790  11.357 -0.2049 -0.2823  0.3569
   76CGG   SI12 8800   8.229   7.081  11.378  0.0150 -0.2907 -0.1856
   76CGG   SI45 8801   8.096   5.501  11.710  0.1098  0.2356 -0.0056
   76CGG   SI46 8802   8.025   6.100  11.761  0.2619  0.0671  0.3160
   76CGG   SI47 8803   8.068   6.323  11.231  0.3421  0.2513  0.2163
   76CGG   SI48 8804   8.139   5.729  11.166 -0.0336 -0.0700 -0.3022
   76CGG   SI49 8805   7.788   5.918  11.667 -0.5303 -0.2949 -0.0974
   76CGG   SI50 8806   7.832   5.634  11.642  0.0412 -0.2706  0.0531
   76CGG   SI51 8807   8.373   5.902  11.270 -0.2445  0.1798 -0.0357
   76CGG   SI52 8808   8.331   6.188  11.289 -0.0067 -0.2352  0.0268
   76CGG   SI85 8809   8.198   4.607  11.618  0.1375 -0.5889  0.0346
   76CGG   SI86 8810   8.135   5.208  11.675  0.2513  0.3301  0.2398
   76CGG   SI87 8811   8.180   5.431  11.159  0.4070  0.1597 -0.0251
   76CGG   SI88 8812   8.242   4.826  11.084  0.0552 -0.9223 -0.4741
   76CGG   SI89 8813   7.899   5.030  11.576 -0.2892 -0.0927 -0.1143
   76CGG   SI90 8814   7.945   4.746  11.551  0.3561  0.6473  0.2350
   76CGG   SI91 8815   8.480   5.011  11.184  0.0032  0.2830  0.5631
   76CGG   SI92 8816   8.437   5.305  11.210 -0.3525  0.0405  0.3303
   77CGG    AL1 8817   7.566   7.141  11.480  0.0451 -0.0954  0.2215
   77CGG    AL2 8818   7.402   6.377  11.331  0.4259 -0.0217  0.2049
   77CGG    AL3 8819   7.376   6.677  11.363  0.1470  0.6539  0.5999
   77CGG    AL4 8820   7.605   6.854  11.447  0.0579 -0.1996 -0.4697
   77CGG   AL41 8821   7.678   6.251  11.388  0.0017 -0.3135 -0.1785
   77CGG   AL42 8822   7.509   5.488  11.254  0.3894 -0.0784 -0.0645
   77CGG   AL43 8823   7.468   5.792  11.277 -0.1413 -0.2435  0.2630
   77CGG   AL44 8824   7.701   5.963  11.359 -0.5147 -0.1266 -0.3240
   77CGG   AL81 8825   7.784   5.359  11.301 -0.5591  0.4356 -0.0837
   77CGG   AL82 8826   7.623   4.608  11.140 -0.0067  0.2786  0.4680
   77CGG   AL83 8827   7.587   4.893  11.169 -0.1610  0.0663 -0.1390
   77CGG   AL84 8828   7.808   5.065  11.269 -0.4503  0.4369 -0.4228
   77CGG    SI5 8829   7.515   6.351  11.638  0.1736  0.3228 -0.2506
   77CGG    SI6 8830   7.438   6.944  11.697 -0.0284 -0.2823  0.2052
   77CGG    SI7 8831   7.473   7.181  11.173 -0.2853 -0.0129 -0.4065
   77CGG    SI8 8832   7.541   6.578  11.113  0.4252  0.0992 -0.3538
   77CGG    SI9 8833   7.199   6.773  11.604  0.5726  0.3027  0.1310
   77CGG   SI10 8834   7.244   6.476  11.581  0.2376  0.0851 -0.2551
   77CGG   SI11 8835   7.777   6.761  11.207  0.0681  0.0031  0.3436
   77CGG   SI12 8836   7.738   7.049  11.229  0.3692 -0.2915  0.0688
   77CGG   SI45 8837   7.604   5.455  11.551 -0.4894 -0.8166 -0.3994
   77CGG   SI46 8838   7.535   6.061  11.609 -0.0759  0.1967 -0.0318
   77CGG   SI47 8839   7.572   6.285  11.086  0.0866 -0.1165  0.0531
   77CGG   SI48 8840   7.639   5.684  11.028  0.0409 -0.0291 -0.0455
   77CGG   SI49 8841   7.296   5.890  11.525  0.3111 -0.0647 -0.0386
   77CGG   SI50 8842   7.348   5.596  11.495 -0.0996  0.4157 -0.0985
   77CGG   SI51 8843   7.878   5.859  11.120  0.2804 -0.1598  0.3495
   77CGG   SI52 8844   7.843   6.154  11.141  0.2427 -0.2978 -0.3667
   77CGG   SI85 8845   7.735   4.568  11.439 -0.1872 -0.4232 -0.1129
   77CGG   SI86 8846   7.648   5.168  11.520  0.3723  0.0369 -0.2065
   77CGG   SI87 8847   7.683   5.394  11.000  0.0234  0.7291  0.0554
   77CGG   SI88 8848   7.755   4.808  10.922 -0.0046  0.4468  0.1111
   77CGG   SI89 8849   7.411   4.989  11.415 -0.0720  0.3027 -0.2914
   77CGG   SI90 8850   7.463   4.698  11.390  0.0829  0.4920 -0.1101
   77CGG   SI91 8851   7.989   4.969  11.030 -0.4076 -0.1569  0.3426
   77CGG   SI92 8852   7.945   5.264  11.059 -0.2787  0.0318  0.2618
   78CGG    AL1 8853   7.076   7.098  11.335 -0.3356  0.2430 -0.0900
   78CGG    AL2 8854   6.906   6.336  11.172 -0.0181 -0.3070  0.3860
   78CGG    AL3 8855   6.880   6.637  11.201 -0.0342 -0.0841  0.3030
   78CGG    AL4 8856   7.113   6.797  11.297 -0.0171  0.2686 -0.1667
   78CGG   AL41 8857   7.178   6.198  11.235  0.0269  0.3803 -0.3622
   78CGG   AL42 8858   7.014   5.455  11.084  0.1211 -0.0644  0.2226
   78CGG   AL43 8859   6.982   5.743  11.111  0.7510 -0.5274 -0.0865
   78CGG   AL44 8860   7.211   5.908  11.213 -0.0899  0.0902 -0.0659
   78CGG   AL81 8861   7.278   5.312  11.141 -0.1259 -0.0099  0.6102
   78CGG   AL82 8862   7.133   4.564  11.000 -0.0304 -0.3141  0.1560
   78CGG   AL83 8863   7.088   4.860  11.018 -0.1044  0.1980  0.0247
   78CGG   AL84 8864   7.320   5.027  11.112  0.1336 -0.3006  0.3068
   78CGG    SI5 8865   7.004   6.308  11.478  0.2449  0.4253 -0.6703
   78CGG    SI6 8866   6.944   6.904  11.547  0.2029 -0.3617  0.1854
   78CGG    SI7 8867   6.979   7.128  11.016 -0.4898  0.1155 -0.3578
   78CGG    SI8 8868   7.044   6.531  10.951  0.1654  0.2297 -0.0954
   78CGG    SI9 8869   6.702   6.727  11.450 -0.3050  0.4106  0.1679
   78CGG   SI10 8870   6.752   6.439  11.418  0.3412 -0.1121 -0.4119
   78CGG   SI11 8871   7.280   6.707  11.054 -0.3334  0.1383 -0.0907
   78CGG   SI12 8872   7.245   7.002  11.088  0.0540  0.3181  0.3255
   78CGG   SI45 8873   7.114   5.420  11.392  0.1786  0.3584  0.1048
   78CGG   SI46 8874   7.039   6.012  11.453  0.3233 -0.3807  0.3992
   78CGG   SI47 8875   7.076   6.233  10.927 -0.3107 -0.2859 -0.1793
   78CGG   SI48 8876   7.146   5.644  10.864  0.2923 -0.4920 -0.0357
   78CGG   SI49 8877   6.805   5.843  11.360 -0.0374  0.2106  0.0809
   78CGG   SI50 8878   6.846   5.559  11.332  0.1630  0.0820 -0.6604
   78CGG   SI51 8879   7.382   5.811  10.964  0.0271  0.2618  0.1003
   78CGG   SI52 8880   7.338   6.103  10.985 -0.3120 -0.6183 -0.1436
   78CGG   SI85 8881   7.230   4.528  11.300 -0.2366  0.5711 -0.2982
   78CGG   SI86 8882   7.153   5.122  11.361  0.7103 -0.4127  0.3211
   78CGG   SI87 8883   7.188   5.347  10.833  0.6004 -0.2506 -0.4781
   78CGG   SI88 8884   7.252   4.759  10.773  0.1023  0.7027  0.1442
   78CGG   SI89 8885   6.920   4.952  11.258 -0.2224 -0.4747  0.0231
   78CGG   SI90 8886   6.967   4.659  11.242  0.1737  0.7911 -0.2759
   78CGG   SI91 8887   7.492   4.931  10.866  0.1094 -0.4928  0.1431
   78CGG   SI92 8888   7.446   5.222  10.892 -0.1126 -0.5742  0.3248
   79CGG    AL1 8889   6.584   7.066  11.171 -0.1547  0.1274 -0.6203
   79CGG    AL2 8890   6.413   6.294  11.028 -0.2501 -0.0915  0.1496
   79CGG    AL3 8891   6.382   6.598  11.041  0.1052  0.1855  0.1121
   79CGG    AL4 8892   6.614   6.764  11.138 -0.5344  0.1703  0.1591
   79CGG   AL41 8893   6.682   6.155  11.076  0.0504 -0.0504 -0.2897
   79CGG   AL42 8894   6.526   5.409  10.932 -0.1997 -0.1019  0.1732
   79CGG   AL43 8895   6.491   5.704  10.961 -0.1266  0.6523 -0.2541
   79CGG   AL44 8896   6.720   5.881  11.054  0.2356 -0.2521 -0.0836
   79CGG   AL81 8897   6.790   5.278  10.988 -0.0802  0.6830  0.3561
   79CGG   AL82 8898   6.644   4.518  10.859  0.2540 -0.4146 -0.6316
   79CGG   AL83 8899   6.595   4.804  10.875 -0.5157  0.0434 -0.2089
   79CGG   AL84 8900   6.823   4.986  10.955  0.1349  0.0660 -0.2385
   79CGG    SI5 8901   6.526   6.274  11.330  0.0193 -0.1372  0.2165
   79CGG    SI6 8902   6.450   6.867  11.384 -0.2770 -0.2562 -0.5007
   79CGG    SI7 8903   6.487   7.095  10.870 -0.2521 -0.3661 -0.2208
   79CGG    SI8 8904   6.550   6.486  10.803 -0.0023  0.3790  0.3461
   79CGG    SI9 8905   6.223   6.690  11.295  0.2320 -0.4831 -0.0033
   79CGG   SI10 8906   6.264   6.406  11.273  0.0516  0.1419 -0.4399
   79CGG   SI11 8907   6.788   6.664  10.891 -0.0753  0.3367 -0.2989
   79CGG   SI12 8908   6.751   6.959  10.933 -0.0052 -0.4084  0.4708
   79CGG   SI45 8909   6.628   5.383  11.242 -0.1268  0.2532  0.6119
   79CGG   SI46 8910   6.550   5.982  11.305  0.1568  0.7594  0.2838
   79CGG   SI47 8911   6.589   6.195  10.781  0.3328  0.4308  0.2040
   79CGG   SI48 8912   6.659   5.596  10.712 -0.2157 -0.1023  0.3419
   79CGG   SI49 8913   6.319   5.803  11.215 -0.2918  0.0891 -0.2015
   79CGG   SI50 8914   6.365   5.513  11.190 -0.3482  0.0708  0.0858
   79CGG   SI51 8915   6.888   5.775  10.811 -0.3154 -0.0683 -0.1559
   79CGG   SI52 8916   6.855   6.062  10.836 -0.2858  0.1832 -0.0920
   79CGG   SI85 8917   6.731   4.492  11.163 -0.2712 -0.2241 -0.1262
   79CGG   SI86 8918   6.669   5.084  11.210 -0.3237 -0.2931 -0.1481
   79CGG   SI87 8919   6.697   5.303  10.682  0.8378  0.1714  0.0842
   79CGG   SI88 8920   6.771   4.707  10.632 -0.1039 -0.4087  0.6379
   79CGG   SI89 8921   6.431   4.914  11.127  0.1375 -0.2654  0.1855
   79CGG   SI90 8922   6.473   4.623  11.107 -0.0764  0.2145 -0.3692
   79CGG   SI91 8923   6.994   4.890  10.714 -0.1779  0.0604 -0.0113
   79CGG   SI92 8924   6.956   5.178  10.738 -0.2799 -0.0293  0.0344
   80CGG    AL1 8925   6.088   7.020  11.015 -0.1370 -0.1444 -0.2134
   80CGG    AL2 8926   5.930   6.264  10.876  0.1576  0.2116 -0.2071
   80CGG    AL3 8927   5.906   6.548  10.899 -0.0453  0.0519 -0.3613
   80CGG    AL4 8928   6.133   6.720  10.988 -0.1942 -0.8573 -0.5314
   80CGG   AL41 8929   6.186   6.123  10.931  0.0717  0.0525  0.2211
   80CGG   AL42 8930   6.027   5.352  10.791 -0.0830 -0.4292 -0.1288
   80CGG   AL43 8931   6.005   5.664  10.826  0.0211  0.0750  0.1881
   80CGG   AL44 8932   6.228   5.832  10.912 -0.2223  0.1893  0.4029
   80CGG   AL81 8933   6.306   5.223  10.844  0.2858 -0.3484  0.3824
   80CGG   AL82 8934   6.152   4.449  10.734  0.4791  0.1082 -0.5422
   80CGG   AL83 8935   6.107   4.749  10.732  0.1709  0.0377 -0.0796
   80CGG   AL84 8936   6.338   4.928  10.823 -0.0258 -0.2148  0.0587
   80CGG    SI5 8937   6.032   6.222  11.179 -0.1796 -0.2762 -0.4537
   80CGG    SI6 8938   5.961   6.819  11.228 -0.6651  0.2109  0.1357
   80CGG    SI7 8939   5.996   7.062  10.716  0.0656  0.1648 -0.2504
   80CGG    SI8 8940   6.065   6.453  10.646  0.2270 -0.0651  0.0210
   80CGG    SI9 8941   5.733   6.640  11.143  0.1045 -0.0830 -0.1938
   80CGG   SI10 8942   5.775   6.354  11.124 -0.0396  0.7241 -0.4668
   80CGG   SI11 8943   6.295   6.631  10.735  0.1206  0.0503 -0.1541
   80CGG   SI12 8944   6.256   6.928  10.779 -0.0487  0.6043  0.4172
   80CGG   SI45 8945   6.133   5.329  11.094  0.2020 -0.7482  0.0009
   80CGG   SI46 8946   6.063   5.935  11.156 -0.2554  0.4928  0.0633
   80CGG   SI47 8947   6.089   6.154  10.631  0.1711 -0.0018 -0.1094
   80CGG   SI48 8948   6.156   5.556  10.575  0.6450  0.0479  0.1369
   80CGG   SI49 8949   5.824   5.761  11.065  0.5034 -0.2463  0.7944
   80CGG   SI50 8950   5.867   5.467  11.042 -0.4299  0.0726  0.0695
   80CGG   SI51 8951   6.391   5.728  10.656  0.1011 -0.2832 -0.4676
   80CGG   SI52 8952   6.351   6.022  10.682 -0.1414 -0.1553 -0.2923
   80CGG   SI85 8953   6.233   4.444  11.040 -0.1691  0.0382  0.3031
   80CGG   SI86 8954   6.168   5.040  11.072 -0.2904 -0.0721 -0.0649
   80CGG   SI87 8955   6.198   5.270  10.543  0.2898  0.0866 -0.0491
   80CGG   SI88 8956   6.276   4.637  10.497  0.3246  0.1609  0.4363
   80CGG   SI89 8957   5.930   4.866  10.960  0.1327  0.2649 -0.5769
   80CGG   SI90 8958   5.971   4.562  10.959  0.0245 -0.2697  0.0114
   80CGG   SI91 8959   6.508   4.831  10.572 -0.1177 -0.2968  0.3794
   80CGG   SI92 8960   6.451   5.125  10.592  0.1854 -0.1975  0.0059
  161NAA     NA 8961  13.590  13.888  15.088 -0.3303  0.1662 -0.0164
  162NAA     NA 8962  14.764  13.862  14.120  0.4528  0.0261 -0.1482
  163NAA     NA 8963  13.959  15.595  14.072 -0.4840  0.2707  0.0782
  164NAA     NA 8964  13.936  14.239  13.921  0.1102  0.2201  0.3314
  165NAA     NA 8965  13.710  15.192  15.363 -0.6314 -0.2045 -0.0271
  166NAA     NA 8966  13.365  12.812  13.476 -0.1428  0.0318 -0.1860
  167NAA     NA 8967  12.711  15.128  14.953  0.5428 -0.1002  0.2469
  168NAA     NA 8968  12.678  13.683  13.354 -0.1231 -0.2270  0.0075
  169NAA     NA 8969  11.773  15.065  14.633  0.1949 -0.2011 -0.0020
  170NAA     NA 8970  12.605  13.845  14.743  0.3459 -0.1627 -0.1984
  171NAA     NA 8971  12.365  14.936  13.410 -0.2844 -0.0988  0.3064
  172NAA     NA 8972  10.716  13.684  14.073 -0.3913 -0.1729 -0.0072
  173NAA     NA 8973  11.667  13.777  14.399 -0.1645 -0.0522 -0.4109
  174NAA     NA 8974  11.381  14.872  13.111 -0.2683 -0.0086  0.5145
  175NAA     NA 8975  10.953  14.041  12.811 -0.0231 -0.5072  0.3917
  176NAA     NA 8976  11.279  13.530  12.843  0.0975 -0.0875  0.2385
  177NAA     NA 8977  10.775  14.987  14.301 -0.1469 -0.3045  0.0419
  178NAA     NA 8978   9.988  13.937  12.520 -0.3019 -0.1802 -0.0760
  179NAA     NA 8979   9.817  14.929  13.981 -0.1144 -0.1154 -0.2208
  180NAA     NA 8980   9.366  13.400  12.214 -0.0670 -0.0608 -0.0573
  181NAA     NA 8981   8.851  14.815  13.648 -0.1150  0.2464  0.1295
  182NAA     NA 8982   9.765  13.582  13.710 -0.1858  0.0760 -0.0320
  183NAA     NA 8983   9.393  14.771  12.434 -0.0035  0.1793  0.0127
  184NAA     NA 8984   8.775  13.477  13.415 -0.1397 -0.0726 -0.3461
  185NAA     NA 8985   7.788  13.416  13.087  0.3029  0.0485  0.1412
  186NAA     NA 8986   8.785  14.227  12.141  0.2797  0.2104  0.0041
  187NAA     NA 8987   8.038  13.791  11.864  0.0565  0.2251 -0.0374
  188NAA     NA 8988   8.219  12.768  11.734  0.0989 -0.6392  0.0539
  189NAA     NA 8989   7.842  14.709  13.334 -0.0246 -0.0522 -0.0636
  190NAA     NA 8990   7.265  14.111  11.661  0.2831 -0.1717 -0.1838
  191NAA     NA 8991   6.887  14.716  13.027 -0.1824 -0.0097 -0.1239
  192NAA     NA 8992   6.544  13.598  11.386 -0.2879 -0.1547 -0.1639
  193NAA     NA 8993   5.907  14.547  12.710 -0.0544  0.7494  0.2868
  194NAA     NA 8994   5.821  13.173  12.470  0.0903 -0.1303  0.0902
  195NAA     NA 8995   6.477  14.446  11.483 -0.0515  0.0397 -0.2450
  196NAA     NA 8996   5.255  11.785  12.166  0.0999 -0.0619  0.7748
  197NAA     NA 8997   5.225  14.085  12.440 -0.2051  0.1718 -0.1189
  198NAA     NA 8998   5.627  13.487  11.090 -0.2142 -0.0534  0.2397
  199NAA     NA 8999   4.708  14.747  11.495 -0.0185 -0.3678  0.0696
  200NAA     NA 9000   4.823  13.105  11.465  0.2457  0.0048  0.3270
  201NAA     NA 9001  15.402  12.863  13.529  0.3529  0.3099  0.0601
  202NAA     NA 9002  15.021  11.129  13.817  0.0338  0.5397  0.1980
  203NAA     NA 9003  14.032  12.409  13.625  0.1180  0.2751  0.3097
  204NAA     NA 9004  14.239  11.585  13.620 -0.0037  0.0685 -0.1443
  205NAA     NA 9005  14.015  12.556  15.075  0.2478 -0.0966  0.1338
  206NAA     NA 9006  13.209  10.124  13.035 -0.0983  0.0671  0.1656
  207NAA     NA 9007  13.025  12.463  14.658  0.3734 -0.4857 -0.3941
  208NAA     NA 9008  13.070  10.984  13.078 -0.2016 -0.1716  0.0180
  209NAA     NA 9009  12.049  12.436  14.328  0.1064  0.4038  0.0995
  210NAA     NA 9010  12.944  11.123  14.444  0.0164  0.1946  0.0820
  211NAA     NA 9011  12.370  12.708  13.130  0.2081  0.0022  0.1996
  212NAA     NA 9012  11.993  11.039  14.121  0.0666 -0.1237  0.0387
  213NAA     NA 9013  11.098  12.287  13.974  0.0701  0.0167 -0.0284
  214NAA     NA 9014  12.477  11.801  13.034  0.1264 -0.2489  0.0170
  215NAA     NA 9015  11.214  12.198  12.616  0.1299  0.2038  0.1113
  216NAA     NA 9016  11.795  11.363  12.692  0.0374  0.3020  0.1660
  217NAA     NA 9017  10.049  10.904  13.387  0.3687 -0.0454 -0.1038
  218NAA     NA 9018  10.875  11.289  12.399 -0.3058 -0.0302  0.1477
  219NAA     NA 9019  10.151  12.243  13.649  0.4978  0.1217 -0.6303
  220NAA     NA 9020  10.306  11.202  12.196 -0.4210 -0.2147  0.1380
  221NAA     NA 9021   9.165  12.166  13.318 -0.0784  0.1022 -0.0537
  222NAA     NA 9022   9.054  10.806  13.113  0.1492  0.1974 -0.2805
  223NAA     NA 9023   9.722  12.012  12.117 -0.4637  0.0074  0.1227
  224NAA     NA 9024   8.100  10.744  12.804 -0.4994  0.4194  0.0781
  225NAA     NA 9025   8.176  12.073  12.989  0.1924  0.2770  0.0245
  226NAA     NA 9026   9.394  11.139  11.896 -0.2295  0.0237  0.0071
  227NAA     NA 9027   8.209  11.976  11.644 -0.2245 -0.1436 -0.1447
  228NAA     NA 9028   8.733   9.742  11.483 -0.2174 -0.3348  0.0308
  229NAA     NA 9029   6.845  13.344  12.797  0.0046  0.0750  0.0763
  230NAA     NA 9030   8.408  11.112  11.574 -0.2070 -0.0918  0.1558
  231NAA     NA 9031   7.221  12.047  12.729 -0.2565 -0.1759  0.0582
  232NAA     NA 9032   6.835  10.936  11.106  0.5042 -0.0681  0.0665
  233NAA     NA 9033   6.210  11.920  12.396 -0.2348 -0.1024 -0.2001
  234NAA     NA 9034   6.117  10.620  12.208 -0.2692  0.1094  0.3109
  235NAA     NA 9035   6.806  11.833  11.209 -0.3905  0.3462 -0.2668
  236NAA     NA 9036   5.663   9.121  11.896 -0.1746  0.1292 -0.3505
  237NAA     NA 9037   7.139  10.617  12.493 -0.0454 -0.3777  0.0092
  238NAA     NA 9038   5.660  11.181  10.766  0.1747 -0.1295  0.1368
  239NAA     NA 9039   5.532  12.142  10.878  0.2828 -0.2419  0.5063
  240NAA     NA 9040   5.135  10.461  11.161 -0.1074 -0.2142  0.0713
  241NAA     NA 9041  13.929  11.225  14.829  0.0472  0.0228  0.1716
  242NAA     NA 9042  14.230   8.562  14.530  0.0682 -0.0892 -0.0653
  243NAA     NA 9043  14.198  10.190  13.398 -0.1407  0.0136  0.2461
  244NAA     NA 9044  15.283   8.442  13.513 -0.0218  0.0721  0.0651
  245NAA     NA 9045  14.336   9.843  14.822 -0.0117 -0.0358 -0.0395
  246NAA     NA 9046  14.284   8.401  13.160  0.0462  0.0131 -0.0720
  247NAA     NA 9047  13.346   9.807  14.443  0.0370 -0.3511  0.2203
  248NAA     NA 9048  13.617   8.843  13.009  0.4244 -0.0328 -0.2471
  249NAA     NA 9049  12.390   9.736  14.027  0.4339  0.2556  0.0033
  250NAA     NA 9050  12.356   8.447  13.870  0.2760 -0.1304  0.2850
  251NAA     NA 9051  13.043   9.620  12.876 -0.1889  0.4038  0.0314
  252NAA     NA 9052  11.750   6.953  13.421  0.1557  0.1441 -0.1511
  253NAA     NA 9053  11.429   9.642  13.683 -0.1960 -0.1978 -0.2155
  254NAA     NA 9054  12.645   8.754  12.631 -0.2882 -0.2015 -0.3981
  255NAA     NA 9055  11.476   9.542  12.358 -0.3021  0.1718  0.0180
  256NAA     NA 9056  11.685   8.632  12.288  0.1423 -0.0098 -0.0065
  257NAA     NA 9057  11.041  10.945  13.747  0.3657  0.2720 -0.2383
  258NAA     NA 9058  11.145   8.579  12.122  0.0683 -0.0393 -0.0148
  259NAA     NA 9059  10.466   9.581  13.325 -0.1918  0.2031  0.1231
  260NAA     NA 9060  10.660   8.553  11.930  0.1677 -0.0495  0.0980
  261NAA     NA 9061   9.508   9.470  13.032  0.5168 -0.4024 -0.2588
  262NAA     NA 9062  11.333   8.337  13.447 -0.2682  0.0867  0.0955
  263NAA     NA 9063  10.102   9.409  11.873 -0.2778 -0.0369  0.0077
  264NAA     NA 9064   9.399   8.130  12.808 -0.1440 -0.0005  0.0135
  265NAA     NA 9065   8.549   9.391  12.741 -0.1318  0.0575 -0.1367
  266NAA     NA 9066   9.682   8.542  11.618  0.0375  0.1175  0.0476
  267NAA     NA 9067   8.127   9.209  11.217 -0.3866  0.3199 -0.1584
  268NAA     NA 9068   8.748   8.418  11.314 -0.1148  0.1334 -0.3039
  269NAA     NA 9069   7.549   9.312  12.419 -0.1053 -0.1570  0.0769
  270NAA     NA 9070   8.536   7.889  11.168  0.1402  0.6541 -0.1885
  271NAA     NA 9071   8.435   8.064  12.483  0.0566  0.0760  0.0302
  272NAA     NA 9072   6.795   8.286  10.704  0.1147  0.2856 -0.0919
  273NAA     NA 9073   6.593   9.245  12.111 -0.1995 -0.1981 -0.1546
  274NAA     NA 9074   7.489   7.976  12.204  0.0792 -0.3047  0.1350
  275NAA     NA 9075   7.758   8.365  10.997 -0.1617 -0.0857  0.2657
  276NAA     NA 9076   6.477   7.834  11.920 -0.5520  0.1824 -0.5000
  277NAA     NA 9077   5.405   9.403  10.862 -0.1638 -0.0925 -0.0752
  278NAA     NA 9078   6.220   8.149  10.542 -0.0083  0.1336 -0.5982
  279NAA     NA 9079   6.184   9.072  10.621 -0.0029 -0.0289 -0.0792
  280NAA     NA 9080   5.362   7.853  10.973  0.1285  0.0846 -0.0408
  281NAA     NA 9081  14.654   7.208  14.524 -0.1197 -0.3572  0.0643
  282NAA     NA 9082  14.565   5.868  14.261 -0.0627  0.4372  0.0712
  283NAA     NA 9083  14.879   7.562  13.224  0.3032  0.3167  0.0492
  284NAA     NA 9084  15.024   6.585  13.183 -0.1064  0.2893 -0.0278
  285NAA     NA 9085  13.648   7.179  14.181 -0.2121  0.2427 -0.0339
  286NAA     NA 9086  14.653   5.687  12.897  0.2723  0.3826  0.2290
  287NAA     NA 9087  13.278   8.429  14.185  0.2442 -0.1161 -0.1670
  288NAA     NA 9088  13.701   5.649  12.544  0.2907  0.0168 -0.1367
  289NAA     NA 9089  12.680   7.089  13.777  0.1848 -0.1399  0.5021
  290NAA     NA 9090  13.581   5.821  13.909  0.3529  0.4963 -0.1051
  291NAA     NA 9091  13.346   6.943  12.636 -0.2651  0.0663  0.3678
  292NAA     NA 9092  11.682   5.614  13.233 -0.0476 -0.0123  0.2215
  293NAA     NA 9093  12.587   5.735  13.542 -0.0419  0.3799  0.1138
  294NAA     NA 9094  12.819   6.158  12.301  0.0701  0.0708  0.4687
  295NAA     NA 9095  11.812   6.891  12.082 -0.2790 -0.2535  0.6076
  296NAA     NA 9096  11.794   5.446  11.829  0.1856  0.1346  0.2640
  297NAA     NA 9097  10.396   8.235  13.159  0.0153  0.2777  0.1322
  298NAA     NA 9098  11.930   5.966  11.989 -0.2687 -0.2880 -0.1911
  299NAA     NA 9099  10.803   6.875  13.112  0.3446 -0.1885  0.1700
  300NAA     NA 9100  10.801   5.446  11.519  0.2964 -0.0813  0.1987
  301NAA     NA 9101  10.750   5.592  12.918 -0.1149 -0.0478  0.1595
  302NAA     NA 9102   9.686   5.441  12.594  0.3000  0.4071  0.1444
  303NAA     NA 9103  10.388   6.688  11.591 -0.3111  0.0210 -0.0411
  304NAA     NA 9104   8.753   5.356  12.290 -0.4467 -0.0263 -0.2277
  305NAA     NA 9105   8.853   6.750  12.438 -0.1271 -0.0407  0.3240
  306NAA     NA 9106  10.005   5.827  11.329 -0.1935  0.0316 -0.1552
  307NAA     NA 9107   8.498   6.567  10.995  0.1627 -0.5432 -0.1095
  308NAA     NA 9108   8.895   5.169  10.899  0.2903 -0.0437  0.0985
  309NAA     NA 9109   9.878   6.797  12.798 -0.3842  0.2590  0.3256
  310NAA     NA 9110   9.021   5.756  11.053 -0.0215  0.1646 -0.0804
  311NAA     NA 9111   7.860   6.619  12.164 -0.2413  0.0884  0.1155
  312NAA     NA 9112   7.876   5.114  10.617 -0.0547 -0.1599  0.1952
  313NAA     NA 9113   6.879   6.569  11.854  0.2801  0.0700  0.2028
  314NAA     NA 9114   7.737   5.305  11.937  0.5982  0.1575  0.3566
  315NAA     NA 9115   7.887   6.515  10.823 -0.1087  0.0235  0.0865
  316NAA     NA 9116   6.625   4.781  11.553  0.1268  0.0928 -0.0597
  317NAA     NA 9117   6.198   6.073  11.560 -0.1538 -0.1749  0.1432
  318NAA     NA 9118   7.274   5.999  10.534  0.0314 -0.0810 -0.3925
  319NAA     NA 9119   5.613   6.752  10.677 -0.1585  0.1702  0.0206
  320NAA     NA 9120   5.795   5.102  10.531  0.1433  0.2182 -0.0322
  321PEP     CB 9121  15.829   5.983  20.031 -0.3395 -0.1762  0.4096
  321PEP     CB 9122  15.903   5.999  19.595  0.0570 -0.2263  0.3679
  321PEP     CB 9123  15.934   5.777  19.284  0.0853  0.1663  0.0304
  321PEP     CB 9124  16.010   5.310  19.162  0.2003 -0.2243  0.0385
  321PEP     CB 9125  16.165   4.863  18.993  0.1654 -0.3294 -0.3235
  321PEP     CB 9126  16.424   4.663  18.816 -0.1923  0.3876  0.0280
  321PEP     CB 9127  16.774   4.448  18.751 -0.0219  0.0385 -0.1629
  321PEP     CB 9128  17.186   4.199  18.655  0.0185  0.2128 -0.1346
  321PEP     CB 9129  17.664   4.071  18.712  0.4121 -0.4627  0.1582
  321PEP     CB 9130  17.755   3.849  19.095 -0.0023 -0.0789 -0.2741
  321PEP     CB 9131  17.532   3.845  19.536 -0.1654 -0.2978 -0.1180
  321PEP     CB 9132  17.503   3.865  20.012  0.0653  0.1699  0.2538
  321PEP     CB 9133  17.519   3.730  20.357 -0.1227 -0.3327  0.2907
  321PEP     CB 9134  17.842   3.577  20.528 -0.0714 -0.1952  0.3413
  321PEP     CB 9135  18.291   3.582  20.408 -0.1316  0.3330 -0.0070
  321PEP     CB 9136  18.526   3.498  19.996 -0.0301  0.1005 -0.3563
  321PEP     CB 9137  18.472   3.464  19.495  0.4929  0.0322  0.5467
  321PEP     CB 9138  18.437   3.173  19.271 -0.2601 -0.0079 -0.0665
  321PEP     CB 9139  18.335   2.793  19.394 -0.2816 -0.3319 -0.0361
  321PEP     CB 9140  17.898   2.643  19.612  0.1324  0.3589  0.0838
  321PEP     CB 9141  17.524   2.812  19.918 -0.3589  0.1663  0.5906
  321PEP     CB 9142  17.053   3.007  19.977  0.2540  0.1730  0.2506
  321PEP     CB 9143  16.798   3.137  20.257 -0.2456 -0.1213  0.1997
  321PEP     CB 9144  16.647   3.151  20.699 -0.1069  0.2967 -0.2543
  321PEP     CB 9145  16.958   2.939  21.007 -0.1294 -0.3108 -0.2848
  321PEP     CB 9146  17.345   3.013  21.004  0.2169 -0.0337 -0.3464
  321PEP     CB 9147  17.651   3.182  20.743  0.4468 -0.1707 -0.2206
  321PEP     CB 9148  17.937   3.037  20.542 -0.0465  0.4111  0.1580
  321PEP     CB 9149  18.035   2.785  20.163  0.1701  0.3422  0.0201
  321PEP     CB 9150  18.330   2.759  19.860  0.0217  0.1319 -0.0018
  321PEP     CB 9151  18.649   3.077  19.806  0.0973  0.2797 -0.0936
  321PEP     CB 9152  19.061   3.236  19.823 -0.3230  0.3135 -0.3377
  321PEP     CB 9153  19.197   3.632  19.686  0.1285  0.0376  0.1353
  321PEP     CB 9154  18.920   3.965  19.501  0.1849  0.2792 -0.1916
  321PEP     CB 9155  18.585   3.875  19.147 -0.0789  0.2036  0.2000
  321PEP     CB 9156  18.419   3.634  18.743  0.0418  0.0835  0.0806
  321PEP     CB 9157  18.354   3.203  18.556 -0.0571 -0.3134  0.2867
  321PEP     CB 9158  18.322   2.796  18.277 -0.0324  0.2463 -0.1749
  321PEP     CB 9159  18.408   2.455  17.951 -0.0704  0.0095  0.1265
  321PEP     CB 9160  18.319   2.381  17.580  0.1266 -0.3872  0.3619
  322PEP     CB 9161   2.626  12.716   8.671 -0.1774 -0.3812 -0.1561
  322PEP     CB 9162   2.902  12.395   8.775 -0.0272  0.2693  0.0277
  322PEP     CB 9163   3.070  12.094   9.007 -0.0585  0.2478 -0.2877
  322PEP     CB 9164   2.999  11.824   9.313  0.4556 -0.1049  0.1586
  322PEP     CB 9165   3.081  11.671   9.700  0.0909  0.2303 -0.0934
  322PEP     CB 9166   2.993  11.363   9.851  0.1409  0.0414  0.0681
  322PEP     CB 9167   2.772  10.977   9.634 -0.1905 -0.1391 -0.0579
  322PEP     CB 9168   2.417  10.632   9.696  0.0061  0.4065  0.3652
  322PEP     CB 9169   1.955  10.528   9.821 -0.3091  0.0771  0.1793
  322PEP     CB 9170   1.865  10.879  10.050 -0.0932  0.1652  0.0593
  322PEP     CB 9171   2.300  11.180  10.040 -0.0111  0.2378  0.1944
  322PEP     CB 9172   2.476  11.385   9.711  0.2383  0.2959  0.3407
  322PEP     CB 9173   2.532  11.793   9.444 -0.1340  0.0626  0.6784
  322PEP     CB 9174   2.547  12.161   9.259  0.1903  0.2762 -0.0444
  322PEP     CB 9175   2.494  12.598   9.370  0.1148 -0.1745  0.0781
  322PEP     CB 9176   2.376  12.930   9.629  0.1259  0.2561 -0.1248
  322PEP     CB 9177   2.238  13.318   9.498 -0.0854  0.3255 -0.1943
  322PEP     CB 9178   1.944  13.241   9.139 -0.1080  0.1631 -0.0029
  322PEP     CB 9179   1.781  12.829   9.184 -0.1278  0.2379  0.2745
  322PEP     CB 9180   1.616  12.464   8.954 -0.1057  0.0145 -0.2178
  322PEP     CB 9181   1.190  12.400   8.759 -0.6995  0.0852 -0.1562
  322PEP     CB 9182   0.945  12.699   8.712  0.3602  0.2648  0.3939
  322PEP     CB 9183   0.829  12.857   8.213  0.0609  0.2598 -0.2496
  322PEP     CB 9184   1.026  12.603   7.893  0.1851  0.0715  0.2294
  322PEP     CB 9185   1.546  12.483   7.936  0.0201  0.2018 -0.0050
  322PEP     CB 9186   1.845  12.693   8.160  0.2108 -0.2030  0.4027
  322PEP     CB 9187   1.820  13.206   8.148 -0.0038  0.2363 -0.1481
  322PEP     CB 9188   1.754  13.611   8.018  0.2748  0.1821  0.1218
  322PEP     CB 9189   1.942  13.832   7.774  0.0489  0.0182 -0.3311
  322PEP     CB 9190   2.141  14.198   7.565  0.2792  0.1148 -0.1884
  322PEP     CB 9191   2.299  14.559   7.438  0.0291 -0.1700  0.4823
  322PEP     CB 9192   2.165  14.862   7.122  0.0996  0.2429 -0.5869
  322PEP     CB 9193   1.771  15.061   7.092  0.0786 -0.0960 -0.0210
  322PEP     CB 9194   1.399  15.055   7.388  0.5335  0.0834  0.4337
  322PEP     CB 9195   1.419  15.040   7.684 -0.0225  0.0689  0.2531
  322PEP     CB 9196   1.695  14.870   7.955 -0.1123 -0.6873  0.1136
  322PEP     CB 9197   1.901  15.022   8.258 -0.1682 -0.0495  0.0885
  322PEP     CB 9198   1.814  15.007   8.684 -0.1838 -0.1402 -0.0573
  322PEP     CB 9199   1.411  15.051   8.772 -0.0505 -0.1376 -0.0981
  322PEP     CB 9200   1.262  14.766   9.053  0.0028  0.2206 -0.1444
  323PEP     CB 9201   7.106  21.197   0.650 -0.0734  0.3302 -0.0128
  323PEP     CB 9202   6.648  21.162   0.814 -0.1318  0.1117 -0.1213
  323PEP     CB 9203   6.322  21.260   1.111 -0.1481  0.2202  0.4331
  323PEP     CB 9204   6.319  21.169   1.565  0.0429 -0.3684  0.1848
  323PEP     CB 9205   6.582  21.102   1.947  0.1954 -0.1945  0.2638
  323PEP     CB 9206   6.862  21.312   2.193  0.3899  0.1450 -0.1400
  323PEP     CB 9207   6.765  21.581   2.513 -0.0678 -0.0955  0.1599
  323PEP     CB 9208   6.382  21.823   2.597  0.1581 -0.2840 -0.1141
  323PEP     CB 9209   6.110  22.044   2.858  0.1511 -0.1362  0.2031
  323PEP     CB 9210   5.674  22.021   2.877  0.0608  0.0002 -0.0455
  323PEP     CB 9211   5.361  21.867   2.769 -0.2285  0.3281 -0.4159
  323PEP     CB 9212   5.346  21.607   2.417 -0.0216  0.2658 -0.2434
  323PEP     CB 9213   5.412  21.254   2.124  0.3918 -0.0506 -0.1028
  323PEP     CB 9214   5.580  21.175   1.627 -0.0941  0.3833 -0.3557
  323PEP     CB 9215   5.861  21.244   1.265  0.0160 -0.6396 -0.2542
  323PEP     CB 9216   5.912  21.077   0.881 -0.1989  0.0601  0.1978
  323PEP     CB 9217   6.179  20.938   0.750  0.3371 -0.5761  0.0605
  323PEP     CB 9218   6.484  20.685   0.458 -0.1450  0.2014  0.0297
  323PEP     CB 9219   6.581  20.661   0.025  0.0937 -0.2702 -0.0198
  323PEP     CB 9220   6.328  20.774  -0.342 -0.1496 -0.0791  0.0093
  323PEP     CB 9221   6.266  21.125  -0.636 -0.1281 -0.5594  0.1736
  323PEP     CB 9222   6.284  21.531  -0.734  0.0809  0.0937 -0.6280
  323PEP     CB 9223   6.309  21.963  -0.983  0.0918  0.0999  0.2345
  323PEP     CB 9224   6.435  22.340  -1.201 -0.4142 -0.4159 -0.2347
  323PEP     CB 9225   6.518  22.604  -1.554 -0.3271  0.2549  0.0567
  323PEP     CB 9226   6.609  22.652  -1.960  0.2112  0.2923 -0.2483
  323PEP     CB 9227   6.589  22.902  -2.316 -0.0681  0.3563 -0.5453
  323PEP     CB 9228   6.797  23.106  -2.535  0.1521  0.6034 -0.0734
  323PEP     CB 9229   7.271  23.307  -2.583 -0.0372  0.0725 -0.2448
  323PEP     CB 9230   7.593  23.045  -2.410  0.2624 -0.0602 -0.0713
  323PEP     CB 9231   7.675  22.795  -1.993 -0.1789  0.0205  0.0588
  323PEP     CB 9232   7.874  22.433  -1.768  0.0334  0.2327  0.2591
  323PEP     CB 9233   7.708  22.003  -1.711  0.2704 -0.4293 -0.1012
  323PEP     CB 9234   7.452  21.711  -1.886 -0.4001 -0.2123  0.2159
  323PEP     CB 9235   6.997  21.668  -1.997  0.0154  0.0397 -0.2318
  323PEP     CB 9236   6.626  21.963  -2.122  0.0323 -0.1918  0.3003
  323PEP     CB 9237   6.404  22.353  -2.262 -0.1072 -0.0776  0.0535
  323PEP     CB 9238   6.226  22.600  -2.497  0.3743  0.3467 -0.1991
  323PEP     CB 9239   5.764  22.638  -2.607  0.7077  0.1253 -0.2890
  323PEP     CB 9240   5.373  22.895  -2.843 -0.1104 -0.1940 -0.3883
  324PEP     CB 9241  10.678  19.536  19.196  0.2262  0.2769  0.2432
  324PEP     CB 9242  10.546  19.526  19.630  0.0080  0.1361 -0.0432
  324PEP     CB 9243  10.478  19.376  20.101  0.2323  0.1865  0.0383
  324PEP     CB 9244  10.309  19.222  20.478  0.2597 -0.0308 -0.0671
  324PEP     CB 9245  10.203  19.157  20.965  0.1543  0.0132  0.0769
  324PEP     CB 9246  10.266  19.079  21.396  0.0244  0.2731  0.1785
  324PEP     CB 9247  10.326  18.928  21.863 -0.0343 -0.3537 -0.3124
  324PEP     CB 9248  10.376  18.788  22.209  0.3174  0.1062 -0.0719
  324PEP     CB 9249  10.600  18.911  22.679  0.0272 -0.0355 -0.1852
  324PEP     CB 9250  10.720  19.375  22.761  0.3568  0.5167 -0.0399
  324PEP     CB 9251  10.935  19.725  22.820  0.2337  0.1198  0.0084
  324PEP     CB 9252  11.035  20.041  22.553 -0.3242 -0.1893 -0.0630
  324PEP     CB 9253  11.405  20.187  22.433 -0.1363 -0.1358  0.1473
  324PEP     CB 9254  11.686  20.278  21.959  0.1921 -0.2557  0.2300
  324PEP     CB 9255  11.556  20.312  21.612 -0.0532  0.1373  0.0388
  324PEP     CB 9256  11.188  20.277  21.404 -0.3668  0.4295 -0.0384
  324PEP     CB 9257  10.711  20.239  21.489 -0.0151 -0.0580  0.2284
  324PEP     CB 9258  10.375  20.192  21.678 -0.1032  0.3920 -0.1067
  324PEP     CB 9259  10.019  19.933  21.765 -0.2835  0.1124  0.4894
  324PEP     CB 9260   9.594  19.765  21.914 -0.1109 -0.1937  0.0384
  324PEP     CB 9261   9.224  19.920  22.146  0.0765 -0.1502 -0.2202
  324PEP     CB 9262   9.145  20.219  22.434  0.2977  0.1314  0.0422
  324PEP     CB 9263   9.111  20.669  22.537  0.0938 -0.0165  0.2126
  324PEP     CB 9264   9.242  21.137  22.477  0.3511 -0.1363  0.0380
  324PEP     CB 9265   9.352  21.442  22.195 -0.1468 -0.1583  0.1561
  324PEP     CB 9266   9.180  21.824  21.895  0.1601 -0.0702 -0.1693
  324PEP     CB 9267   8.905  22.175  21.748  0.1588 -0.1273 -0.3028
  324PEP     CB 9268   8.566  22.451  21.688  0.0701  0.0844  0.0406
  324PEP     CB 9269   8.341  22.587  21.220 -0.0315 -0.1587 -0.0219
  324PEP     CB 9270   8.503  22.533  20.782 -0.0471  0.3062 -0.0934
  324PEP     CB 9271   8.709  22.196  20.652 -0.2617 -0.1614  0.1320
  324PEP     CB 9272   9.031  21.921  20.883 -0.3506  0.3316  0.0763
  324PEP     CB 9273   9.219  22.045  21.244  0.2527 -0.0976 -0.1492
  324PEP     CB 9274   9.595  22.035  21.522 -0.0379 -0.0015  0.0857
  324PEP     CB 9275  10.038  22.164  21.555  0.2672 -0.0022 -0.3432
  324PEP     CB 9276  10.354  22.134  21.863  0.2452  0.1485  0.0875
  324PEP     CB 9277  10.583  22.514  22.039  0.4535 -0.0330 -0.1428
  324PEP     CB 9278  10.526  22.962  21.979  0.1799 -0.1871  0.0652
  324PEP     CB 9279  10.466  23.252  21.717 -0.0934 -0.0158 -0.0139
  324PEP     CB 9280  10.394  23.640  21.615 -0.2216  0.1676  0.0032
  325PEP     CB 9281  19.175   0.990   7.675  0.1168  0.4679  0.3940
  325PEP     CB 9282  19.039   1.446   7.747  0.4817  0.0163 -0.1424
  325PEP     CB 9283  19.070   1.825   7.660  0.4924  0.1353 -0.0428
  325PEP     CB 9284  19.401   2.096   7.604 -0.0921 -0.2230 -0.0747
  325PEP     CB 9285  19.953   2.020   7.517 -0.5226 -0.1870 -0.0712
  325PEP     CB 9286  20.326   2.104   7.422  0.1515  0.1453  0.0142
  325PEP     CB 9287  20.688   2.246   7.278 -0.5370 -0.2860  0.2813
  325PEP     CB 9288  20.839   2.412   6.868  0.0536  0.0978  0.1005
  325PEP     CB 9289  20.832   2.755   6.635 -0.1514 -0.3191  0.1325
  325PEP     CB 9290  20.782   3.128   6.594 -0.0377  0.3702 -0.3669
  325PEP     CB 9291  20.832   3.572   6.485  0.0511 -0.2824 -0.3314
  325PEP     CB 9292  20.848   3.938   6.635 -0.2596 -0.1105  0.0514
  325PEP     CB 9293  21.307   4.125   6.736  0.4292 -0.0834 -0.2855
  325PEP     CB 9294  21.724   4.159   6.965  0.2104 -0.0901 -0.0766
  325PEP     CB 9295  22.156   4.218   6.980 -0.2284 -0.0593  0.2203
  325PEP     CB 9296  22.591   4.349   7.232 -0.1847 -0.0937 -0.2634
  325PEP     CB 9297  22.978   4.436   7.081 -0.1414  0.2713 -0.1842
  325PEP     CB 9298  23.224   4.671   6.737 -0.0175 -0.2610  0.2413
  325PEP     CB 9299  23.407   4.950   6.461 -0.3912 -0.0534  0.2951
  325PEP     CB 9300  23.537   4.966   6.038  0.1620  0.1542  0.0140
  325PEP     CB 9301  23.830   5.171   5.776 -0.0912  0.4364  0.0703
  325PEP     CB 9302  23.976   5.520   5.460 -0.1123 -0.1078  0.0840
  325PEP     CB 9303  24.341   5.514   5.164  0.0191  0.0821 -0.2222
  325PEP     CB 9304  24.628   5.387   5.408 -0.3196 -0.3199 -0.0994
  325PEP     CB 9305  24.376   5.209   5.852  0.0095  0.0037  0.2146
  325PEP     CB 9306  24.166   5.126   6.259 -0.0115  0.1412  0.0315
  325PEP     CB 9307  23.795   5.326   6.380  0.0590 -0.0000  0.2823
  325PEP     CB 9308  23.534   5.491   6.046  0.0952  0.1091 -0.1558
  325PEP     CB 9309  23.428   5.372   5.640 -0.0143 -0.0205  0.4655
  325PEP     CB 9310  23.551   4.944   5.444 -0.0123 -0.0588  0.1732
  325PEP     CB 9311  23.648   4.573   5.645 -0.1070 -0.3008 -0.0415
  325PEP     CB 9312  23.777   4.472   6.026 -0.2544 -0.0325  0.2266
  325PEP     CB 9313  23.854   4.622   6.426  0.0828  0.0977 -0.0840
  325PEP     CB 9314  23.801   4.582   6.897  0.0808  0.0546 -0.4348
  325PEP     CB 9315  24.018   4.747   7.299  0.3151  0.4166  0.1640
  325PEP     CB 9316  24.412   4.901   7.467  0.0562  0.2276 -0.0208
  325PEP     CB 9317  24.729   5.109   7.649 -0.1341 -0.1393  0.1002
  325PEP     CB 9318  25.157   5.089   7.736 -0.1526  0.2328 -0.1240
  325PEP     CB 9319  25.452   4.738   7.600  0.1812 -0.0064 -0.1431
  325PEP     CB 9320  25.860   4.504   7.674  0.3303 -0.1132 -0.0391
  326PEP     CB 9321   2.399  13.488   0.500  0.1596  0.0264  0.0330
  326PEP     CB 9322   2.296  13.754   0.307  0.2911 -0.0791 -0.1824
  326PEP     CB 9323   1.817  13.969   0.353 -0.2462 -0.1829 -0.0622
  326PEP     CB 9324   1.441  13.830   0.584  0.3781  0.1675  0.1139
  326PEP     CB 9325   1.089  13.808   0.754  0.1642  0.2138 -0.1510
  326PEP     CB 9326   0.906  13.909   1.161 -0.2010 -0.0303  0.0506
  326PEP     CB 9327   0.951  14.055   1.542  0.1384 -0.3571 -0.1104
  326PEP     CB 9328   1.201  14.153   1.869 -0.2547  0.1292  0.2866
  326PEP     CB 9329   1.310  14.549   1.994  0.1113  0.1158  0.1562
  326PEP     CB 9330   1.124  15.016   1.827 -0.0023  0.0819 -0.0475
  326PEP     CB 9331   0.996  15.291   1.829 -0.0726  0.1468 -0.0472
  326PEP     CB 9332   1.053  15.697   2.000  0.0203 -0.2137 -0.3077
  326PEP     CB 9333   1.255  15.972   2.301 -0.2071  0.0240 -0.0724
  326PEP     CB 9334   1.202  16.221   2.629  0.0246  0.2899  0.9603
  326PEP     CB 9335   1.244  16.330   3.038 -0.0638  0.4141 -0.0360
  326PEP     CB 9336   1.012  16.332   3.423 -0.1557 -0.2040  0.0662
  326PEP     CB 9337   0.825  16.119   3.788 -0.2374  0.1430  0.0439
  326PEP     CB 9338   0.751  16.021   4.190  0.0034  0.1879 -0.3112
  326PEP     CB 9339   0.773  15.790   4.573  0.6912 -0.0550 -0.1243
  326PEP     CB 9340   0.430  15.526   4.843 -0.2808 -0.0144 -0.2869
  326PEP     CB 9341   0.020  15.537   4.833 -0.3489 -0.5427  0.3314
  326PEP     CB 9342  -0.269  15.796   4.612  0.0965 -0.1048  0.1699
  326PEP     CB 9343  -0.429  16.006   4.217 -0.1828 -0.0585 -0.1523
  326PEP     CB 9344  -0.296  16.432   4.101  0.2996  0.2222 -0.2044
  326PEP     CB 9345  -0.425  16.811   4.355  0.3611  0.2159  0.2663
  326PEP     CB 9346  -0.087  17.215   4.453 -0.0038 -0.1398 -0.1104
  326PEP     CB 9347   0.276  17.150   4.561 -0.0328  0.3004 -0.3310
  326PEP     CB 9348   0.757  17.208   4.517  0.0818 -0.1023 -0.0209
  326PEP     CB 9349   1.067  17.470   4.331  0.0553 -0.1525  0.4459
  326PEP     CB 9350   0.871  17.782   4.017  0.1193  0.4270  0.0499
  326PEP     CB 9351   0.458  17.884   3.870  0.0307 -0.2312  0.1461
  326PEP     CB 9352   0.190  17.581   3.687  0.3434 -0.0433 -0.2026
  326PEP     CB 9353   0.215  17.186   3.376  0.2886 -0.2478  0.1688
  326PEP     CB 9354   0.359  16.932   3.018 -0.0958 -0.1177 -0.2139
  326PEP     CB 9355   0.354  16.706   2.686 -0.5450 -0.0718 -0.2031
  326PEP     CB 9356   0.167  16.288   2.619  0.1777  0.3888  0.1762
  326PEP     CB 9357  -0.218  16.056   2.779 -0.4142  0.0522  0.1740
  326PEP     CB 9358  -0.473  15.724   2.957 -0.0403 -0.1038  0.3079
  326PEP     CB 9359  -0.281  15.361   3.292 -0.0774 -0.0129 -0.0426
  326PEP     CB 9360  -0.122  15.175   3.722 -0.3349 -0.1906 -0.0527
  327PEP     CB 9361  17.348  16.651  10.294  0.1587 -0.1977  0.0013
  327PEP     CB 9362  17.328  16.175  10.379 -0.1945  0.0779 -0.0912
  327PEP     CB 9363  16.967  15.941  10.507 -0.2466 -0.0076 -0.1302
  327PEP     CB 9364  16.534  16.160  10.650 -0.3286 -0.0118 -0.0251
  327PEP     CB 9365  16.326  16.424  10.857 -0.1735  0.0312 -0.1503
  327PEP     CB 9366  15.887  16.499  11.053  0.1661 -0.2300 -0.2108
  327PEP     CB 9367  15.560  16.326  11.192  0.3467  0.0932 -0.4069
  327PEP     CB 9368  15.520  15.920  11.146  0.0373  0.2382  0.1123
  327PEP     CB 9369  15.664  15.644  10.830  0.0749  0.2089  0.2095
  327PEP     CB 9370  15.551  15.419  10.445  0.3701  0.1448 -0.0627
  327PEP     CB 9371  15.263  15.138  10.277  0.3407 -0.1261  0.4358
  327PEP     CB 9372  15.148  14.818   9.929 -0.2365  0.2958  0.0960
  327PEP     CB 9373  15.387  14.779   9.570  0.0279 -0.2952  0.0527
  327PEP     CB 9374  15.724  14.825   9.249 -0.0813 -0.4620  0.2193
  327PEP     CB 9375  15.962  15.071   8.949 -0.0707  0.1266  0.2468
  327PEP     CB 9376  16.173  15.505   8.945 -0.1460 -0.1200  0.1410
  327PEP     CB 9377  16.245  15.876   8.781  0.1909  0.1259  0.2924
  327PEP     CB 9378  16.135  15.998   8.342  0.3270 -0.1647 -0.6690
  327PEP     CB 9379  16.172  16.173   7.941  0.2589 -0.1926  0.0643
  327PEP     CB 9380  16.221  16.644   7.756  0.1879  0.0428 -0.1567
  327PEP     CB 9381  16.187  17.029   7.990  0.2755  0.3044  0.3546
  327PEP     CB 9382  16.051  17.162   8.294  0.0266  0.0590 -0.2709
  327PEP     CB 9383  15.948  17.005   8.687 -0.4267 -0.1230  0.2452
  327PEP     CB 9384  16.021  16.644   8.840  0.1364 -0.0551 -0.2866
  327PEP     CB 9385  16.418  16.462   8.747  0.2457  0.1497 -0.0197
  327PEP     CB 9386  16.600  16.322   8.350 -0.1438  0.0572  0.0241
  327PEP     CB 9387  16.768  16.498   7.930 -0.0788 -0.1514  0.0982
  327PEP     CB 9388  16.657  16.369   7.496 -0.3501 -0.0601 -0.0010
  327PEP     CB 9389  16.373  16.503   7.113 -0.1099 -0.0805 -0.0460
  327PEP     CB 9390  16.338  16.529   6.519  0.0067  0.6655  0.3499
  327PEP     CB 9391  16.444  16.233   6.123  0.2483  0.0154 -0.0337
  327PEP     CB 9392  16.730  16.063   5.930 -0.2679  0.1289  0.1829
  327PEP     CB 9393  17.128  16.065   5.878  0.0106  0.2377  0.2070
  327PEP     CB 9394  17.492  16.283   5.801  0.1602 -0.0319  0.4629
  327PEP     CB 9395  17.733  16.628   5.995 -0.0168  0.4553 -0.2781
  327PEP     CB 9396  17.857  16.707   6.473  0.1478  0.0189  0.2786
  327PEP     CB 9397  17.703  16.532   6.829  0.1574 -0.0337 -0.3251
  327PEP     CB 9398  17.322  16.514   7.032  0.2529 -0.3413  0.0486
  327PEP     CB 9399  17.198  16.092   7.161  0.2249 -0.1759  0.1800
  327PEP     CB 9400  17.458  15.701   7.094  0.2876 -0.4992 -0.0723
  328PEP     CB 9401  13.388   2.629   6.821  0.0026  0.1128 -0.3043
  328PEP     CB 9402  12.962   2.447   6.738 -0.2376 -0.1642 -0.2433
  328PEP     CB 9403  12.596   2.443   6.779 -0.0222 -0.1093  0.2032
  328PEP     CB 9404  12.139   2.601   6.733 -0.1305  0.2815 -0.2093
  328PEP     CB 9405  11.798   2.627   6.449  0.1685 -0.2148  0.1153
  328PEP     CB 9406  11.431   2.718   6.321  0.2205  0.0437 -0.0993
  328PEP     CB 9407  11.390   2.923   5.853  0.2766  0.1275 -0.0841
  328PEP     CB 9408  11.328   2.751   5.463 -0.0596 -0.0152  0.0051
  328PEP     CB 9409  11.149   2.770   4.974  0.0406  0.0740 -0.6321
  328PEP     CB 9410  11.123   2.618   4.550 -0.0752  0.0313 -0.0280
  328PEP     CB 9411  10.720   2.409   4.288  0.1220  0.2297 -0.2649
  328PEP     CB 9412  10.465   2.319   3.996  0.0231  0.3042 -0.1537
  328PEP     CB 9413  10.107   2.218   3.709  0.0397 -0.1640  0.0672
  328PEP     CB 9414   9.758   2.412   3.779 -0.2198  0.0291  0.2817
  328PEP     CB 9415   9.567   2.313   4.036  0.1713  0.2708  0.1528
  328PEP     CB 9416   9.650   2.166   4.477 -0.1843 -0.3220  0.2726
  328PEP     CB 9417  10.019   2.328   4.712  0.0576  0.0876 -0.3691
  328PEP     CB 9418  10.121   2.490   5.159 -0.3376 -0.0857 -0.1819
  328PEP     CB 9419  10.302   2.876   5.305  0.1711 -0.1090  0.0569
  328PEP     CB 9420  10.671   3.063   5.055 -0.1250 -0.3805 -0.4091
  328PEP     CB 9421  10.861   3.085   4.593  0.0500 -0.0050 -0.2453
  328PEP     CB 9422  10.993   3.286   4.252  0.4143 -0.0221 -0.0110
  328PEP     CB 9423  11.102   3.161   3.788 -0.1343 -0.0423 -0.0619
  328PEP     CB 9424  11.288   2.789   3.581  0.0325 -0.3262  0.0298
  328PEP     CB 9425  11.542   2.449   3.354 -0.5328 -0.1404 -0.0588
  328PEP     CB 9426  11.557   2.141   3.006 -0.0708  0.0501 -0.4516
  328PEP     CB 9427  11.574   2.255   2.604 -0.0182 -0.5115 -0.3442
  328PEP     CB 9428  11.582   2.177   2.072 -0.2015 -0.3003 -0.0449
  328PEP     CB 9429  11.926   2.038   1.854 -0.3730 -0.3238  0.3674
  328PEP     CB 9430  12.423   2.030   1.947 -0.1568  0.1059  0.2311
  328PEP     CB 9431  12.839   2.179   1.815  0.2556  0.0476  0.0776
  328PEP     CB 9432  13.236   2.512   1.924  0.2304 -0.1443 -0.1588
  328PEP     CB 9433  13.561   2.644   2.222 -0.3200  0.1951 -0.1094
  328PEP     CB 9434  13.917   2.859   2.334  0.1978 -0.0261 -0.1794
  328PEP     CB 9435  14.141   3.057   2.678 -0.1704 -0.0064  0.1430
  328PEP     CB 9436  14.410   3.467   2.803 -0.0111  0.0717 -0.1712
  328PEP     CB 9437  14.574   3.875   2.833 -0.0304  0.0176 -0.2299
  328PEP     CB 9438  14.840   4.187   2.901  0.0345  0.1454  0.2105
  328PEP     CB 9439  15.100   4.346   3.193  0.2107  0.1449  0.2195
  328PEP     CB 9440  15.220   4.473   3.587 -0.0982  0.0822 -0.1850
  329PEP     CB 9441  18.625  21.992  13.010 -0.0034 -0.0516  0.0518
  329PEP     CB 9442  18.371  21.537  12.968 -0.1299 -0.5408  0.0501
  329PEP     CB 9443  17.891  21.433  12.871 -0.0373 -0.4287  0.0093
  329PEP     CB 9444  17.736  21.353  12.511 -0.0016 -0.1537 -0.2685
  329PEP     CB 9445  17.445  21.102  12.337  0.2057 -0.0575  0.0097
  329PEP     CB 9446  17.408  20.608  12.531 -0.0094 -0.1015 -0.2269
  329PEP     CB 9447  17.242  20.435  12.889 -0.2987 -0.2679  0.0083
  329PEP     CB 9448  17.200  20.262  13.358  0.1557 -0.4543  0.2308
  329PEP     CB 9449  17.202  19.995  13.658  0.1122  0.2202  0.0505
  329PEP     CB 9450  16.855  19.742  13.721  0.2292  0.1868 -0.2257
  329PEP     CB 9451  16.812  19.391  13.580 -0.0941  0.5571  0.0631
  329PEP     CB 9452  17.035  19.150  13.332  0.3667  0.2137 -0.1604
  329PEP     CB 9453  17.439  18.949  13.303  0.0520  0.4097 -0.3626
  329PEP     CB 9454  17.748  18.613  13.347  0.0738  0.2292 -0.1015
  329PEP     CB 9455  17.800  18.147  13.269  0.1402 -0.0965  0.0364
  329PEP     CB 9456  17.490  17.901  13.148  0.0678 -0.3167 -0.0768
  329PEP     CB 9457  16.970  18.071  13.237 -0.0305  0.3496  0.6358
  329PEP     CB 9458  16.561  17.945  13.437 -0.4104  0.5017 -0.0575
  329PEP     CB 9459  16.359  17.497  13.390 -0.5777 -0.0778  0.1438
  329PEP     CB 9460  16.526  17.185  13.135 -0.0337 -0.0805  0.2022
  329PEP     CB 9461  16.652  16.891  12.969 -0.1974  0.2431  0.2140
  329PEP     CB 9462  16.465  16.485  12.732  0.0018  0.1552  0.0422
  329PEP     CB 9463  16.571  16.373  12.321  0.2356  0.1905 -0.3763
  329PEP     CB 9464  17.070  16.357  12.143 -0.1586 -0.2983 -0.2537
  329PEP     CB 9465  17.465  16.590  12.021 -0.0341  0.0912 -0.2384
  329PEP     CB 9466  17.605  16.657  11.607 -0.2633 -0.0586 -0.1093
  329PEP     CB 9467  17.694  16.483  11.179  0.2940  0.4481  0.1157
  329PEP     CB 9468  17.527  16.200  10.942  0.0492  0.1393  0.2327
  329PEP     CB 9469  17.171  16.010  11.076 -0.2102  0.2130 -0.1986
  329PEP     CB 9470  16.990  15.935  11.354  0.0767  0.0495 -0.0725
  329PEP     CB 9471  16.822  15.654  11.727  0.3964  0.1032  0.0007
  329PEP     CB 9472  16.736  15.195  11.695  0.0621 -0.5539  0.1301
  329PEP     CB 9473  16.337  15.066  11.421  0.1581 -0.0346 -0.0313
  329PEP     CB 9474  16.028  15.353  11.247  0.0708 -0.1195 -0.3459
  329PEP     CB 9475  15.762  15.551  11.472 -0.2061 -0.1145 -0.2968
  329PEP     CB 9476  15.754  15.361  11.877  0.2219 -0.0722  0.4324
  329PEP     CB 9477  16.138  15.325  12.076  0.2680  0.0363 -0.2289
  329PEP     CB 9478  16.466  15.569  12.269 -0.0167 -0.2186 -0.3703
  329PEP     CB 9479  16.613  15.963  12.008  0.1673  0.2206  0.1405
  329PEP     CB 9480  16.489  16.258  11.816  0.1597  0.3322 -0.0729
  330PEP     CB 9481   5.187   9.157  20.434  0.2392  0.0370 -0.4366
  330PEP     CB 9482   5.310   9.462  20.022 -0.2817  0.0415  0.0101
  330PEP     CB 9483   5.628   9.668  19.825 -0.1631  0.1799 -0.0938
  330PEP     CB 9484   6.049   9.698  19.761 -0.4757 -0.0992 -0.1335
  330PEP     CB 9485   6.567   9.741  19.856  0.2815  0.5694 -0.0225
  330PEP     CB 9486   6.980   9.917  19.867  0.4900 -0.1383  0.3802
  330PEP     CB 9487   7.331   9.961  19.971  0.2338 -0.2184  0.2720
  330PEP     CB 9488   7.748   9.975  20.134 -0.0237 -0.1210 -0.0656
  330PEP     CB 9489   8.032   9.875  20.377 -0.2546 -0.0743  0.4031
  330PEP     CB 9490   8.114   9.693  20.770  0.0484 -0.1456 -0.0365
  330PEP     CB 9491   8.185   9.336  21.007 -0.0642  0.0787 -0.3665
  330PEP     CB 9492   8.558   9.086  21.130 -0.1694  0.0417 -0.4487
  330PEP     CB 9493   9.054   9.024  21.214 -0.2690 -0.2933  0.0230
  330PEP     CB 9494   9.438   8.762  21.298 -0.4729  0.4770 -0.0787
  330PEP     CB 9495   9.796   8.567  21.561 -0.1843 -0.3331  0.0384
  330PEP     CB 9496  10.097   8.207  21.590  0.1698 -0.0333  0.0644
  330PEP     CB 9497  10.383   8.009  21.780  0.3154 -0.3443 -0.0114
  330PEP     CB 9498  10.617   7.708  21.943  0.4778  0.1979 -0.0953
  330PEP     CB 9499  10.747   7.225  22.017  0.4176 -0.0058  0.3585
  330PEP     CB 9500  10.661   6.836  21.731 -0.2764 -0.2663  0.0586
  330PEP     CB 9501  10.574   6.486  21.575  0.2037 -0.3477 -0.2443
  330PEP     CB 9502  10.800   6.189  21.492  0.0331 -0.4045 -0.0672
  330PEP     CB 9503  10.998   5.857  21.232 -0.1253 -0.2773  0.0149
  330PEP     CB 9504  10.930   5.392  21.283 -0.0750 -0.0139  0.0819
  330PEP     CB 9505  10.587   5.188  21.379  0.2561 -0.2693  0.1823
  330PEP     CB 9506  10.225   5.285  21.453 -0.1082 -0.0473 -0.0080
  330PEP     CB 9507   9.947   5.532  21.106 -0.1194  0.0565 -0.1266
  330PEP     CB 9508   9.747   5.478  20.600 -0.0837 -0.3230 -0.0519
  330PEP     CB 9509  10.002   5.160  20.296 -0.1712 -0.3171  0.2328
  330PEP     CB 9510   9.989   4.687  20.372 -0.0501 -0.1493  0.2149
  330PEP     CB 9511   9.737   4.295  20.570 -0.1773  0.1715 -0.2894
  330PEP     CB 9512   9.709   3.969  20.931 -0.0741 -0.0130  0.3469
  330PEP     CB 9513   9.620   3.554  21.069  0.0433  0.1199 -0.3365
  330PEP     CB 9514   9.471   3.141  21.026 -0.2927 -0.1012 -0.0006
  330PEP     CB 9515   9.607   2.610  20.981 -0.0815 -0.1290  0.0594
  330PEP     CB 9516   9.392   2.306  21.162  0.1945  0.0243 -0.0962
  330PEP     CB 9517   8.990   2.425  21.289 -0.1601  0.2380  0.3733
  330PEP     CB 9518   9.036   2.705  21.659  0.3321 -0.1387 -0.4648
  330PEP     CB 9519   9.239   3.139  21.540 -0.2147  0.1090 -0.1692
  330PEP     CB 9520   9.062   3.369  21.159  0.0604 -0.3741  0.3741
  331PEP     CB 9521   7.670   1.113  19.147 -0.0445  0.0479 -0.0709
  331PEP     CB 9522   7.970   1.345  19.352  0.0829  0.2225 -0.2909
  331PEP     CB 9523   7.970   1.757  19.509  0.0151  0.2309 -0.0467
  331PEP     CB 9524   7.805   2.124  19.569  0.3687  0.3287  0.0338
  331PEP     CB 9525   7.567   2.410  19.614 -0.1681 -0.0089  0.0594
  331PEP     CB 9526   7.241   2.819  19.772  0.1126 -0.1637  0.3472
  331PEP     CB 9527   6.836   3.145  19.755 -0.2125  0.1612  0.1571
  331PEP     CB 9528   6.387   3.274  19.752  0.0509 -0.1472  0.1899
  331PEP     CB 9529   5.990   3.249  19.980 -0.0018 -0.2010 -0.2542
  331PEP     CB 9530   5.660   3.238  20.408 -0.0707  0.2806  0.1314
  331PEP     CB 9531   5.430   3.377  20.724  0.0452  0.0570  0.2178
  331PEP     CB 9532   5.386   3.227  21.187  0.0948 -0.0125  0.2883
  331PEP     CB 9533   5.124   3.288  21.509 -0.1541 -0.2201  0.4306
  331PEP     CB 9534   5.078   3.322  21.877  0.0521 -0.2582 -0.4361
  331PEP     CB 9535   4.895   3.345  22.235 -0.1058 -0.1970 -0.1332
  331PEP     CB 9536   4.779   3.111  22.609 -0.4441 -0.3420  0.0727
  331PEP     CB 9537   4.416   2.990  22.957 -0.0794  0.0428  0.1671
  331PEP     CB 9538   4.024   2.809  23.074 -0.1624  0.2672 -0.0527
  331PEP     CB 9539   3.927   2.514  23.250 -0.1801 -0.2264  0.1011
  331PEP     CB 9540   3.763   2.518  23.726 -0.1362 -0.1199  0.0856
  331PEP     CB 9541   3.977   2.336  24.200 -0.0001 -0.4882 -0.1120
  331PEP     CB 9542   4.279   2.104  24.368  0.1480  0.4140 -0.0212
  331PEP     CB 9543   4.377   1.702  24.392  0.2229  0.1266  0.2058
  331PEP     CB 9544   4.587   1.331  24.211 -0.2909  0.1120 -0.4182
  331PEP     CB 9545   5.028   1.243  24.049  0.1507  0.1090  0.2017
  331PEP     CB 9546   5.417   1.044  24.179  0.0710 -0.3659 -0.1344
  331PEP     CB 9547   5.461   0.777  24.464  0.0705 -0.1807 -0.0324
  331PEP     CB 9548   5.538   0.461  24.787 -0.1318  0.0609  0.3151
  331PEP     CB 9549   5.496   0.349  25.237 -0.2773  0.1287 -0.2853
  331PEP     CB 9550   5.282   0.400  25.595  0.0096 -0.3562 -0.1287
  331PEP     CB 9551   5.154   0.695  25.881 -0.1351  0.4491 -0.2446
  331PEP     CB 9552   5.060   0.947  26.274  0.0854 -0.4525  0.1767
  331PEP     CB 9553   5.185   1.243  26.431 -0.1369 -0.1145 -0.1415
  331PEP     CB 9554   5.071   1.515  26.784  0.0697  0.0630  0.1541
  331PEP     CB 9555   4.684   1.576  27.135  0.0248  0.1607 -0.1516
  331PEP     CB 9556   4.533   1.831  27.499  0.3699 -0.2698  0.2068
  331PEP     CB 9557   4.503   2.004  28.021  0.0628  0.4209  0.0486
  331PEP     CB 9558   4.351   2.055  28.395 -0.2551  0.0326 -0.0023
  331PEP     CB 9559   4.309   1.919  28.738 -0.2059  0.5221  0.3183
  331PEP     CB 9560   4.636   1.836  28.993 -0.3405  0.3939 -0.1619
  332PEP     CB 9561  10.852   7.862   8.558 -0.1083 -0.3923  0.0074
  332PEP     CB 9562  10.720   8.039   8.150 -0.3998 -0.3219 -0.0926
  332PEP     CB 9563  10.466   8.287   7.907 -0.1335  0.1276  0.1712
  332PEP     CB 9564  10.171   8.604   7.830  0.4116  0.1362 -0.0066
  332PEP     CB 9565  10.105   8.880   7.550 -0.1962  0.0284 -0.0487
  332PEP     CB 9566  10.181   9.314   7.481 -0.3520 -0.1870  0.3133
  332PEP     CB 9567  10.433   9.632   7.362 -0.0252  0.0841  0.1912
  332PEP     CB 9568  10.836   9.796   7.288 -0.0483 -0.1336 -0.1217
  332PEP     CB 9569  11.218   9.590   7.072  0.3148 -0.0749  0.2167
  332PEP     CB 9570  11.292   9.223   6.846 -0.1291 -0.2960  0.0915
  332PEP     CB 9571  11.499   8.898   6.451  0.2680 -0.0519  0.1652
  332PEP     CB 9572  11.858   9.014   6.131  0.2296  0.1447 -0.4119
  332PEP     CB 9573  12.091   9.276   5.754  0.2131  0.0314  0.2549
  332PEP     CB 9574  12.137   9.680   5.693 -0.0872  0.2869 -0.1646
  332PEP     CB 9575  11.997  10.079   5.696 -0.3080 -0.0474  0.4761
  332PEP     CB 9576  11.967  10.437   5.379 -0.0051 -0.2838 -0.1008
  332PEP     CB 9577  12.119  10.287   4.982  0.1175  0.0321 -0.0113
  332PEP     CB 9578  12.527  10.295   4.833  0.0657 -0.5580 -0.3810
  332PEP     CB 9579  12.906  10.077   4.929  0.3244  0.0202  0.0490
  332PEP     CB 9580  13.037  10.068   5.337 -0.4182  0.3932 -0.2266
  332PEP     CB 9581  12.758  10.265   5.746 -0.2327  0.0795 -0.0889
  332PEP     CB 9582  12.500  10.668   5.861 -0.0666 -0.0397 -0.1751
  332PEP     CB 9583  11.995  10.712   5.867 -0.3074  0.1540  0.0582
  332PEP     CB 9584  11.639  10.877   5.784  0.3961  0.2524 -0.2156
  332PEP     CB 9585  11.453  11.334   5.542 -0.0431 -0.0737 -0.0595
  332PEP     CB 9586  11.515  11.694   5.417  0.0865 -0.3245  0.2177
  332PEP     CB 9587  11.667  11.940   5.081 -0.3233  0.0370 -0.0511
  332PEP     CB 9588  11.903  11.754   4.656  0.1656  0.0521 -0.1828
  332PEP     CB 9589  12.211  11.445   4.702 -0.4092  0.2286 -0.2730
  332PEP     CB 9590  12.104  11.094   4.984 -0.0486 -0.0211 -0.0949
  332PEP     CB 9591  11.735  10.899   5.088  0.0916  0.1936  0.3696
  332PEP     CB 9592  11.312  11.043   4.997 -0.1654 -0.0263  0.0997
  332PEP     CB 9593  10.928  11.314   5.117  0.1775 -0.4182  0.1018
  332PEP     CB 9594  10.729  11.753   5.100  0.1049  0.1863  0.1728
  332PEP     CB 9595  10.700  12.177   5.116  0.0280  0.3458 -0.0101
  332PEP     CB 9596  10.535  12.594   5.254  0.0128  0.1077 -0.2683
  332PEP     CB 9597  10.508  13.013   5.313 -0.2386  0.0463 -0.3072
  332PEP     CB 9598  10.655  13.409   5.522 -0.1358 -0.2543 -0.1122
  332PEP     CB 9599  10.964  13.393   5.859  0.3025 -0.1044 -0.1494
  332PEP     CB 9600  11.062  13.267   6.315 -0.1101  0.4136 -0.1093
  333PEP     CB 9601   9.672   3.046  19.978 -0.0202 -0.1223  0.2920
  333PEP     CB 9602   9.353   2.897  19.758 -0.0816 -0.0217 -0.1175
  333PEP     CB 9603   9.267   2.700  19.454 -0.1860  0.2874  0.0263
  333PEP     CB 9604   9.428   2.654  19.051 -0.0905 -0.1639  0.0013
  333PEP     CB 9605   9.748   2.536  18.774  0.1486  0.0232  0.0905
  333PEP     CB 9606  10.123   2.539  18.515 -0.1283  0.3425 -0.4815
  333PEP     CB 9607  10.527   2.301  18.368  0.0291  0.1434 -0.0527
  333PEP     CB 9608  10.676   1.927  18.568  0.1975 -0.2329  0.0169
  333PEP     CB 9609  10.691   1.641  18.803  0.0340 -0.0606 -0.0824
  333PEP     CB 9610  10.850   1.334  19.117  0.0145 -0.1199  0.6326
  333PEP     CB 9611  11.110   1.104  19.263 -0.1407  0.2115 -0.1927
  333PEP     CB 9612  11.183   0.730  19.597 -0.3402 -0.0042 -0.2483
  333PEP     CB 9613  11.315   0.783  20.022  0.3908 -0.0276 -0.3837
  333PEP     CB 9614  11.277   1.086  20.299 -0.0264 -0.1607 -0.4179
  333PEP     CB 9615  11.375   1.284  20.718  0.0395  0.2116 -0.2088
  333PEP     CB 9616  11.221   1.231  21.103  0.1655  0.1720 -0.0226
  333PEP     CB 9617  10.647   1.153  21.218 -0.1991  0.1170 -0.0862
  333PEP     CB 9618  10.392   0.842  21.011 -0.0768  0.3369  0.3938
  333PEP     CB 9619  10.330   0.380  21.172  0.0088  0.1431  0.0940
  333PEP     CB 9620  10.629   0.124  21.486 -0.1914  0.1340  0.1181
  333PEP     CB 9621  11.115   0.279  21.440  0.3136  0.1093  0.1937
  333PEP     CB 9622  11.272   0.297  21.089  0.2670 -0.2752 -0.1036
  333PEP     CB 9623  11.302  -0.104  20.800 -0.3771 -0.2188 -0.1243
  333PEP     CB 9624  11.177  -0.467  20.937  0.1672  0.2827 -0.3425
  333PEP     CB 9625  10.971  -0.862  20.974 -0.2489  0.1610  0.1248
  333PEP     CB 9626  10.744  -1.242  21.259 -0.0513 -0.5687  0.5988
  333PEP     CB 9627  10.741  -1.377  21.723  0.1540  0.0780  0.1849
  333PEP     CB 9628  10.514  -1.544  22.041 -0.2453 -0.0728  0.2931
  333PEP     CB 9629  10.143  -1.797  22.152  0.2073  0.0563 -0.1237
  333PEP     CB 9630  10.144  -2.230  22.246  0.0124  0.0478  0.0883
  333PEP     CB 9631  10.243  -2.559  22.026 -0.3734 -0.3087 -0.0783
  333PEP     CB 9632  10.561  -2.686  21.765 -0.0698 -0.2222 -0.5640
  333PEP     CB 9633  10.694  -2.760  21.338  0.0798  0.0575  0.1551
  333PEP     CB 9634  11.144  -2.822  21.212 -0.2478 -0.0236 -0.0651
  333PEP     CB 9635  11.557  -2.978  21.393  0.0330 -0.0615 -0.2112
  333PEP     CB 9636  11.777  -3.154  21.768 -0.1771 -0.0791  0.2114
  333PEP     CB 9637  12.124  -3.127  22.050  0.3331 -0.4315  0.5930
  333PEP     CB 9638  12.532  -2.993  22.167 -0.0753  0.2998  0.0681
  333PEP     CB 9639  12.766  -2.907  22.390 -0.1250  0.1514  0.1224
  333PEP     CB 9640  13.182  -2.838  22.580 -0.0420  0.0938 -0.4639
  334PEP     CB 9641   1.009   8.554  20.433  0.1355  0.3226  0.1668
  334PEP     CB 9642   1.487   8.545  20.501 -0.2256 -0.3744  0.0116
  334PEP     CB 9643   1.890   8.479  20.406  0.0438  0.1231  0.1777
  334PEP     CB 9644   2.247   8.460  20.179  0.0119 -0.0656  0.4226
  334PEP     CB 9645   2.470   8.297  19.814  0.5056  0.0524 -0.0530
  334PEP     CB 9646   2.605   7.977  19.448 -0.0572  0.4378  0.1127
  334PEP     CB 9647   2.756   7.991  19.083  0.0324 -0.0061 -0.2405
  334PEP     CB 9648   2.970   7.890  18.658  0.0930  0.0239 -0.3966
  334PEP     CB 9649   2.652   7.997  18.455  0.2672 -0.4958  0.3900
  334PEP     CB 9650   2.236   7.838  18.507 -0.0296 -0.2426  0.0040
  334PEP     CB 9651   1.839   7.560  18.494 -0.2651  0.2235 -0.1222
  334PEP     CB 9652   1.483   7.675  18.485  0.1653 -0.1265  0.1505
  334PEP     CB 9653   1.328   7.888  18.209  0.2163  0.0395  0.2508
  334PEP     CB 9654   1.515   8.195  17.985  0.0239  0.2731 -0.2823
  334PEP     CB 9655   1.643   8.579  17.843 -0.0304 -0.0729  0.0827
  334PEP     CB 9656   1.861   8.891  18.022 -0.1052  0.0822 -0.2679
  334PEP     CB 9657   1.997   8.752  18.376 -0.2349  0.5386 -0.0081
  334PEP     CB 9658   1.738   8.752  18.771 -0.0125 -0.0244 -0.0057
  334PEP     CB 9659   1.313   8.585  18.867  0.2519 -0.1518 -0.0500
  334PEP     CB 9660   1.000   8.454  19.160  0.0102  0.0281  0.0432
  334PEP     CB 9661   0.744   8.213  19.476  0.1656 -0.0727 -0.1419
  334PEP     CB 9662   0.413   8.122  19.807 -0.1569 -0.3775 -0.2638
  334PEP     CB 9663  -0.041   8.090  19.980 -0.0744  0.3678 -0.2571
  334PEP     CB 9664  -0.434   7.902  20.068  0.0388 -0.1010 -0.3039
  334PEP     CB 9665  -0.728   7.694  19.853  0.3071  0.6254  0.2432
  334PEP     CB 9666  -1.065   7.495  19.763  0.4091  0.1039 -0.0013
  334PEP     CB 9667  -1.537   7.315  19.677  0.0681  0.0561  0.0262
  334PEP     CB 9668  -1.955   7.303  19.697  0.3817  0.0358  0.0073
  334PEP     CB 9669  -2.268   7.615  19.858 -0.1891  0.2637  0.2697
  334PEP     CB 9670  -2.545   7.648  20.109 -0.1373  0.0763  0.0479
  334PEP     CB 9671  -2.900   7.940  20.183 -0.1392 -0.1388  0.1036
  334PEP     CB 9672  -3.163   8.265  20.100  0.1281 -0.0328 -0.2753
  334PEP     CB 9673  -3.458   8.552  20.201  0.2812 -0.0133 -0.1369
  334PEP     CB 9674  -3.664   8.841  20.346 -0.1169 -0.1743 -0.1429
  334PEP     CB 9675  -3.746   9.236  20.471  0.1140 -0.0815 -0.0485
  334PEP     CB 9676  -3.807   9.533  20.816  0.1530  0.1133 -0.2029
  334PEP     CB 9677  -4.305   9.683  20.929 -0.0021 -0.0962  0.0211
  334PEP     CB 9678  -4.656   9.624  20.624 -0.0085 -0.0818  0.0501
  334PEP     CB 9679  -5.010   9.737  20.856 -0.1751  0.1906 -0.1778
  334PEP     CB 9680  -5.072  10.026  21.252 -0.0856 -0.0127  0.0362
  335PEP     CB 9681  17.260   2.433  12.341 -0.1122  0.0841 -0.2063
  335PEP     CB 9682  17.478   2.791  12.143 -0.0145  0.0291  0.0033
  335PEP     CB 9683  17.327   3.025  11.749  0.2164 -0.2143 -0.3351
  335PEP     CB 9684  17.266   3.309  11.462  0.2981  0.1638 -0.0876
  335PEP     CB 9685  17.620   3.605  11.371 -0.0561  0.0286 -0.0190
  335PEP     CB 9686  18.150   3.474  11.368 -0.1489 -0.1894  0.2884
  335PEP     CB 9687  18.416   3.167  11.085 -0.1771 -0.2193 -0.1675
  335PEP     CB 9688  18.708   3.258  10.821 -0.0162  0.2611  0.2897
  335PEP     CB 9689  18.931   3.538  10.508  0.1278  0.1723 -0.1844
  335PEP     CB 9690  19.341   3.658  10.334  0.6043  0.0827  0.5195
  335PEP     CB 9691  19.580   4.020  10.577 -0.5142  0.0046  0.0484
  335PEP     CB 9692  19.475   4.307  10.832  0.0640 -0.1561 -0.3300
  335PEP     CB 9693  19.332   4.195  11.194 -0.4108  0.0140 -0.0053
  335PEP     CB 9694  18.907   3.965  11.287  0.1667 -0.1511 -0.1934
  335PEP     CB 9695  18.634   3.816  11.551  0.0588  0.4836 -0.2496
  335PEP     CB 9696  18.269   3.899  11.712 -0.4192 -0.1475  0.4043
  335PEP     CB 9697  17.866   3.755  11.754  0.0681  0.0253 -0.0187
  335PEP     CB 9698  17.475   3.764  11.918  0.6514  0.1159 -0.0898
  335PEP     CB 9699  17.348   3.850  12.299 -0.0867 -0.1583  0.4360
  335PEP     CB 9700  17.224   4.128  12.651 -0.0227 -0.1527 -0.2551
  335PEP     CB 9701  16.891   4.374  12.875  0.1030  0.3847 -0.0470
  335PEP     CB 9702  16.785   4.508  13.310 -0.2209 -0.0602  0.4575
  335PEP     CB 9703  16.701   4.667  13.736  0.0619 -0.2274  0.3826
  335PEP     CB 9704  16.651   4.765  14.234 -0.0706 -0.5214  0.0590
  335PEP     CB 9705  16.510   5.067  14.418  0.2948 -0.2370 -0.4638
  335PEP     CB 9706  16.319   5.390  14.550 -0.0835 -0.3685 -0.1848
  335PEP     CB 9707  16.479   5.660  14.973  0.2527  0.0346 -0.0552
  335PEP     CB 9708  16.736   5.489  15.299  0.0088  0.3586 -0.1154
  335PEP     CB 9709  17.110   5.238  15.489 -0.1885 -0.5495  0.0252
  335PEP     CB 9710  17.296   4.827  15.272  0.2748  0.0339 -0.2571
  335PEP     CB 9711  17.415   4.751  14.860  0.1220  0.1292  0.2720
  335PEP     CB 9712  17.453   5.154  14.613 -0.0596  0.3574  0.1567
  335PEP     CB 9713  17.327   5.567  14.665 -0.2538 -0.1737 -0.2123
  335PEP     CB 9714  17.016   5.703  14.923 -0.0544 -0.4182 -0.3216
  335PEP     CB 9715  16.882   5.927  15.320 -0.1059  0.2295  0.0696
  335PEP     CB 9716  16.842   6.010  15.671 -0.0609 -0.0398  0.3355
  335PEP     CB 9717  16.512   5.987  15.978 -0.1265 -0.3112  0.3517
  335PEP     CB 9718  16.100   5.770  15.979  0.2090 -0.1352 -0.2406
  335PEP     CB 9719  15.659   5.726  15.970 -0.0925 -0.3301  0.2027
  335PEP     CB 9720  15.267   5.771  15.917  0.2138  0.1308  0.2120
  336PEP     CB 9721  11.327   2.761   8.951  0.2106  0.3290  0.5261
  336PEP     CB 9722  11.258   2.334   8.942 -0.3974 -0.0177  0.2393
  336PEP     CB 9723  11.000   2.035   8.903  0.0913 -0.0776  0.3591
  336PEP     CB 9724  10.889   1.604   8.623  0.0323 -0.1220  0.2524
  336PEP     CB 9725  10.654   1.399   8.263 -0.1774 -0.2638 -0.1017
  336PEP     CB 9726  10.567   1.243   7.953 -0.2000  0.1007  0.0031
  336PEP     CB 9727  10.468   1.491   7.478  0.0026  0.0204  0.3024
  336PEP     CB 9728  10.652   1.888   7.385  0.1225  0.0043 -0.0612
  336PEP     CB 9729  10.547   2.311   7.651 -0.1050  0.1153 -0.1009
  336PEP     CB 9730  10.347   2.402   8.006 -0.1743  0.0350 -0.0087
  336PEP     CB 9731  10.036   2.736   8.111 -0.0281 -0.3150  0.2587
  336PEP     CB 9732   9.669   2.886   7.912 -0.3869 -0.1274  0.2497
  336PEP     CB 9733   9.543   3.327   8.005 -0.0080  0.2098  0.0391
  336PEP     CB 9734   9.366   3.614   8.229  0.0494 -0.0760 -0.2520
  336PEP     CB 9735   9.158   3.966   8.188 -0.0036  0.6668 -0.1134
  336PEP     CB 9736   9.168   4.359   8.106 -0.1069  0.1570 -0.0049
  336PEP     CB 9737   9.347   4.609   7.683  0.2129  0.0795 -0.0497
  336PEP     CB 9738   9.237   4.761   7.290  0.7179  0.2524  0.2047
  336PEP     CB 9739   9.222   4.848   6.854  0.1740 -0.0215 -0.1713
  336PEP     CB 9740   9.329   4.710   6.440  0.4965  0.1418 -0.1750
  336PEP     CB 9741   9.087   4.552   6.079  0.4373 -0.5199  0.0527
  336PEP     CB 9742   8.770   4.301   5.824  0.0352  0.2580  0.0674
  336PEP     CB 9743   8.858   3.877   5.815  0.1496 -0.4418 -0.1961
  336PEP     CB 9744   9.221   3.625   5.600 -0.2424  0.0159 -0.0436
  336PEP     CB 9745   9.482   3.682   5.174 -0.3187  0.0321 -0.3844
  336PEP     CB 9746   9.627   3.816   4.784 -0.1469 -0.2989  0.1882
  336PEP     CB 9747   9.618   4.236   4.720 -0.1302 -0.1545 -0.3442
  336PEP     CB 9748   9.370   4.567   4.834 -0.5364  0.0307  0.0753
  336PEP     CB 9749   9.279   4.877   5.143  0.2457 -0.0853  0.0164
  336PEP     CB 9750   8.948   5.133   5.226  0.1449 -0.0695  0.0005
  336PEP     CB 9751   8.595   5.351   5.319 -0.0497  0.0355  0.2333
  336PEP     CB 9752   8.289   5.623   5.498 -0.1389 -0.0043 -0.1736
  336PEP     CB 9753   8.193   5.902   5.843 -0.0238  0.0800  0.0847
  336PEP     CB 9754   8.453   5.828   6.309 -0.3740  0.4700  0.1434
  336PEP     CB 9755   8.600   5.732   6.589 -0.2496  0.0693  0.3203
  336PEP     CB 9756   8.714   5.776   6.925 -0.0234 -0.0269 -0.1734
  336PEP     CB 9757   9.042   5.817   7.186 -0.2282  0.0335 -0.3780
  336PEP     CB 9758   9.499   5.692   7.213  0.0705 -0.1286 -0.3928
  336PEP     CB 9759   9.758   5.743   6.871  0.1288 -0.2160 -0.1832
  336PEP     CB 9760   9.789   5.526   6.500 -0.1754 -0.0618 -0.1745
  337PEP     CB 9761  12.585   7.589   5.617 -0.0265  0.2945  0.2764
  337PEP     CB 9762  12.326   7.164   5.597  0.1192  0.2179  0.5183
  337PEP     CB 9763  12.006   6.894   5.453 -0.0111 -0.0669  0.2950
  337PEP     CB 9764  11.599   6.760   5.576  0.0200 -0.1107 -0.0414
  337PEP     CB 9765  11.257   6.627   5.506 -0.1852  0.3679  0.1615
  337PEP     CB 9766  11.019   6.287   5.553  0.0081 -0.2017  0.3602
  337PEP     CB 9767  10.798   6.000   5.342  0.1275  0.2542  0.0620
  337PEP     CB 9768  10.473   6.193   4.982 -0.0683  0.3078 -0.0586
  337PEP     CB 9769  10.535   6.353   4.630  0.1636  0.0554  0.3159
  337PEP     CB 9770  10.798   6.537   4.401 -0.0460  0.1977 -0.1030
  337PEP     CB 9771  10.924   6.563   3.983 -0.0969  0.0382  0.0246
  337PEP     CB 9772  11.105   6.584   3.640  0.0410  0.0328 -0.2300
  337PEP     CB 9773  11.422   6.406   3.359 -0.0718  0.1565 -0.0804
  337PEP     CB 9774  11.511   6.157   2.995 -0.1593  0.1136 -0.4543
  337PEP     CB 9775  11.582   6.100   2.511 -0.0532 -0.4680 -0.0906
  337PEP     CB 9776  11.638   6.055   2.011  0.3353  0.1709 -0.3156
  337PEP     CB 9777  11.816   6.094   1.594 -0.0237 -0.3700 -0.3171
  337PEP     CB 9778  11.693   6.254   1.164 -0.1382  0.1595  0.1227
  337PEP     CB 9779  11.462   6.342   0.755  0.0479  0.0409  0.0388
  337PEP     CB 9780  11.169   6.130   0.632 -0.0708  0.1878 -0.0988
  337PEP     CB 9781  10.918   5.878   0.925 -0.3292  0.0584 -0.0106
  337PEP     CB 9782  10.814   5.920   1.383 -0.4249  0.0020 -0.3772
  337PEP     CB 9783  10.765   6.257   1.737  0.1781 -0.0923 -0.0964
  337PEP     CB 9784  10.568   6.586   1.790  0.0304 -0.0358 -0.1156
  337PEP     CB 9785  10.214   6.765   1.554 -0.0125 -0.0626  0.4461
  337PEP     CB 9786   9.819   6.627   1.500  0.3303  0.0567  0.5310
  337PEP     CB 9787   9.585   6.206   1.623 -0.6399 -0.2824 -0.2362
  337PEP     CB 9788   9.732   5.899   1.904 -0.0658 -0.0074 -0.1991
  337PEP     CB 9789   9.947   6.002   2.281  0.3487 -0.0672 -0.1845
  337PEP     CB 9790  10.146   6.357   2.369  0.1850  0.0173 -0.0303
  337PEP     CB 9791  10.325   6.682   2.155 -0.0884 -0.2088  0.2421
  337PEP     CB 9792  10.333   7.074   1.951  0.3157 -0.1996 -0.3862
  337PEP     CB 9793  10.600   7.421   1.842  0.1042  0.1601  0.2308
  337PEP     CB 9794  11.038   7.623   1.752  0.3836 -0.1288 -0.2990
  337PEP     CB 9795  10.994   7.894   1.351  0.0900  0.4627  0.3342
  337PEP     CB 9796  10.719   7.672   1.035  0.1756  0.0122  0.0572
  337PEP     CB 9797  10.804   7.253   0.973 -0.4473 -0.1674 -0.2274
  337PEP     CB 9798  11.128   7.106   1.283 -0.4290  0.2083  0.1150
  337PEP     CB 9799  11.626   7.179   1.157 -0.0883 -0.0818 -0.0680
  337PEP     CB 9800  11.701   7.484   0.854 -0.1054 -0.0929  0.3261
  338PEP     CB 9801  13.926  21.486   7.726 -0.0562  0.0279 -0.3159
  338PEP     CB 9802  14.018  21.116   8.073  0.1731 -0.0609  0.0913
  338PEP     CB 9803  14.329  21.002   8.300  0.1756  0.2504 -0.1576
  338PEP     CB 9804  14.549  21.025   8.711  0.0171 -0.4383  0.2562
  338PEP     CB 9805  14.910  20.750   8.893  0.1787 -0.2501 -0.0615
  338PEP     CB 9806  15.184  20.508   8.705 -0.2798 -0.2903 -0.5220
  338PEP     CB 9807  15.613  20.405   8.534  0.0800 -0.0401  0.1856
  338PEP     CB 9808  15.973  20.311   8.434 -0.1284 -0.0621 -0.0734
  338PEP     CB 9809  16.435  20.232   8.478 -0.2347 -0.5226 -0.2571
  338PEP     CB 9810  16.804  20.222   8.628 -0.0341  0.2255  0.3796
  338PEP     CB 9811  17.232  20.409   8.671  0.1280  0.0403  0.1936
  338PEP     CB 9812  17.641  20.631   8.738  0.0313  0.0930  0.4324
  338PEP     CB 9813  17.902  20.936   9.017 -0.1444 -0.2422 -0.2033
  338PEP     CB 9814  18.402  21.082   8.933  0.5331 -0.3703  0.4031
  338PEP     CB 9815  18.671  20.913   8.712  0.3771 -0.0847  0.2552
  338PEP     CB 9816  19.082  20.726   8.505 -0.1939 -0.0622  0.3224
  338PEP     CB 9817  19.329  20.578   8.322  0.1448 -0.0159  0.2940
  338PEP     CB 9818  19.697  20.740   7.948  0.2728 -0.0063 -0.2311
  338PEP     CB 9819  20.085  20.990   7.752  0.1584 -0.1445  0.1060
  338PEP     CB 9820  20.471  21.027   7.945  0.2177  0.1739  0.4255
  338PEP     CB 9821  20.789  20.868   8.131  0.0959 -0.2165  0.3105
  338PEP     CB 9822  20.901  20.682   8.449 -0.2798 -0.1280  0.0511
  338PEP     CB 9823  21.095  20.420   8.812  0.2374  0.1096 -0.2220
  338PEP     CB 9824  21.410  20.232   9.040  0.0475  0.1437 -0.1558
  338PEP     CB 9825  21.721  20.453   9.182 -0.0519  0.3042  0.3386
  338PEP     CB 9826  21.847  20.818   9.002 -0.4833 -0.0272  0.4768
  338PEP     CB 9827  21.803  20.795   8.534  0.2150  0.2253  0.4443
  338PEP     CB 9828  21.387  20.917   8.346 -0.0863  0.0067 -0.0673
  338PEP     CB 9829  21.084  21.180   8.642 -0.1694 -0.0628 -0.0423
  338PEP     CB 9830  20.831  21.170   9.034 -0.1395 -0.3515  0.1653
  338PEP     CB 9831  20.566  21.234   9.396  0.1147 -0.0022  0.2595
  338PEP     CB 9832  20.354  21.247   9.711 -0.2224 -0.2168  0.1724
  338PEP     CB 9833  20.201  21.262  10.119 -0.2862 -0.0450 -0.1612
  338PEP     CB 9834  19.917  21.170  10.481 -0.0049  0.1544  0.1410
  338PEP     CB 9835  19.854  20.746  10.733  0.0800  0.0390 -0.0954
  338PEP     CB 9836  20.253  20.545  11.041 -0.1223 -0.0817  0.2699
  338PEP     CB 9837  20.625  20.788  10.884  0.1162  0.0303  0.0244
  338PEP     CB 9838  20.607  21.128  10.596 -0.0773 -0.1345  0.1953
  338PEP     CB 9839  20.688  21.586  10.557  0.1679  0.3581 -0.0109
  338PEP     CB 9840  20.925  21.773  10.887 -0.2956 -0.2054  0.4689
  339PEP     CB 9841  12.343   8.039  18.939  0.0143  0.0676 -0.3179
  339PEP     CB 9842  12.157   8.165  18.540 -0.1562  0.0483 -0.2524
  339PEP     CB 9843  12.184   8.169  18.093  0.2894 -0.4764 -0.1700
  339PEP     CB 9844  12.087   8.114  17.772 -0.2970 -0.1345 -0.3495
  339PEP     CB 9845  11.852   8.305  17.422  0.0306 -0.3124  0.2595
  339PEP     CB 9846  11.760   8.757  17.273  0.2039 -0.1753 -0.5106
  339PEP     CB 9847  11.590   9.072  17.076  0.0331 -0.4632 -0.3714
  339PEP     CB 9848  11.577   9.551  17.014  0.0596 -0.2640  0.1657
  339PEP     CB 9849  11.498   9.973  16.943 -0.3026 -0.1094  0.0683
  339PEP     CB 9850  11.500  10.399  16.940  0.1577 -0.1962  0.2820
  339PEP     CB 9851  11.793  10.707  16.830 -0.0339 -0.0502 -0.1330
  339PEP     CB 9852  11.965  11.022  17.157 -0.0592  0.1404  0.1657
  339PEP     CB 9853  11.842  11.061  17.651 -0.2580 -0.1239 -0.4333
  339PEP     CB 9854  11.737  10.828  18.047 -0.0708  0.3993 -0.4420
  339PEP     CB 9855  11.845  10.537  18.253 -0.0021 -0.1004  0.0889
  339PEP     CB 9856  11.991  10.380  18.595  0.1361  0.1093 -0.0409
  339PEP     CB 9857  11.788  10.014  18.874 -0.1743 -0.2945  0.0833
  339PEP     CB 9858  11.412   9.671  18.989  0.0803 -0.2647  0.0498
  339PEP     CB 9859  11.217   9.355  19.255  0.3040  0.2481  0.2102
  339PEP     CB 9860  10.909   9.273  19.567  0.0477 -0.0098  0.0297
  339PEP     CB 9861  10.445   9.398  19.463  0.0848 -0.5310 -0.5038
  339PEP     CB 9862  10.279   9.694  19.232 -0.2957  0.2571 -0.0699
  339PEP     CB 9863  10.092  10.081  19.169  0.2659  0.3837 -0.0563
  339PEP     CB 9864  10.109  10.533  19.116 -0.2639  0.2009  0.0794
  339PEP     CB 9865  10.000  10.926  19.033  0.0465  0.3812 -0.3142
  339PEP     CB 9866  10.210  11.364  18.964 -0.4058 -0.0457  0.0850
  339PEP     CB 9867  10.469  11.792  19.084  0.2737  0.1056 -0.2243
  339PEP     CB 9868  10.627  12.198  19.308  0.0725  0.2569  0.0622
  339PEP     CB 9869  10.910  12.242  19.627 -0.0186 -0.1833 -0.0108
  339PEP     CB 9870  10.823  12.409  20.103  0.0103 -0.0664  0.2718
  339PEP     CB 9871  10.881  12.626  20.364  0.1375 -0.0449 -0.3305
  339PEP     CB 9872  10.945  12.849  20.710 -0.7287  0.1721  0.0608
  339PEP     CB 9873  11.039  13.063  21.092 -0.1273 -0.0142  0.1472
  339PEP     CB 9874  11.334  13.207  21.434 -0.1450 -0.2782  0.1289
  339PEP     CB 9875  11.504  13.278  21.840  0.1311 -0.1568  0.0422
  339PEP     CB 9876  11.668  13.319  22.277  0.0680 -0.0908  0.0848
  339PEP     CB 9877  11.876  13.298  22.557  0.1119 -0.0194 -0.3424
  339PEP     CB 9878  11.933  13.073  22.953  0.4041  0.1084 -0.0993
  339PEP     CB 9879  11.909  13.037  23.468 -0.1279 -0.1676 -0.1749
  339PEP     CB 9880  11.735  12.769  23.668 -0.0434 -0.0184  0.0629
  340PEP     CB 9881  17.318   2.045  11.898  0.2335  0.0761  0.0019
  340PEP     CB 9882  17.215   1.647  12.077 -0.0615  0.0639  0.1988
  340PEP     CB 9883  17.193   1.167  12.122 -0.0052  0.0212 -0.2905
  340PEP     CB 9884  17.304   0.690  12.222  0.0296  0.2847  0.0874
  340PEP     CB 9885  17.754   0.533  12.099 -0.2194  0.2232 -0.0330
  340PEP     CB 9886  18.253   0.653  12.046  0.0788 -0.4327 -0.0199
  340PEP     CB 9887  18.619   0.684  12.265 -0.0478 -0.0925  0.0638
  340PEP     CB 9888  18.651   0.889  12.693 -0.0901  0.1378 -0.2503
  340PEP     CB 9889  18.905   0.833  13.172  0.2012 -0.0449 -0.1679
  340PEP     CB 9890  19.092   0.567  13.545  0.1193 -0.2441 -0.0673
  340PEP     CB 9891  19.044   0.299  13.858  0.4016  0.2400  0.2378
  340PEP     CB 9892  18.925   0.218  14.248 -0.1068 -0.1912  0.0353
  340PEP     CB 9893  18.813   0.516  14.596 -0.3228  0.2121 -0.0410
  340PEP     CB 9894  18.742   0.794  14.954 -0.1572  0.1917  0.0550
  340PEP     CB 9895  18.345   0.710  15.161 -0.0161  0.0984  0.0257
  340PEP     CB 9896  17.974   0.809  15.241  0.0454 -0.2549 -0.0556
  340PEP     CB 9897  17.633   0.880  15.261 -0.1435  0.0129 -0.0240
  340PEP     CB 9898  17.301   1.061  15.017 -0.1807 -0.3672  0.0846
  340PEP     CB 9899  17.021   1.309  14.815  0.1451  0.2474  0.0644
  340PEP     CB 9900  16.796   1.651  14.855  0.2467 -0.0989  0.2780
  340PEP     CB 9901  16.459   1.971  14.779  0.0768 -0.0547 -0.1611
  340PEP     CB 9902  16.320   2.240  15.079 -0.0590 -0.1147 -0.1421
  340PEP     CB 9903  16.481   2.189  15.507 -0.0443 -0.3364  0.2031
  340PEP     CB 9904  16.582   2.396  15.783 -0.0557  0.1516  0.0865
  340PEP     CB 9905  16.799   2.692  15.901  0.4586 -0.1519  0.0010
  340PEP     CB 9906  17.046   3.067  16.077  0.4639  0.3905  0.1814
  340PEP     CB 9907  16.950   3.438  16.127  0.2230  0.1387  0.1566
  340PEP     CB 9908  16.887   3.812  16.350 -0.1963 -0.0662 -0.0820
  340PEP     CB 9909  16.809   4.286  16.253 -0.3820 -0.0551  0.1177
  340PEP     CB 9910  16.651   4.605  15.929  0.1989 -0.0571  0.2845
  340PEP     CB 9911  16.294   4.849  15.750 -0.2024 -0.0846  0.3996
  340PEP     CB 9912  15.892   4.986  15.505  0.1515  0.1960 -0.0185
  340PEP     CB 9913  15.736   5.402  15.371  0.3464 -0.0041  0.0842
  340PEP     CB 9914  16.002   5.813  15.405  0.0099  0.4199 -0.3693
  340PEP     CB 9915  16.396   5.793  15.470 -0.1107  0.1701 -0.1792
  340PEP     CB 9916  16.562   5.514  15.789 -0.4518  0.3804 -0.1382
  340PEP     CB 9917  16.694   5.142  15.821  0.0600  0.0308  0.1135
  340PEP     CB 9918  16.742   4.901  15.433 -0.1588  0.3360 -0.2561
  340PEP     CB 9919  16.825   5.022  15.009  0.2578  0.2702  0.0879
  340PEP     CB 9920  16.831   5.298  14.721  0.4462  0.4633 -0.0041
  341PEP     CB 9921   2.848  15.918  18.067  0.2562 -0.2376 -0.2652
  341PEP     CB 9922   3.111  15.967  17.863  0.2703 -0.1104 -0.0243
  341PEP     CB 9923   3.450  16.023  17.549  0.5175 -0.0039 -0.2729
  341PEP     CB 9924   3.531  16.154  17.132  0.2393 -0.3109  0.1263
  341PEP     CB 9925   3.780  16.371  16.812  0.2606 -0.1970 -0.2048
  341PEP     CB 9926   3.859  16.796  16.722 -0.0779 -0.5314 -0.1195
  341PEP     CB 9927   4.014  17.141  16.983  0.2077  0.0456  0.2715
  341PEP     CB 9928   4.238  17.564  17.069 -0.3304 -0.1110 -0.1893
  341PEP     CB 9929   4.533  17.837  17.028 -0.3790  0.4117  0.1038
  341PEP     CB 9930   4.656  18.239  16.711  0.2060  0.2106 -0.1377
  341PEP     CB 9931   4.371  18.608  16.487 -0.0912  0.0326  0.1199
  341PEP     CB 9932   4.253  18.651  16.062  0.1251  0.4614  0.1993
  341PEP     CB 9933   4.376  19.004  15.811 -0.0516  0.0792  0.0902
  341PEP     CB 9934   4.195  19.446  15.648 -0.0369 -0.2420 -0.3515
  341PEP     CB 9935   3.892  19.651  15.474  0.2140 -0.0043 -0.0608
  341PEP     CB 9936   3.771  20.059  15.495 -0.0225 -0.1692 -0.1123
  341PEP     CB 9937   3.526  20.445  15.648  0.4340  0.1389  0.1565
  341PEP     CB 9938   3.362  20.801  15.470  0.2928 -0.4557  0.3380
  341PEP     CB 9939   3.393  21.205  15.371 -0.1227 -0.0275  0.1875
  341PEP     CB 9940   3.813  21.415  15.317 -0.1271 -0.1807 -0.0517
  341PEP     CB 9941   4.117  21.486  14.963 -0.1159 -0.4181 -0.2103
  341PEP     CB 9942   4.526  21.519  14.960 -0.0546 -0.2378 -0.1104
  341PEP     CB 9943   4.920  21.376  14.867 -0.1246 -0.0079 -0.1202
  341PEP     CB 9944   5.315  21.390  15.081 -0.4664 -0.3491 -0.1975
  341PEP     CB 9945   5.595  21.087  15.277  0.1229 -0.3220  0.3408
  341PEP     CB 9946   5.917  20.737  15.079  0.2539  0.2157 -0.2920
  341PEP     CB 9947   5.977  20.535  14.712  0.3143  0.2513  0.1924
  341PEP     CB 9948   6.051  20.211  14.430  0.1235 -0.1313  0.0876
  341PEP     CB 9949   5.933  19.832  14.119 -0.0067 -0.0264  0.3063
  341PEP     CB 9950   5.866  19.372  14.090 -0.3547  0.0103 -0.2871
  341PEP     CB 9951   5.725  18.920  14.162  0.2703 -0.0533 -0.0629
  341PEP     CB 9952   5.472  18.572  14.013 -0.2851 -0.0450 -0.5178
  341PEP     CB 9953   5.097  18.377  14.048 -0.0321  0.0363 -0.1654
  341PEP     CB 9954   4.795  18.061  14.191  0.1977  0.0698  0.2051
  341PEP     CB 9955   4.552  17.730  14.140 -0.2927  0.0973 -0.0393
  341PEP     CB 9956   4.266  17.504  13.922 -0.1136 -0.2881 -0.1225
  341PEP     CB 9957   4.088  17.231  13.608 -0.4276 -0.1961 -0.1410
  341PEP     CB 9958   3.571  16.939  13.679  0.1407 -0.2604 -0.2513
  341PEP     CB 9959   3.337  16.820  14.030  0.0306  0.0291  0.1899
  341PEP     CB 9960   3.159  16.555  14.344 -0.2702 -0.2456 -0.3558
  342PEP     CB 9961  13.637   9.554  19.936 -0.5345 -0.4179 -0.1338
  342PEP     CB 9962  13.873   9.640  20.258 -0.0605  0.2095  0.0830
  342PEP     CB 9963  14.176   9.798  20.508  0.2669  0.0669 -0.1640
  342PEP     CB 9964  14.541   9.852  20.677  0.1481 -0.0462  0.3708
  342PEP     CB 9965  15.037   9.987  20.733 -0.1392 -0.1055 -0.0152
  342PEP     CB 9966  15.508  10.012  20.674  0.0849 -0.1021  0.2078
  342PEP     CB 9967  15.874  10.027  20.589  0.2135  0.0627 -0.0290
  342PEP     CB 9968  16.153  10.395  20.711 -0.0926 -0.3616  0.2227
  342PEP     CB 9969  15.981  10.723  20.941 -0.0679  0.3352 -0.2392
  342PEP     CB 9970  15.728  11.043  20.805  0.2150 -0.3413 -0.2302
  342PEP     CB 9971  15.594  11.290  20.725 -0.1772  0.2057  0.0908
  342PEP     CB 9972  15.356  11.478  20.419  0.1231  0.3408  0.4916
  342PEP     CB 9973  14.912  11.503  20.352 -0.4215  0.4103 -0.0590
  342PEP     CB 9974  14.506  11.535  20.103 -0.1987  0.1071  0.1263
  342PEP     CB 9975  14.133  11.364  19.762 -0.1778 -0.0457  0.0506
  342PEP     CB 9976  14.004  11.135  19.403 -0.0289  0.0612 -0.2119
  342PEP     CB 9977  13.743  10.742  19.283 -0.1096 -0.0282 -0.4139
  342PEP     CB 9978  13.738  10.359  19.546 -0.0997 -0.3273  0.0511
  342PEP     CB 9979  13.631  10.154  19.965  0.0667 -0.6604 -0.3704
  342PEP     CB 9980  13.428   9.920  20.359  0.1333 -0.2283 -0.3074
  342PEP     CB 9981  13.206  10.016  20.681 -0.2421  0.3561  0.2257
  342PEP     CB 9982  12.928  10.281  20.865  0.4594  0.2327 -0.1699
  342PEP     CB 9983  12.706  10.365  21.254 -0.0891  0.1414  0.3121
  342PEP     CB 9984  12.551  10.485  21.555  0.0629  0.1640  0.2649
  342PEP     CB 9985  12.348  10.432  21.910  0.0564  0.2214  0.1745
  342PEP     CB 9986  12.048  10.269  22.211 -0.1016 -0.1047  0.1465
  342PEP     CB 9987  11.867   9.877  22.490 -0.0090  0.1579 -0.1534
  342PEP     CB 9988  11.835   9.802  22.901  0.1367 -0.1391  0.2357
  342PEP     CB 9989  11.923  10.154  23.251  0.0363 -0.1062  0.1440
  342PEP     CB 9990  12.023  10.524  23.451 -0.1029 -0.1764  0.1111
  342PEP     CB 9991  12.207  10.715  23.754  0.1073  0.2413  0.0244
  342PEP     CB 9992  12.578  10.608  24.026 -0.1737 -0.4341  0.2516
  342PEP     CB 9993  13.021  10.725  24.013 -0.2969 -0.2024 -0.0837
  342PEP     CB 9994  13.273  11.051  23.865 -0.0162 -0.0781 -0.1941
  342PEP     CB 9995  13.075  11.466  23.803 -0.0451  0.5438  0.2617
  342PEP     CB 9996  12.986  11.701  24.165 -0.1847  0.4574  0.4774
  342PEP     CB 9997  13.247  11.972  24.203 -0.1118  0.3628 -0.0408
  342PEP     CB 9998  13.767  11.897  24.023  0.1276 -0.0093 -0.0031
  342PEP     CB 9999  13.854  11.488  23.779  0.0224  0.5748 -0.1837
  342PEP     CB10000  13.741  11.301  23.395 -0.0255  0.2035  0.0705
  343PEP     CB10001   4.977  11.786   1.761  0.0832 -0.0639 -0.2422
  343PEP     CB10002   4.801  12.151   1.670 -0.2236  0.1913  0.2130
  343PEP     CB10003   4.570  12.441   1.829  0.0865 -0.2771  0.0117
  343PEP     CB10004   4.203  12.648   1.637  0.0128  0.1722 -0.0092
  343PEP     CB10005   4.167  12.606   1.200  0.1524  0.1843  0.2312
  343PEP     CB10006   4.428  12.751   0.932 -0.0011 -0.2569  0.3270
  343PEP     CB10007   4.593  12.678   0.474  0.2509 -0.0956  0.0185
  343PEP     CB10008   4.736  12.838   0.061 -0.1845  0.0767  0.0241
  343PEP     CB10009   4.960  13.099  -0.151 -0.0613  0.2230  0.1074
  343PEP     CB10010   5.298  13.000  -0.353  0.0627 -0.0997 -0.3490
  343PEP     CB10011   5.535  12.662  -0.577 -0.0787 -0.0755 -0.1279
  343PEP     CB10012   5.810  12.493  -0.794  0.1810 -0.0263  0.3855
  343PEP     CB10013   5.994  12.360  -1.133  0.1155  0.2511 -0.0964
  343PEP     CB10014   6.049  12.417  -1.617 -0.0221  0.0023  0.1979
  343PEP     CB10015   6.148  12.455  -2.071 -0.0645 -0.2782 -0.1101
  343PEP     CB10016   6.110  12.364  -2.518 -0.0429  0.1641  0.0958
  343PEP     CB10017   6.439  12.189  -2.789 -0.1279 -0.0705  0.0192
  343PEP     CB10018   6.655  11.794  -2.715 -0.2140  0.1154 -0.0174
  343PEP     CB10019   6.960  11.731  -2.402 -0.2391  0.0082 -0.2390
  343PEP     CB10020   7.287  11.935  -2.171 -0.0065 -0.0983  0.0589
  343PEP     CB10021   7.395  12.046  -1.767  0.1929 -0.2830  0.3652
  343PEP     CB10022   7.579  11.808  -1.474  0.3934  0.1468  0.0319
  343PEP     CB10023   7.711  11.552  -1.098 -0.0239  0.2722 -0.4502
  343PEP     CB10024   7.960  11.689  -0.798  0.0498 -0.1861 -0.1140
  343PEP     CB10025   8.348  11.911  -0.768 -0.3684  0.2077 -0.0896
  343PEP     CB10026   8.600  12.190  -0.638 -0.0299 -0.3259 -0.0471
  343PEP     CB10027   8.990  12.359  -0.379 -0.5006  0.1276  0.0649
  343PEP     CB10028   9.305  12.208  -0.138 -0.1349  0.1294 -0.1269
  343PEP     CB10029   9.455  11.938   0.191 -0.1253 -0.1051 -0.1507
  343PEP     CB10030   9.753  11.594   0.201 -0.1019  0.3834 -0.1145
  343PEP     CB10031   9.990  11.347  -0.011  0.1709  0.1953 -0.0814
  343PEP     CB10032  10.208  11.244  -0.259  0.3282 -0.3507 -0.2363
  343PEP     CB10033  10.435  11.173  -0.596  0.6508  0.1389 -0.2223
  343PEP     CB10034  10.833  10.991  -0.703  0.1502 -0.0605  0.0266
  343PEP     CB10035  11.124  10.712  -0.908  0.3645  0.1540 -0.1656
  343PEP     CB10036  11.153  10.381  -1.282 -0.4402  0.0105 -0.0453
  343PEP     CB10037  11.000  10.295  -1.643  0.2301  0.0959  0.0514
  343PEP     CB10038  10.857  10.258  -2.010  0.7629  0.3306 -0.0325
  343PEP     CB10039  10.534  10.184  -2.264  0.3819  0.1256 -0.3862
  343PEP     CB10040  10.211  10.354  -2.502  0.3220  0.1531  0.4520
  344PEP     CB10041  12.055   7.958   4.868 -0.3075  0.0026 -0.0460
  344PEP     CB10042  11.782   7.836   5.237 -0.1958 -0.0270  0.2168
  344PEP     CB10043  11.367   7.959   5.410  0.0352  0.0132  0.0677
  344PEP     CB10044  11.097   8.265   5.747 -0.3194  0.0723 -0.4112
  344PEP     CB10045  10.916   8.625   5.901 -0.0595 -0.2608  0.2599
  344PEP     CB10046  10.999   8.963   6.204  0.1642 -0.3945 -0.1570
  344PEP     CB10047  10.687   9.106   6.448  0.0920 -0.2968  0.1771
  344PEP     CB10048  10.359   9.394   6.246 -0.1189 -0.1521 -0.1712
  344PEP     CB10049  10.035   9.702   6.383 -0.1129  0.3527  0.0009
  344PEP     CB10050   9.915  10.142   6.444  0.2431 -0.3310 -0.4651
  344PEP     CB10051  10.188  10.604   6.467  0.2547  0.0023 -0.2964
  344PEP     CB10052  10.514  10.927   6.493  0.0820  0.0651  0.2255
  344PEP     CB10053  10.651  11.339   6.380  0.2803  0.0523  0.1167
  344PEP     CB10054  10.978  11.701   6.366 -0.0259 -0.1529  0.0706
  344PEP     CB10055  10.871  12.038   6.073  0.0591  0.0079 -0.3650
  344PEP     CB10056  11.002  12.352   5.727  0.1243 -0.3394 -0.0150
  344PEP     CB10057  11.066  12.580   5.340  0.1049  0.0682 -0.3036
  344PEP     CB10058  10.983  12.624   4.990 -0.0537  0.2183  0.2098
  344PEP     CB10059  10.605  12.501   4.794  0.1906  0.3681 -0.2197
  344PEP     CB10060  10.399  12.616   4.399  0.3669  0.1204  0.1750
  344PEP     CB10061  10.054  12.872   4.194  0.2456  0.3140 -0.0667
  344PEP     CB10062   9.953  12.866   3.831 -0.1669  0.0388  0.2514
  344PEP     CB10063   9.985  12.542   3.531  0.0260 -0.0744 -0.1599
  344PEP     CB10064  10.389  12.278   3.539 -0.0775  0.0143 -0.4724
  344PEP     CB10065  10.848  12.282   3.752 -0.0299 -0.0967  0.2711
  344PEP     CB10066  10.922  12.284   4.151 -0.1782 -0.1392  0.1351
  344PEP     CB10067  10.690  12.138   4.502  0.2163  0.0633 -0.3627
  344PEP     CB10068  10.349  11.824   4.438  0.2155  0.1165 -0.0176
  344PEP     CB10069  10.024  11.927   4.087  0.0108  0.2154  0.2659
  344PEP     CB10070   9.933  12.327   4.031  0.0593 -0.6564  0.0522
  344PEP     CB10071   9.884  12.477   4.405  0.3180 -0.1044  0.1779
  344PEP     CB10072  10.136  12.271   4.716 -0.4040  0.0327  0.3148
  344PEP     CB10073  10.307  11.972   4.984  0.2274  0.1698  0.2655
  344PEP     CB10074  10.247  11.714   5.319 -0.0859 -0.0866  0.0312
  344PEP     CB10075  10.147  11.515   5.536  0.0747  0.1030  0.1646
  344PEP     CB10076  10.021  11.327   5.881  0.0898  0.2909 -0.5159
  344PEP     CB10077   9.709  11.111   6.165 -0.1351  0.0287 -0.1629
  344PEP     CB10078   9.478  11.246   6.485 -0.0079 -0.0345  0.1912
  344PEP     CB10079   9.099  11.304   6.769 -0.1894 -0.1669 -0.1617
  344PEP     CB10080   8.806  11.032   7.163 -0.3084 -0.4657  0.1475
  345PEP     CB10081   8.395   5.544   3.632 -0.3641 -0.0716 -0.1825
  345PEP     CB10082   8.336   5.449   4.057  0.3274  0.1839  0.2003
  345PEP     CB10083   8.244   5.302   4.416  0.1756  0.0663  0.6945
  345PEP     CB10084   7.947   5.010   4.554 -0.1132  0.1572  0.1497
  345PEP     CB10085   7.701   5.038   5.001 -0.2327  0.0788  0.2532
  345PEP     CB10086   7.695   4.803   5.344 -0.0747 -0.0223  0.1274
  345PEP     CB10087   8.062   4.521   5.470 -0.2499 -0.3557 -0.0457
  345PEP     CB10088   8.397   4.182   5.582  0.2662 -0.4398 -0.5452
  345PEP     CB10089   8.291   3.668   5.569  0.0033  0.3364 -0.0456
  345PEP     CB10090   7.921   3.476   5.671 -0.2055  0.1780  0.1011
  345PEP     CB10091   7.509   3.556   5.553 -0.0689  0.3729  0.0578
  345PEP     CB10092   7.161   3.906   5.705 -0.2078  0.0542 -0.0584
  345PEP     CB10093   6.696   3.972   5.989 -0.1236 -0.6049 -0.3991
  345PEP     CB10094   6.557   3.947   6.407  0.0284  0.1197  0.3047
  345PEP     CB10095   6.298   4.113   6.788 -0.5273 -0.1854  0.1969
  345PEP     CB10096   6.081   4.355   7.048 -0.1694  0.2831  0.0446
  345PEP     CB10097   5.683   4.387   7.175  0.2890 -0.2817  0.0560
  345PEP     CB10098   5.364   4.405   6.832 -0.1047 -0.0399  0.1032
  345PEP     CB10099   5.489   4.484   6.380  0.2125  0.0552  0.0110
  345PEP     CB10100   5.832   4.510   6.307 -0.2580 -0.1664  0.2239
  345PEP     CB10101   6.233   4.564   6.531 -0.1151  0.0555  0.3742
  345PEP     CB10102   6.442   4.707   6.859 -0.0438  0.2575 -0.0212
  345PEP     CB10103   6.685   4.922   6.922 -0.1321  0.1205 -0.3821
  345PEP     CB10104   7.064   5.203   6.957  0.5335 -0.1652  0.0642
  345PEP     CB10105   7.421   5.487   7.104 -0.1450 -0.1789  0.1213
  345PEP     CB10106   7.672   5.804   7.324 -0.4336 -0.0299  0.0903
  345PEP     CB10107   7.479   6.228   7.237 -0.2942  0.1290 -0.2124
  345PEP     CB10108   7.147   6.255   6.950 -0.1266  0.2108  0.3217
  345PEP     CB10109   7.134   6.216   6.461 -0.1698  0.0896  0.0510
  345PEP     CB10110   7.490   6.240   6.140  0.2424  0.0853  0.1107
  345PEP     CB10111   7.852   6.315   5.785  0.0311  0.0402  0.2644
  345PEP     CB10112   8.190   6.153   5.377 -0.2945 -0.2030 -0.2139
  345PEP     CB10113   8.286   5.846   5.061  0.2767  0.3650  0.0853
  345PEP     CB10114   8.545   5.615   4.723  0.2460 -0.1098  0.0649
  345PEP     CB10115   8.920   5.327   4.738  0.0449 -0.0045  0.0530
  345PEP     CB10116   8.883   4.934   4.798  0.1170 -0.2225 -0.0517
  345PEP     CB10117   8.763   4.543   4.723 -0.0245  0.1304  0.4138
  345PEP     CB10118   8.705   4.088   4.829  0.1744 -0.3464 -0.1762
  345PEP     CB10119   8.437   3.898   4.951  0.1094 -0.0731 -0.1832
  345PEP     CB10120   8.096   3.903   5.170  0.3725  0.0257  0.1879
  346PEP     CB10121  13.267  10.747  17.739 -0.0575 -0.0243  0.0676
  346PEP     CB10122  13.476  10.393  18.051 -0.0092  0.4249 -0.1559
  346PEP     CB10123  13.903  10.187  17.938  0.2147 -0.0518  0.0028
  346PEP     CB10124  14.012   9.753  17.676 -0.0458 -0.0335 -0.0686
  346PEP     CB10125  13.618   9.492  17.593  0.1251  0.2570 -0.1543
  346PEP     CB10126  13.328   9.158  17.910  0.0272 -0.2375  0.4752
  346PEP     CB10127  13.134   9.003  18.210 -0.0489  0.0102  0.2192
  346PEP     CB10128  13.103   8.751  18.598  0.4532  0.2928 -0.1228
  346PEP     CB10129  13.217   8.713  19.051 -0.2627 -0.2477 -0.1611
  346PEP     CB10130  13.332   8.659  19.500  0.1185  0.4203 -0.1692
  346PEP     CB10131  13.334   8.845  19.872  0.1887  0.2616 -0.2576
  346PEP     CB10132  13.623   8.994  20.137  0.0672 -0.0770 -0.0551
  346PEP     CB10133  14.114   8.849  20.017 -0.5239 -0.3238  0.0239
  346PEP     CB10134  14.495   8.600  19.987  0.1829 -0.1196 -0.3303
  346PEP     CB10135  14.927   8.561  20.085 -0.4217  0.2480  0.1010
  346PEP     CB10136  15.086   8.328  20.286 -0.1707 -0.1151 -0.4187
  346PEP     CB10137  15.136   7.900  20.111 -0.0093  0.2729 -0.3227
  346PEP     CB10138  15.296   7.664  19.741 -0.1564  0.2230 -0.2349
  346PEP     CB10139  15.214   7.235  19.550 -0.0929 -0.3150 -0.2374
  346PEP     CB10140  15.341   6.779  19.455  0.2053  0.1782  0.4193
  346PEP     CB10141  15.300   6.547  19.111 -0.5371 -0.0377  0.0314
  346PEP     CB10142  15.041   6.319  18.787 -0.1610  0.3565 -0.3096
  346PEP     CB10143  14.602   6.559  18.617 -0.6199 -0.2205  0.4726
  346PEP     CB10144  14.577   6.940  18.504 -0.4693  0.1960  0.0835
  346PEP     CB10145  14.919   7.314  18.697  0.3694 -0.2991  0.2435
  346PEP     CB10146  15.325   7.195  18.825  0.3561  0.2564  0.0574
  346PEP     CB10147  15.669   6.967  19.037 -0.1992  0.0049 -0.3915
  346PEP     CB10148  15.889   6.732  19.267 -0.0039 -0.1284  0.2391
  346PEP     CB10149  16.131   6.514  19.590  0.3841 -0.0672 -0.4454
  346PEP     CB10150  16.303   6.166  19.842  0.0593  0.2668 -0.0518
  346PEP     CB10151  16.221   6.066  20.256  0.0479  0.2158 -0.0631
  346PEP     CB10152  16.237   6.274  20.675  0.0601 -0.0037 -0.1069
  346PEP     CB10153  16.169   6.613  20.942  0.0172  0.0133  0.1800
  346PEP     CB10154  16.182   7.031  21.261 -0.0845 -0.1082  0.0512
  346PEP     CB10155  16.040   7.125  21.684 -0.4618 -0.0881 -0.2570
  346PEP     CB10156  16.104   7.484  21.944 -0.2415 -0.2507 -0.2605
  346PEP     CB10157  16.140   7.869  21.800 -0.0607  0.2497  0.1168
  346PEP     CB10158  16.160   8.308  21.895  0.3505  0.0232 -0.0275
  346PEP     CB10159  16.106   8.455  22.320  0.3541  0.3421  0.1200
  346PEP     CB10160  16.176   8.526  22.843  0.1606  0.3891 -0.0866
  347PEP     CB10161  11.238  17.986  13.337 -0.0997 -0.1660 -0.0194
  347PEP     CB10162  10.956  18.241  13.235 -0.1153 -0.1562 -0.0640
  347PEP     CB10163  10.638  18.526  13.403 -0.1562 -0.1293  0.0338
  347PEP     CB10164  10.330  18.725  13.748  0.0278  0.1388 -0.6021
  347PEP     CB10165  10.290  18.752  14.220  0.4481  0.0605  0.3783
  347PEP     CB10166  10.278  18.991  14.562  0.0952 -0.1950  0.0012
  347PEP     CB10167  10.341  19.426  14.754 -0.0132 -0.2774  0.3437
  347PEP     CB10168  10.318  19.730  14.972 -0.2425  0.2345  0.0241
  347PEP     CB10169  10.265  20.128  15.281  0.5739 -0.1449 -0.2722
  347PEP     CB10170  10.415  20.420  15.728 -0.0011  0.0755  0.0704
  347PEP     CB10171  10.274  20.487  16.106  0.0141 -0.1849  0.0333
  347PEP     CB10172  10.394  20.709  16.431 -0.0276  0.1540  0.1617
  347PEP     CB10173  10.249  20.836  16.793  0.1609 -0.1489 -0.2839
  347PEP     CB10174   9.825  21.050  16.917  0.3283 -0.3019 -0.2891
  347PEP     CB10175   9.571  21.350  16.695  0.0628 -0.0059 -0.4182
  347PEP     CB10176   9.477  21.879  16.803 -0.2910  0.0245  0.3296
  347PEP     CB10177   9.218  22.254  16.791  0.0720 -0.3980 -0.2713
  347PEP     CB10178   9.073  22.528  17.039  0.4276 -0.0225 -0.0294
  347PEP     CB10179   9.173  23.009  17.156  0.1720  0.2494 -0.1598
  347PEP     CB10180   9.255  23.382  16.866  0.0215  0.3153  0.1000
  347PEP     CB10181   9.569  23.548  16.625  0.1324  0.2068 -0.1483
  347PEP     CB10182   9.744  23.533  16.277 -0.2125 -0.2558 -0.1046
  347PEP     CB10183   9.757  23.163  16.008  0.3775 -0.2802 -0.1536
  347PEP     CB10184   9.708  22.732  16.078 -0.2453  0.0601 -0.4175
  347PEP     CB10185   9.851  22.201  15.993  0.2831 -0.0067  0.0660
  347PEP     CB10186   9.837  21.869  15.741 -0.0709  0.2655  0.2645
  347PEP     CB10187   9.773  21.438  15.612 -0.1108 -0.0127  0.2177
  347PEP     CB10188   9.675  21.003  15.680  0.0069  0.0002  0.2083
  347PEP     CB10189   9.261  20.771  15.879 -0.0281  0.2392  0.4002
  347PEP     CB10190   8.910  20.563  15.966 -0.1012 -0.4116  0.3623
  347PEP     CB10191   8.483  20.405  15.682 -0.0636 -0.0494  0.0291
  347PEP     CB10192   8.154  20.137  15.554  0.1145 -0.3565 -0.0302
  347PEP     CB10193   8.173  19.851  15.232 -0.5120  0.0543 -0.1589
  347PEP     CB10194   8.591  19.641  15.080  0.1520  0.4671 -0.2050
  347PEP     CB10195   8.992  19.720  15.255  0.1268  0.4553 -0.0753
  347PEP     CB10196   9.133  20.107  15.353 -0.4216  0.0436 -0.3008
  347PEP     CB10197   8.928  20.595  15.407 -0.3013  0.0789 -0.6029
  347PEP     CB10198   8.759  20.860  15.015  0.0433  0.0037  0.0863
  347PEP     CB10199   8.765  20.834  14.552  0.0671 -0.1082 -0.0675
  347PEP     CB10200   9.018  20.939  14.264 -0.0353  0.3379 -0.3285
  348PEP     CB10201   8.523   1.639   1.396 -0.2281  0.0235 -0.2469
  348PEP     CB10202   8.454   2.026   1.508  0.2581  0.0809 -0.2614
  348PEP     CB10203   8.405   2.280   1.787  0.1268 -0.5522 -0.0120
  348PEP     CB10204   8.128   2.650   1.759 -0.1753 -0.1309 -0.5750
  348PEP     CB10205   7.833   2.793   1.419  0.2981  0.0691 -0.3225
  348PEP     CB10206   7.548   2.849   1.053 -0.0871 -0.1448 -0.1995
  348PEP     CB10207   7.098   2.876   0.883  0.5344 -0.1844 -0.0913
  348PEP     CB10208   6.868   2.636   0.540 -0.4070  0.0674 -0.1457
  348PEP     CB10209   6.921   2.190   0.426  0.5364 -0.1587  0.1975
  348PEP     CB10210   6.665   1.940   0.245  0.0390 -0.2860 -0.0086
  348PEP     CB10211   6.162   1.984   0.265 -0.2008 -0.2130 -0.2001
  348PEP     CB10212   5.893   2.283   0.271 -0.3854 -0.4491  0.1723
  348PEP     CB10213   5.505   2.499   0.458  0.0897  0.1142  0.1735
  348PEP     CB10214   5.146   2.699   0.677 -0.5699  0.2348 -0.0383
  348PEP     CB10215   4.700   2.607   0.729  0.2451  0.0577 -0.0859
  348PEP     CB10216   4.286   2.439   0.640 -0.5161 -0.1395  0.3484
  348PEP     CB10217   3.884   2.677   0.586 -0.2139 -0.5491  0.6025
  348PEP     CB10218   3.707   3.083   0.767  0.1255 -0.1046 -0.3692
  348PEP     CB10219   3.600   3.422   0.467  0.1921 -0.1518  0.0744
  348PEP     CB10220   3.816   3.429   0.075 -0.1162 -0.1056  0.0195
  348PEP     CB10221   3.928   3.065  -0.232 -0.2560  0.0755  0.4805
  348PEP     CB10222   3.962   2.633  -0.483  0.1079 -0.1647  0.1976
  348PEP     CB10223   4.261   2.240  -0.457 -0.1247  0.1793 -0.0544
  348PEP     CB10224   4.199   1.836  -0.326  0.1823  0.2479  0.1408
  348PEP     CB10225   4.264   1.432  -0.431  0.0015 -0.1183 -0.1436
  348PEP     CB10226   4.459   1.314  -0.918  0.3924  0.0785 -0.0478
  348PEP     CB10227   4.832   1.380  -0.965 -0.1113  0.0691  0.2001
  348PEP     CB10228   5.260   1.599  -0.991 -0.1023  0.2447 -0.0227
  348PEP     CB10229   5.556   1.962  -0.929  0.0040 -0.1396 -0.1296
  348PEP     CB10230   5.892   2.035  -0.683  0.1793 -0.1819 -0.3324
  348PEP     CB10231   6.150   1.683  -0.541  0.3800 -0.1467  0.1833
  348PEP     CB10232   6.071   1.218  -0.551  0.1023 -0.2078  0.2403
  348PEP     CB10233   5.979   0.808  -0.393 -0.2299 -0.0899  0.1897
  348PEP     CB10234   5.940   0.600   0.064 -0.0682  0.1989 -0.0121
  348PEP     CB10235   6.221   0.579   0.380 -0.2648  0.1170 -0.3401
  348PEP     CB10236   6.475   0.688   0.793 -0.0660 -0.2904  0.1049
  348PEP     CB10237   6.485   0.990   1.169  0.0512 -0.3122 -0.0170
  348PEP     CB10238   6.571   1.396   1.227  0.2788 -0.0478  0.2263
  348PEP     CB10239   6.864   1.688   1.436  0.1856  0.3120  0.3089
  348PEP     CB10240   7.143   2.027   1.514  0.1054  0.0709 -0.0423
  349PEP     CB10241   6.409  16.040  15.502  0.5558  0.2238  0.2049
  349PEP     CB10242   6.225  15.707  15.621 -0.2849  0.6118  0.0515
  349PEP     CB10243   5.892  15.490  15.903 -0.0050 -0.0655 -0.3821
  349PEP     CB10244   5.414  15.699  16.022 -0.2143  0.0496 -0.2529
  349PEP     CB10245   5.050  15.836  15.794  0.1910 -0.2151 -0.3358
  349PEP     CB10246   5.015  15.764  15.313  0.2178  0.0122  0.1358
  349PEP     CB10247   5.319  15.665  14.938  0.1505  0.1253  0.1447
  349PEP     CB10248   5.709  15.886  14.849 -0.1050 -0.1895  0.0735
  349PEP     CB10249   6.129  15.851  15.042 -0.1561  0.0150  0.1963
  349PEP     CB10250   6.515  15.695  15.137  0.5606 -0.1316 -0.2681
  349PEP     CB10251   6.865  15.549  14.916  0.0640 -0.3043 -0.1171
  349PEP     CB10252   6.865  15.279  14.587  0.2169 -0.3986  0.1220
  349PEP     CB10253   6.700  14.951  14.274  0.3995  0.1692 -0.1278
  349PEP     CB10254   6.829  14.889  13.856 -0.1755 -0.1516  0.1082
  349PEP     CB10255   7.041  15.147  13.647  0.1296 -0.0638 -0.4304
  349PEP     CB10256   6.886  15.597  13.461 -0.3322 -0.0267 -0.2587
  349PEP     CB10257   6.482  15.633  13.320  0.4079  0.0948 -0.1478
  349PEP     CB10258   6.093  15.714  13.022  0.1140  0.2371  0.1525
  349PEP     CB10259   5.811  15.788  12.712  0.3190 -0.2332 -0.0402
  349PEP     CB10260   5.399  15.808  12.552  0.1893  0.2300  0.2427
  349PEP     CB10261   5.215  15.956  12.202  0.2886 -0.2644 -0.0953
  349PEP     CB10262   5.289  16.328  11.938 -0.1870 -0.2799  0.0407
  349PEP     CB10263   5.266  16.602  11.587  0.2754  0.1250  0.1070
  349PEP     CB10264   5.197  16.673  11.079  0.2554 -0.0093  0.2359
  349PEP     CB10265   5.312  16.975  10.772 -0.4678  0.0508 -0.6564
  349PEP     CB10266   5.384  17.417  10.688 -0.0813  0.2254  0.4846
  349PEP     CB10267   5.213  17.782  10.927 -0.6375 -0.2346 -0.0907
  349PEP     CB10268   4.801  17.899  11.177  0.3364 -0.1182 -0.0935
  349PEP     CB10269   4.520  17.931  11.511 -0.1095  0.0436  0.1133
  349PEP     CB10270   4.405  17.835  11.960 -0.0780 -0.0241  0.0525
  349PEP     CB10271   4.366  17.832  12.381  0.1957  0.1918 -0.0560
  349PEP     CB10272   4.106  17.573  12.695  0.2619  0.1691 -0.0925
  349PEP     CB10273   3.791  17.393  12.822  0.1079  0.1881  0.1333
  349PEP     CB10274   3.462  17.395  13.062 -0.4577 -0.1173  0.1772
  349PEP     CB10275   3.098  17.269  13.335 -0.0144  0.0302 -0.0217
  349PEP     CB10276   2.985  17.040  13.716 -0.0848  0.1412  0.1896
  349PEP     CB10277   2.902  16.802  13.935 -0.1532  0.1478 -0.4453
  349PEP     CB10278   2.656  16.635  14.244 -0.5032  0.3051 -0.2119
  349PEP     CB10279   2.641  16.496  14.661  0.1220  0.2544 -0.0133
  349PEP     CB10280   2.948  16.509  14.948 -0.0048 -0.2567 -0.2506
  350PEP     CB10281  13.516   0.811   9.902  0.3701 -0.1704  0.2067
  350PEP     CB10282  13.091   0.745   9.877 -0.3077  0.1705  0.0432
  350PEP     CB10283  12.827   0.356   9.914  0.0371 -0.1333  0.1914
  350PEP     CB10284  12.970  -0.073   9.733  0.1682  0.1538 -0.2473
  350PEP     CB10285  13.417  -0.192   9.797 -0.2469 -0.5326  0.1641
  350PEP     CB10286  13.804   0.115   9.808 -0.2211  0.0244 -0.2388
  350PEP     CB10287  13.797   0.393  10.161 -0.0054 -0.0963 -0.0113
  350PEP     CB10288  13.545   0.628  10.389 -0.1453 -0.1254  0.3047
  350PEP     CB10289  13.133   0.453  10.576 -0.3847  0.0313 -0.3677
  350PEP     CB10290  12.756   0.437  10.417  0.0654 -0.4014  0.0808
  350PEP     CB10291  12.427   0.686  10.160  0.0699  0.0131  0.2901
  350PEP     CB10292  11.970   0.790  10.070 -0.2528 -0.1856  0.0860
  350PEP     CB10293  11.515   0.918  10.072 -0.1425  0.0977 -0.3502
  350PEP     CB10294  11.132   0.772   9.994  0.3238 -0.0631  0.0879
  350PEP     CB10295  10.837   0.610   9.752 -0.3751 -0.1227 -0.1747
  350PEP     CB10296  10.875   0.409   9.271  0.1733 -0.4889 -0.0693
  350PEP     CB10297  10.818   0.341   8.927  0.3754  0.0535  0.1754
  350PEP     CB10298  10.619   0.513   8.562  0.1603  0.1048 -0.5396
  350PEP     CB10299  10.475   0.979   8.473 -0.0517 -0.2601 -0.1407
  350PEP     CB10300  10.431   1.316   8.741 -0.0787  0.1076 -0.2306
  350PEP     CB10301  10.156   1.388   9.117  0.0993 -0.0460  0.1214
  350PEP     CB10302   9.831   1.035   9.275 -0.0217 -0.0457  0.0404
  350PEP     CB10303   9.791   0.641   9.398 -0.1380  0.0525 -0.0297
  350PEP     CB10304   9.403   0.401   9.278 -0.0094 -0.0410 -0.0991
  350PEP     CB10305   8.982   0.638   9.054 -0.0765 -0.1459  0.2576
  350PEP     CB10306   8.900   0.756   8.666 -0.0843 -0.2820  0.0939
  350PEP     CB10307   8.855   0.691   8.206  0.0991  0.2100 -0.2102
  350PEP     CB10308   8.702   0.523   7.894 -0.1101 -0.0454 -0.3074
  350PEP     CB10309   8.647   0.181   7.620  0.4324  0.1726 -0.2348
  350PEP     CB10310   8.763  -0.068   7.249 -0.2466 -0.3307  0.3407
  350PEP     CB10311   8.853  -0.439   7.042  0.4053 -0.0194 -0.0172
  350PEP     CB10312   9.090  -0.723   6.709  0.0367  0.4869 -0.0382
  350PEP     CB10313   9.489  -0.905   6.687 -0.4515  0.0445  0.0195
  350PEP     CB10314   9.693  -1.202   7.127  0.0641 -0.0194 -0.0659
  350PEP     CB10315   9.668  -1.638   7.347 -0.2134  0.1832  0.0080
  350PEP     CB10316   9.947  -1.868   7.546 -0.1903  0.1754  0.0431
  350PEP     CB10317  10.236  -2.098   7.716  0.0729 -0.1453  0.3580
  350PEP     CB10318  10.635  -2.306   7.605  0.0619  0.3416 -0.0141
  350PEP     CB10319  10.961  -2.513   7.458  0.0426  0.0152 -0.1521
  350PEP     CB10320  11.413  -2.649   7.366 -0.2862 -0.0704  0.2736
  351PEP     CB10321  16.981  14.953  17.469  0.1798  0.0542 -0.2574
  351PEP     CB10322  16.580  14.972  17.648 -0.2289  0.0849 -0.2725
  351PEP     CB10323  16.361  14.796  17.914  0.1139  0.0246 -0.1335
  351PEP     CB10324  16.348  14.824  18.398  0.0489  0.3551 -0.0346
  351PEP     CB10325  16.498  15.192  18.590  0.2581 -0.1104 -0.3392
  351PEP     CB10326  16.552  15.548  18.330  0.1569  0.1160  0.5727
  351PEP     CB10327  16.221  15.795  18.133 -0.0163  0.2158 -0.0770
  351PEP     CB10328  16.127  16.080  17.894 -0.0219  0.0946  0.0917
  351PEP     CB10329  16.293  16.454  17.689  0.1771  0.0002 -0.2126
  351PEP     CB10330  16.129  16.728  17.384  0.0248 -0.0278 -0.4757
  351PEP     CB10331  16.300  16.897  17.014  0.2614 -0.2209 -0.2336
  351PEP     CB10332  16.712  17.077  17.005 -0.0445  0.0298 -0.1443
  351PEP     CB10333  17.102  17.154  17.189 -0.1342  0.2633  0.1748
  351PEP     CB10334  17.462  17.309  17.435  0.1584  0.2380 -0.6078
  351PEP     CB10335  17.861  17.094  17.373  0.0208 -0.1136  0.3076
  351PEP     CB10336  18.058  16.824  17.568 -0.4545 -0.2865 -0.2355
  351PEP     CB10337  18.291  16.599  17.860 -0.4077 -0.1848  0.0068
  351PEP     CB10338  18.575  16.585  18.246  0.1424  0.3634  0.1666
  351PEP     CB10339  18.930  16.426  18.488 -0.1436 -0.0481 -0.1488
  351PEP     CB10340  19.331  16.443  18.739 -0.1321  0.2602  0.0486
  351PEP     CB10341  19.457  16.688  19.092 -0.0914  0.1883  0.0290
  351PEP     CB10342  19.618  16.835  19.401 -0.1658  0.1268 -0.0585
  351PEP     CB10343  19.702  16.959  19.855 -0.3252  0.1007  0.0616
  351PEP     CB10344  19.934  17.107  20.380 -0.0216 -0.3043  0.1257
  351PEP     CB10345  20.118  17.167  20.862 -0.0072 -0.1223  0.1470
  351PEP     CB10346  20.402  17.091  21.314  0.1152 -0.3078 -0.0590
  351PEP     CB10347  20.427  17.414  21.620 -0.0794  0.3963  0.0146
  351PEP     CB10348  20.284  17.803  21.608 -0.0960 -0.2997  0.0829
  351PEP     CB10349  20.320  18.144  21.324 -0.0080  0.3359  0.0805
  351PEP     CB10350  20.215  18.249  21.011 -0.0313 -0.0225 -0.4307
  351PEP     CB10351  20.135  18.174  20.654  0.0432  0.0895 -0.0135
  351PEP     CB10352  19.855  17.834  20.430 -0.1559 -0.0742  0.2080
  351PEP     CB10353  19.621  17.503  20.370  0.2808 -0.1759  0.1463
  351PEP     CB10354  19.364  17.276  20.092 -0.0714  0.0713  0.1986
  351PEP     CB10355  19.149  17.054  19.775 -0.2087  0.1953 -0.2224
  351PEP     CB10356  19.073  16.569  19.573  0.5052  0.1310 -0.1417
  351PEP     CB10357  19.058  16.112  19.768  0.0550  0.0066 -0.0432
  351PEP     CB10358  19.243  15.715  19.865  0.0879 -0.0112  0.3445
  351PEP     CB10359  19.425  15.372  19.748  0.3385  0.2728  0.0987
  351PEP     CB10360  19.478  14.951  19.775  0.0810  0.3039 -0.1890
  352PEP     CB10361   5.020  14.054  16.090 -0.3932  0.3553  0.1794
  352PEP     CB10362   5.458  14.106  16.253  0.3183  0.0153  0.5716
  352PEP     CB10363   5.840  14.321  16.299 -0.0841 -0.4061  0.2529
  352PEP     CB10364   6.207  14.667  16.435 -0.0493 -0.1879  0.0743
  352PEP     CB10365   6.559  14.892  16.574 -0.1077  0.4537  0.0420
  352PEP     CB10366   6.973  15.153  16.650  0.0306 -0.5637  0.0031
  352PEP     CB10367   7.300  15.394  16.886  0.1224  0.0051  0.1003
  352PEP     CB10368   7.628  15.415  17.260 -0.0972  0.2024  0.4149
  352PEP     CB10369   7.816  15.309  17.614  0.5927  0.3052  0.0980
  352PEP     CB10370   7.958  15.526  17.896 -0.1903  0.1156  0.0066
  352PEP     CB10371   8.303  15.375  18.061 -0.2449 -0.0060 -0.0690
  352PEP     CB10372   8.747  15.399  18.057  0.0162  0.1629 -0.0985
  352PEP     CB10373   9.224  15.252  18.217  0.1843  0.2023  0.6422
  352PEP     CB10374   9.545  15.082  18.396  0.0820 -0.3549 -0.0467
  352PEP     CB10375   9.782  15.009  18.830 -0.4059 -0.1100 -0.0002
  352PEP     CB10376   9.959  14.890  19.221  0.1687 -0.0191  0.0282
  352PEP     CB10377   9.923  14.973  19.804 -0.0521 -0.1094  0.0716
  352PEP     CB10378  10.128  14.876  20.204 -0.2973 -0.0878  0.0646
  352PEP     CB10379  10.399  14.704  20.633 -0.2056  0.3184  0.0278
  352PEP     CB10380  10.862  14.558  20.630 -0.1404  0.2008 -0.1482
  352PEP     CB10381  11.215  14.632  20.527  0.2150 -0.0487  0.0871
  352PEP     CB10382  11.549  14.764  20.270 -0.3813 -0.1812 -0.2726
  352PEP     CB10383  11.784  14.799  19.925 -0.2089  0.2124 -0.1202
  352PEP     CB10384  11.659  14.761  19.563  0.6183 -0.4563 -0.2041
  352PEP     CB10385  11.366  14.392  19.417 -0.0762  0.2801 -0.0345
  352PEP     CB10386  11.137  14.065  19.781 -0.3848  0.2363 -0.1328
  352PEP     CB10387  10.849  13.745  20.071  0.3376 -0.1623 -0.1663
  352PEP     CB10388  10.503  13.518  19.912 -0.0218  0.3600 -0.1046
  352PEP     CB10389  10.085  13.528  19.759 -0.1234  0.2159 -0.4697
  352PEP     CB10390   9.677  13.442  19.756 -0.0095 -0.1105 -0.0419
  352PEP     CB10391   9.378  13.060  19.723 -0.3248  0.2134  0.2160
  352PEP     CB10392   9.179  12.629  19.719  0.0322  0.0356 -0.6375
  352PEP     CB10393   9.416  12.267  19.689  0.1157  0.1388 -0.0194
  352PEP     CB10394   9.458  11.890  19.381 -0.0494  0.3074 -0.1745
  352PEP     CB10395   9.291  11.545  19.525  0.2495  0.2029  0.2425
  352PEP     CB10396   9.010  11.460  19.756  0.1615 -0.2924 -0.0642
  352PEP     CB10397   8.541  11.441  19.787  0.0532  0.1154  0.0727
  352PEP     CB10398   8.338  11.818  19.761  0.1326  0.1172 -0.0139
  352PEP     CB10399   8.136  11.950  19.457  0.1427 -0.1118 -0.2226
  352PEP     CB10400   7.853  12.002  19.085  0.1254 -0.0688 -0.2292
  353PEP     CB10401  21.264   5.869   9.461 -0.2486  0.1159  0.4727
  353PEP     CB10402  21.648   5.731   9.650 -0.1792 -0.2137  0.4762
  353PEP     CB10403  21.988   5.474   9.501 -0.1629  0.0731 -0.1426
  353PEP     CB10404  22.286   5.391   9.140 -0.1981 -0.1849  0.1598
  353PEP     CB10405  22.523   5.598   8.863 -0.1321  0.0008 -0.0388
  353PEP     CB10406  22.784   5.854   8.662 -0.3014  0.0591  0.1701
  353PEP     CB10407  23.007   6.234   8.593 -0.4587  0.1253  0.0894
  353PEP     CB10408  23.064   6.618   8.680 -0.1568  0.0984 -0.1961
  353PEP     CB10409  22.718   6.922   8.365  0.1296  0.1478  0.2366
  353PEP     CB10410  22.427   6.790   8.081 -0.2333  0.0716  0.0025
  353PEP     CB10411  21.964   6.718   8.059  0.1669  0.3120 -0.0529
  353PEP     CB10412  21.600   6.467   7.826  0.0540 -0.0984 -0.1031
  353PEP     CB10413  21.312   6.273   7.693 -0.2105 -0.3554 -0.0310
  353PEP     CB10414  21.082   5.905   7.598  0.1208 -0.1211  0.3630
  353PEP     CB10415  20.887   5.742   7.229  0.5763 -0.0391 -0.0201
  353PEP     CB10416  20.690   5.893   6.847 -0.3424  0.0994 -0.3203
  353PEP     CB10417  20.459   5.879   6.449 -0.0595  0.0760  0.3831
  353PEP     CB10418  20.081   5.828   6.128  0.2179  0.2518  0.3421
  353PEP     CB10419  19.631   5.784   5.983 -0.1006 -0.2243  0.3604
  353PEP     CB10420  19.261   5.838   5.853  0.2664  0.1357 -0.0455
  353PEP     CB10421  18.829   5.671   5.863 -0.1405 -0.1468 -0.2337
  353PEP     CB10422  18.516   5.305   5.884  0.1085 -0.3917  0.0613
  353PEP     CB10423  18.193   5.248   6.039 -0.0182  0.0989  0.3454
  353PEP     CB10424  17.913   5.241   6.357  0.2145  0.5563  0.2089
  353PEP     CB10425  17.791   5.060   6.806  0.2377  0.1538  0.1486
  353PEP     CB10426  17.536   5.024   7.090 -0.0736  0.0793  0.0457
  353PEP     CB10427  17.253   4.733   7.393  0.0178 -0.2547  0.4706
  353PEP     CB10428  17.053   4.316   7.487  0.2009  0.2362 -0.1867
  353PEP     CB10429  17.176   3.982   7.720 -0.2407  0.0536 -0.3671
  353PEP     CB10430  17.341   4.009   8.187 -0.0854 -0.0901  0.3309
  353PEP     CB10431  17.272   4.324   8.447 -0.4129 -0.0036 -0.2568
  353PEP     CB10432  17.117   4.740   8.386  0.4156  0.0035 -0.3392
  353PEP     CB10433  16.915   5.124   8.172 -0.2218  0.1076 -0.1946
  353PEP     CB10434  16.673   5.444   8.340  0.0072 -0.0267 -0.3057
  353PEP     CB10435  16.403   5.778   8.700  0.1716  0.2665  0.2279
  353PEP     CB10436  16.042   6.032   8.762  0.2009 -0.4435 -0.1205
  353PEP     CB10437  16.180   6.461   8.682  0.2293 -0.1098  0.3712
  353PEP     CB10438  16.486   6.568   8.372  0.1377 -0.6226  0.3444
  353PEP     CB10439  16.694   6.903   8.138 -0.1177 -0.3385  0.0124
  353PEP     CB10440  16.915   7.324   8.001 -0.0808 -0.3194 -0.0907
  354PEP     CB10441  21.660   7.169  11.923  0.1707  0.2417 -0.1910
  354PEP     CB10442  21.309   7.451  11.995 -0.1119 -0.1406 -0.0195
  354PEP     CB10443  20.808   7.311  12.101  0.1955 -0.0805 -0.0558
  354PEP     CB10444  20.464   7.397  12.304  0.0970  0.0031  0.1443
  354PEP     CB10445  20.196   7.440  12.704  0.1824  0.1360  0.0029
  354PEP     CB10446  19.839   7.170  12.791  0.1520 -0.0175 -0.1958
  354PEP     CB10447  19.551   7.089  12.498  0.2026  0.0989 -0.2378
  354PEP     CB10448  19.471   7.258  12.119 -0.4385 -0.0595 -0.1862
  354PEP     CB10449  19.716   7.213  11.751  0.1428  0.0884  0.0043
  354PEP     CB10450  19.968   7.250  11.356  0.0721 -0.0519  0.0282
  354PEP     CB10451  20.105   7.124  10.933  0.3727 -0.3853  0.2405
  354PEP     CB10452  20.165   7.129  10.489 -0.2755  0.3039  0.2345
  354PEP     CB10453  20.030   7.137  10.023 -0.0743  0.1753 -0.0174
  354PEP     CB10454  19.663   7.234   9.760 -0.0183  0.1861  0.0531
  354PEP     CB10455  19.272   7.337   9.818  0.1228 -0.1993 -0.2014
  354PEP     CB10456  18.935   7.325  10.076 -0.3100  0.3597 -0.0230
  354PEP     CB10457  18.549   7.402  10.129  0.1068  0.1799  0.4296
  354PEP     CB10458  18.330   7.645  10.381  0.0930  0.2546  0.0573
  354PEP     CB10459  18.256   8.063  10.527 -0.1583 -0.0554  0.1819
  354PEP     CB10460  18.142   8.318  10.864  0.0450 -0.1996 -0.0106
  354PEP     CB10461  17.938   8.351  11.218 -0.2762 -0.0102  0.6200
  354PEP     CB10462  17.874   8.432  11.617  0.2864 -0.1211  0.0705
  354PEP     CB10463  17.840   8.309  11.994 -0.1606 -0.3454  0.1588
  354PEP     CB10464  17.869   7.970  12.265  0.0105  0.0162  0.0138
  354PEP     CB10465  17.852   7.554  12.322  0.0543  0.0139  0.2693
  354PEP     CB10466  17.580   7.225  12.116 -0.0085 -0.2394  0.0984
  354PEP     CB10467  17.154   7.139  12.159  0.2956 -0.3608  0.1655
  354PEP     CB10468  16.816   7.363  12.423 -0.0814 -0.0391 -0.0532
  354PEP     CB10469  16.851   7.706  12.784  0.0361 -0.0818 -0.1005
  354PEP     CB10470  16.907   8.057  13.094 -0.0236 -0.5640  0.0206
  354PEP     CB10471  16.971   8.299  13.450  0.2105 -0.0220  0.0461
  354PEP     CB10472  17.185   8.583  13.692  0.4132  0.0903  0.0684
  354PEP     CB10473  17.261   8.861  13.944  0.0503 -0.0601  0.2487
  354PEP     CB10474  17.220   9.228  14.136  0.1303 -0.0899  0.6859
  354PEP     CB10475  17.211   9.422  14.593  0.1545 -0.0127 -0.6446
  354PEP     CB10476  17.180   9.543  15.046  0.5804 -0.0553  0.2819
  354PEP     CB10477  16.828   9.532  15.334  0.0517  0.1333 -0.0154
  354PEP     CB10478  16.425   9.481  15.500 -0.1567  0.1375 -0.3301
  354PEP     CB10479  15.984   9.363  15.712  0.1132 -0.0104  0.1475
  354PEP     CB10480  15.869   9.375  16.110  0.2432  0.0701 -0.0961
  355PEP     CB10481   7.932  19.749   1.057 -0.0234  0.0459  0.0699
  355PEP     CB10482   7.723  20.086   0.889 -0.2393  0.5303 -0.0377
  355PEP     CB10483   7.519  20.348   1.078 -0.1271 -0.0940 -0.0730
  355PEP     CB10484   7.130  20.336   1.222 -0.4160  0.0264  0.1905
  355PEP     CB10485   6.704  20.348   1.299 -0.1935 -0.5790  0.1116
  355PEP     CB10486   6.392  20.076   1.300 -0.3293 -0.2057  0.0836
  355PEP     CB10487   6.101  20.005   1.656  0.3376  0.0074 -0.0044
  355PEP     CB10488   5.870  20.153   2.047  0.0317 -0.0739 -0.0997
  355PEP     CB10489   5.760  20.114   2.496 -0.0849  0.3659  0.0532
  355PEP     CB10490   5.894  20.094   2.926 -0.1943 -0.0018  0.0955
  355PEP     CB10491   6.137  19.824   3.198  0.3651  0.2959 -0.0304
  355PEP     CB10492   5.984  19.553   3.382 -0.0092 -0.3605  0.1282
  355PEP     CB10493   5.548  19.349   3.458  0.1493  0.2362  0.1364
  355PEP     CB10494   5.165  19.466   3.189  0.2753  0.1342 -0.2056
  355PEP     CB10495   4.770  19.602   2.947 -0.0559  0.3320 -0.4091
  355PEP     CB10496   4.595  19.729   2.495  0.1325 -0.1515 -0.0821
  355PEP     CB10497   4.732  19.998   2.153 -0.2174 -0.2361 -0.0804
  355PEP     CB10498   4.953  20.402   2.153  0.1900  0.0534  0.3762
  355PEP     CB10499   4.936  20.692   2.471  0.2245 -0.3521 -0.0267
  355PEP     CB10500   4.949  20.680   2.906 -0.2454 -0.0534 -0.0688
  355PEP     CB10501   4.693  20.498   3.210 -0.1330  0.1641 -0.2085
  355PEP     CB10502   4.296  20.369   3.242  0.0548 -0.3823 -0.0408
  355PEP     CB10503   3.894  20.422   3.571  0.2218 -0.0771 -0.0032
  355PEP     CB10504   3.649  20.140   3.834 -0.3327  0.1411 -0.2817
  355PEP     CB10505   3.481  19.685   3.814  0.0830 -0.3503 -0.2344
  355PEP     CB10506   3.413  19.310   4.066 -0.0630  0.0924 -0.0573
  355PEP     CB10507   3.240  19.054   4.444 -0.1243  0.2758  0.3922
  355PEP     CB10508   3.041  18.612   4.524  0.2210  0.1988  0.1012
  355PEP     CB10509   2.825  18.282   4.364  0.1791  0.0417  0.5305
  355PEP     CB10510   2.749  17.848   4.221  0.3803  0.3869 -0.0372
  355PEP     CB10511   2.502  17.570   4.001  0.1524  0.0897  0.0587
  355PEP     CB10512   2.309  17.281   3.643  0.0012 -0.3168  0.1664
  355PEP     CB10513   1.977  17.136   3.374 -0.0972  0.1353 -0.3291
  355PEP     CB10514   1.959  16.861   3.153 -0.0103  0.1862 -0.4160
  355PEP     CB10515   2.149  16.600   2.808  0.4651 -0.2738  0.0389
  355PEP     CB10516   2.014  16.572   2.351  0.0977 -0.0747  0.1156
  355PEP     CB10517   1.922  16.287   2.095 -0.0260 -0.2200 -0.1010
  355PEP     CB10518   1.876  16.095   1.619  0.1620  0.2461  0.2049
  355PEP     CB10519   1.998  15.778   1.261 -0.5086 -0.1341  0.2674
  355PEP     CB10520   1.965  15.707   0.795  0.6372 -0.0047  0.0039
  356PEP     CB10521  17.861  21.418  20.806  0.3990 -0.1626  0.1221
  356PEP     CB10522  17.530  21.105  20.555  0.3522  0.1019  0.3116
  356PEP     CB10523  17.115  21.251  20.430  0.1090 -0.0245  0.0027
  356PEP     CB10524  16.985  21.618  20.261  0.1946 -0.0167 -0.0774
  356PEP     CB10525  16.900  22.042  20.222  0.4177 -0.2074  0.0314
  356PEP     CB10526  17.002  22.467  20.415  0.2685 -0.2090 -0.0502
  356PEP     CB10527  16.826  22.830  20.632  0.0771  0.1219 -0.7226
  356PEP     CB10528  16.770  23.183  20.786  0.0432 -0.2622 -0.1400
  356PEP     CB10529  16.892  23.625  20.948  0.1266  0.1257  0.3243
  356PEP     CB10530  16.779  23.895  21.283  0.1191 -0.1934  0.0291
  356PEP     CB10531  16.856  24.303  21.600  0.1049  0.1164 -0.4856
  356PEP     CB10532  17.077  24.483  21.916 -0.1923  0.2398  0.2292
  356PEP     CB10533  17.060  24.629  22.301  0.0150 -0.4576 -0.3067
  356PEP     CB10534  17.393  24.782  22.712  0.0751  0.0362  0.3843
  356PEP     CB10535  17.782  24.912  22.898 -0.1623  0.3000  0.2361
  356PEP     CB10536  18.151  24.928  22.735  0.0991  0.0296  0.2560
  356PEP     CB10537  18.225  24.909  22.299 -0.0211  0.3116  0.0084
  356PEP     CB10538  17.965  24.965  21.924 -0.2004  0.2110  0.1986
  356PEP     CB10539  17.623  25.294  21.761  0.0265  0.3425  0.2341
  356PEP     CB10540  17.254  25.233  21.571 -0.4505  0.2133  0.3603
  356PEP     CB10541  16.897  25.493  21.447  0.2696  0.0780 -0.3897
  356PEP     CB10542  16.535  25.738  21.579  0.0234  0.2762 -0.1981
  356PEP     CB10543  16.516  26.007  21.946  0.1246  0.0065 -0.1272
  356PEP     CB10544  16.711  26.253  22.264 -0.0283 -0.2154 -0.3139
  356PEP     CB10545  17.069  26.182  22.417  0.3130 -0.1729 -0.6527
  356PEP     CB10546  17.360  26.046  22.229  0.3713 -0.1894  0.1157
  356PEP     CB10547  17.512  25.841  21.864 -0.1348  0.3162 -0.1393
  356PEP     CB10548  17.455  25.653  21.470  0.0944  0.1154  0.1972
  356PEP     CB10549  17.298  25.550  21.077 -0.3990  0.0275 -0.2651
  356PEP     CB10550  17.157  25.384  20.710  0.2271  0.1296  0.0836
  356PEP     CB10551  17.056  25.626  20.280 -0.2054 -0.1794 -0.2209
  356PEP     CB10552  16.804  25.884  19.978 -0.4099 -0.2960 -0.0467
  356PEP     CB10553  16.787  26.127  19.610 -0.0963  0.0973  0.1262
  356PEP     CB10554  16.622  26.480  19.292 -0.1031  0.1358 -0.0513
  356PEP     CB10555  16.786  26.840  19.129 -0.1100  0.3766 -0.0206
  356PEP     CB10556  16.820  26.961  18.753  0.1975 -0.3682  0.0900
  356PEP     CB10557  17.137  27.122  18.419  0.3189 -0.0751 -0.5126
  356PEP     CB10558  17.530  27.140  18.273  0.0324  0.0930  0.3623
  356PEP     CB10559  17.953  27.404  18.348 -0.2297  0.2113 -0.1251
  356PEP     CB10560  18.425  27.582  18.467 -0.2567 -0.0585  0.3656
  357PEP     CB10561   2.728  20.633  18.747 -0.2060 -0.0139  0.2968
  357PEP     CB10562   2.890  20.354  19.034  0.0437  0.0773 -0.1092
  357PEP     CB10563   2.991  19.903  19.034 -0.1270  0.2001  0.0844
  357PEP     CB10564   3.161  19.476  19.265 -0.0201  0.0307  0.1686
  357PEP     CB10565   3.484  19.158  19.140  0.3332 -0.3939  0.0674
  357PEP     CB10566   3.788  19.135  18.915 -0.0499  0.2653  0.0329
  357PEP     CB10567   3.813  19.335  18.507 -0.2138  0.2074 -0.3412
  357PEP     CB10568   3.835  19.689  18.463 -0.4476 -0.4970  0.2666
  357PEP     CB10569   4.031  20.125  18.595  0.1713 -0.1604  0.3219
  357PEP     CB10570   4.030  20.564  18.585 -0.0374 -0.0836  0.1062
  357PEP     CB10571   3.834  20.942  18.844  0.0737  0.2521  0.0883
  357PEP     CB10572   3.911  21.130  19.241  0.1236 -0.0059 -0.0742
  357PEP     CB10573   4.197  21.085  19.587  0.0709 -0.1302 -0.3967
  357PEP     CB10574   4.431  20.729  19.747 -0.2600  0.0811  0.0208
  357PEP     CB10575   4.602  20.318  19.848  0.0716  0.2005  0.0855
  357PEP     CB10576   4.703  19.919  19.602  0.3032  0.0532 -0.0290
  357PEP     CB10577   4.863  19.482  19.540  0.4938 -0.1416 -0.3429
  357PEP     CB10578   5.240  19.246  19.608  0.1911 -0.1662 -0.2622
  357PEP     CB10579   5.599  19.131  19.350 -0.0930 -0.2429  0.0152
  357PEP     CB10580   6.059  19.235  19.300  0.1720  0.0561 -0.0464
  357PEP     CB10581   6.574  19.384  19.381  0.3124 -0.1903 -0.1480
  357PEP     CB10582   6.950  19.531  19.523 -0.1498 -0.0229 -0.1487
  357PEP     CB10583   7.170  19.858  19.689  0.1141  0.0591 -0.4101
  357PEP     CB10584   7.178  20.273  20.055 -0.1658  0.0342 -0.0425
  357PEP     CB10585   7.409  20.613  20.288 -0.1981  0.2870 -0.2473
  357PEP     CB10586   7.719  20.890  20.609 -0.3831 -0.3603 -0.0175
  357PEP     CB10587   7.980  21.094  20.883 -0.3598 -0.2305  0.0679
  357PEP     CB10588   8.041  21.550  21.102  0.0128  0.1016 -0.0339
  357PEP     CB10589   7.966  21.459  21.622  0.0534 -0.1971  0.1689
  357PEP     CB10590   8.287  21.242  21.897 -0.5646  0.0756  0.0804
  357PEP     CB10591   8.620  20.996  21.758 -0.3582  0.2276 -0.1524
  357PEP     CB10592   8.842  21.083  21.393 -0.1397 -0.0230 -0.3361
  357PEP     CB10593   8.773  21.248  20.937 -0.5425  0.3307  0.1759
  357PEP     CB10594   8.439  21.118  20.631 -0.2343  0.0479 -0.1383
  357PEP     CB10595   8.201  20.864  20.485 -0.2053 -0.2814 -0.3444
  357PEP     CB10596   8.277  20.745  20.048  0.0160  0.4201 -0.0177
  357PEP     CB10597   8.496  21.032  19.744 -0.2096  0.1502 -0.1119
  357PEP     CB10598   8.580  21.189  19.280  0.2701 -0.3607  0.1111
  357PEP     CB10599   8.929  21.421  19.009 -0.5430  0.0794 -0.1616
  357PEP     CB10600   8.989  21.712  18.771 -0.2612 -0.1233  0.0079
  358PEP     CB10601  13.280  18.575   1.847 -0.3172  0.1341  0.1201
  358PEP     CB10602  12.876  18.467   1.684 -0.0633 -0.4346  0.1748
  358PEP     CB10603  12.451  18.311   1.774  0.1084 -0.3480  0.1080
  358PEP     CB10604  12.053  18.156   1.789  0.2963  0.1569 -0.1798
  358PEP     CB10605  11.724  18.031   2.037 -0.4626 -0.1519 -0.0189
  358PEP     CB10606  11.384  17.758   2.133  0.0387 -0.1003 -0.1414
  358PEP     CB10607  10.868  17.665   2.265 -0.0900 -0.0427 -0.2558
  358PEP     CB10608  10.427  17.686   2.388 -0.4865  0.0497  0.0180
  358PEP     CB10609   9.976  17.679   2.268  0.2412 -0.3827  0.1538
  358PEP     CB10610   9.604  17.710   2.174  0.1079 -0.2551  0.0366
  358PEP     CB10611   9.207  17.648   2.120  0.0267 -0.0795 -0.0391
  358PEP     CB10612   8.776  17.642   2.266 -0.0851  0.2027 -0.3727
  358PEP     CB10613   8.405  17.623   2.393  0.0051  0.0440  0.1057
  358PEP     CB10614   7.999  17.495   2.449 -0.5100 -0.0891 -0.3269
  358PEP     CB10615   7.582  17.360   2.434  0.0583 -0.3147 -0.0874
  358PEP     CB10616   7.247  17.075   2.292 -0.0425  0.5848 -0.1411
  358PEP     CB10617   7.159  16.699   2.107  0.2035  0.0956  0.2216
  358PEP     CB10618   7.188  16.406   1.777 -0.3765  0.0660 -0.1892
  358PEP     CB10619   7.052  16.018   1.583  0.0639  0.1881 -0.1087
  358PEP     CB10620   7.183  15.685   1.322 -0.3526  0.2054  0.4286
  358PEP     CB10621   7.091  15.357   1.027  0.2783 -0.2731 -0.5810
  358PEP     CB10622   7.091  14.877   0.910 -0.0503  0.0771  0.1467
  358PEP     CB10623   7.056  14.527   0.736  0.3359  0.1988  0.2423
  358PEP     CB10624   7.215  14.149   0.576  0.1044 -0.2036  0.1400
  358PEP     CB10625   7.558  13.802   0.596  0.2734 -0.1307  0.1287
  358PEP     CB10626   7.577  13.419   0.657 -0.0866  0.1329  0.3495
  358PEP     CB10627   7.236  13.061   0.484 -0.4600  0.3353 -0.0218
  358PEP     CB10628   7.204  12.659   0.277 -0.2075  0.1315  0.3711
  358PEP     CB10629   7.062  12.234   0.151 -0.1943 -0.0583  0.0409
  358PEP     CB10630   7.080  12.147  -0.265  0.0041 -0.1976 -0.3560
  358PEP     CB10631   7.067  12.552  -0.527 -0.0958  0.1014 -0.0773
  358PEP     CB10632   7.034  12.987  -0.244 -0.0632 -0.1864 -0.0454
  358PEP     CB10633   7.029  13.345  -0.059 -0.4192  0.1128  0.2045
  358PEP     CB10634   7.165  13.748   0.184  0.0748  0.0617 -0.1007
  358PEP     CB10635   7.402  14.108   0.139  0.3824  0.2682  0.1544
  358PEP     CB10636   7.475  14.568   0.216  0.1173 -0.1925  0.1249
  358PEP     CB10637   7.434  14.931   0.354  0.1535  0.2883 -0.1597
  358PEP     CB10638   7.233  15.265   0.495 -0.3342 -0.2120 -0.0960
  358PEP     CB10639   6.872  15.537   0.326  0.2342 -0.1238  0.3555
  358PEP     CB10640   6.434  15.604   0.414 -0.5377  0.1507  0.0160
  359PEP     CB10641  16.959   3.562   2.035  0.0714  0.1190  0.2342
  359PEP     CB10642  16.958   3.367   1.687 -0.1461  0.2471 -0.2685
  359PEP     CB10643  17.195   3.174   1.313  0.0892 -0.2242  0.0900
  359PEP     CB10644  17.620   3.311   1.102  0.0494  0.1670  0.1180
  359PEP     CB10645  17.899   3.359   0.743  0.1515  0.1870  0.0142
  359PEP     CB10646  18.261   3.596   0.483  0.1533  0.2612 -0.2428
  359PEP     CB10647  18.443   3.782   0.125 -0.4603  0.0570  0.0596
  359PEP     CB10648  18.776   4.091   0.031 -0.0181  0.2670 -0.0889
  359PEP     CB10649  18.654   4.544  -0.106 -0.0780  0.1758 -0.1485
  359PEP     CB10650  18.594   4.910   0.226 -0.3847 -0.2063  0.1069
  359PEP     CB10651  18.423   4.901   0.651  0.0038 -0.0169  0.4964
  359PEP     CB10652  18.106   4.704   0.715 -0.0481  0.0596  0.3471
  359PEP     CB10653  17.734   4.550   0.885 -0.4242 -0.5541 -0.1110
  359PEP     CB10654  17.403   4.224   0.929  0.1600  0.0854  0.1046
  359PEP     CB10655  17.216   3.886   0.827 -0.2868 -0.0767  0.1695
  359PEP     CB10656  16.885   3.712   0.520 -0.0875 -0.0023 -0.0844
  359PEP     CB10657  16.492   3.771   0.353  0.2151  0.2804  0.1057
  359PEP     CB10658  16.039   3.843   0.398 -0.2384 -0.1722  0.2451
  359PEP     CB10659  15.732   3.992   0.133  0.0229 -0.1208  0.1363
  359PEP     CB10660  15.309   3.840  -0.040  0.2732  0.0829  0.1920
  359PEP     CB10661  14.833   3.898  -0.096  0.0976 -0.1519 -0.2533
  359PEP     CB10662  14.466   3.877  -0.273  0.2016 -0.3043  0.2456
  359PEP     CB10663  14.057   3.627  -0.313  0.0481  0.3018  0.1239
  359PEP     CB10664  14.019   3.388  -0.610 -0.1594 -0.0711  0.2239
  359PEP     CB10665  14.030   3.405  -1.042  0.2166 -0.3290 -0.0368
  359PEP     CB10666  13.900   3.715  -1.361 -0.0396  0.1944  0.1824
  359PEP     CB10667  14.058   4.106  -1.316 -0.1623 -0.1420  0.1062
  359PEP     CB10668  14.054   4.376  -0.900  0.1637  0.0388 -0.2755
  359PEP     CB10669  13.799   4.672  -0.827 -0.1589  0.4238  0.2149
  359PEP     CB10670  13.359   4.750  -0.867  0.1277 -0.1804 -0.0509
  359PEP     CB10671  13.051   4.608  -1.183 -0.0330 -0.2184 -0.2239
  359PEP     CB10672  12.706   4.664  -1.500 -0.2014  0.0820  0.3362
  359PEP     CB10673  12.533   4.859  -1.836  0.3779  0.0955 -0.1253
  359PEP     CB10674  12.367   4.825  -2.244 -0.0797 -0.1426 -0.1705
  359PEP     CB10675  12.422   5.048  -2.644 -0.0945 -0.1619  0.0156
  359PEP     CB10676  12.202   5.104  -3.153  0.1122  0.0981 -0.1233
  359PEP     CB10677  12.101   5.062  -3.584 -0.1170  0.0446  0.3815
  359PEP     CB10678  11.793   5.004  -3.822 -0.1981  0.3067  0.0591
  359PEP     CB10679  11.395   5.088  -3.710  0.0524  0.1632  0.2614
  359PEP     CB10680  11.201   5.111  -3.303  0.1464 -0.1341 -0.0983
  360PEP     CB10681   0.976   8.228  18.732  0.1960  0.3097 -0.1257
  360PEP     CB10682   1.072   7.847  19.080 -0.1574 -0.1447  0.2996
  360PEP     CB10683   1.446   7.641  19.260  0.1525  0.1194  0.3561
  360PEP     CB10684   1.783   7.656  19.596  0.1154  0.1263 -0.2324
  360PEP     CB10685   2.222   7.544  19.560  0.1268 -0.1438  0.0610
  360PEP     CB10686   2.420   7.308  19.348  0.1779  0.1502 -0.0583
  360PEP     CB10687   2.782   7.151  19.183  0.7054  0.1495  0.1908
  360PEP     CB10688   3.135   6.889  19.054 -0.0538 -0.0839  0.1718
  360PEP     CB10689   3.594   7.046  18.932 -0.4729 -0.0236  0.1949
  360PEP     CB10690   3.963   7.399  18.983 -0.0695  0.2095  0.0287
  360PEP     CB10691   4.267   7.456  19.341  0.2179 -0.3300 -0.2210
  360PEP     CB10692   4.678   7.229  19.461 -0.1446  0.0775 -0.2374
  360PEP     CB10693   4.870   6.777  19.561 -0.1569 -0.1176  0.2550
  360PEP     CB10694   4.877   6.427  19.801 -0.3919 -0.0721 -0.0292
  360PEP     CB10695   5.028   5.981  19.999  0.3099 -0.1890 -0.0060
  360PEP     CB10696   5.296   5.898  20.220  0.3815  0.3641  0.2192
  360PEP     CB10697   5.718   5.841  20.334  0.0514 -0.1844 -0.5332
  360PEP     CB10698   6.131   5.806  20.263  0.2255 -0.2971 -0.1090
  360PEP     CB10699   6.560   5.853  20.117  0.3373 -0.0482 -0.2736
  360PEP     CB10700   6.952   5.660  20.018  0.1233 -0.1493 -0.0001
  360PEP     CB10701   7.380   5.724  20.046  0.0123 -0.1221  0.0055
  360PEP     CB10702   7.740   6.085  20.065 -0.0665  0.3882  0.2109
  360PEP     CB10703   7.815   6.573  20.194  0.1176  0.1779  0.0368
  360PEP     CB10704   8.052   6.931  20.537  0.0049  0.0648  0.1429
  360PEP     CB10705   8.131   6.982  20.871  0.0814 -0.0381 -0.0747
  360PEP     CB10706   8.398   6.776  21.176 -0.2792 -0.0526  0.3812
  360PEP     CB10707   8.614   6.737  21.583  0.1469 -0.0913 -0.0828
  360PEP     CB10708   8.740   6.666  21.969  0.1091  0.0361  0.1207
  360PEP     CB10709   8.890   6.651  22.399  0.1117  0.0335 -0.0798
  360PEP     CB10710   9.122   6.818  22.807  0.0290  0.0637  0.4055
  360PEP     CB10711   9.547   7.070  22.931 -0.0457  0.1483 -0.2134
  360PEP     CB10712   9.993   7.107  22.950  0.1066  0.1329 -0.1277
  360PEP     CB10713  10.328   7.392  22.878  0.4006  0.1248  0.0872
  360PEP     CB10714  10.574   7.620  22.637  0.3188  0.0013  0.4249
  360PEP     CB10715  10.639   8.043  22.324 -0.2370 -0.2455 -0.3276
  360PEP     CB10716  10.781   8.490  22.345  0.0691  0.0022 -0.0435
  360PEP     CB10717  11.098   8.854  22.335  0.1958  0.3080  0.0970
  360PEP     CB10718  11.468   9.054  22.317  0.0110 -0.0697 -0.3756
  360PEP     CB10719  11.825   9.116  22.014  0.0466  0.0766  0.0794
  360PEP     CB10720  12.275   9.057  22.027  0.1179  0.0913 -0.1001
  361PEP     CB10721  13.954  10.438   4.590 -0.1428  0.2411 -0.1129
  361PEP     CB10722  13.682  10.154   4.782  0.4291 -0.2514  0.0632
  361PEP     CB10723  13.532   9.794   4.903  0.2474 -0.2251  0.0007
  361PEP     CB10724  13.185   9.653   5.082 -0.0687  0.1328 -0.3896
  361PEP     CB10725  12.862   9.607   5.504  0.1834  0.1918 -0.0919
  361PEP     CB10726  13.118   9.688   5.924  0.5687  0.0837  0.3092
  361PEP     CB10727  13.570   9.620   6.101  0.1323  0.0037 -0.0418
  361PEP     CB10728  13.934   9.862   6.110  0.1991 -0.0974  0.3245
  361PEP     CB10729  13.967  10.184   5.810  0.5098  0.0240  0.0003
  361PEP     CB10730  14.180  10.561   5.698  0.0028 -0.4782  0.3202
  361PEP     CB10731  14.164  10.923   5.982 -0.4235 -0.0087 -0.1199
  361PEP     CB10732  13.911  10.820   6.368 -0.0658  0.0282  0.3566
  361PEP     CB10733  13.476  10.678   6.445 -0.3082  0.2152  0.0668
  361PEP     CB10734  13.179  10.534   6.708 -0.2373 -0.1258  0.2390
  361PEP     CB10735  12.859  10.745   6.953  0.3966 -0.0828 -0.0868
  361PEP     CB10736  12.505  11.134   6.869 -0.0796  0.4384  0.1364
  361PEP     CB10737  12.076  11.344   6.738  0.0698  0.0598  0.0336
  361PEP     CB10738  11.855  11.750   6.841  0.1073  0.1068 -0.0863
  361PEP     CB10739  11.949  12.157   6.937  0.0793 -0.2107 -0.2499
  361PEP     CB10740  12.208  12.467   6.739 -0.4826  0.3001  0.1228
  361PEP     CB10741  12.552  12.785   6.801  0.1965  0.3639 -0.2333
  361PEP     CB10742  12.695  13.280   6.799  0.1338 -0.0260  0.2954
  361PEP     CB10743  12.515  13.696   6.714 -0.4280 -0.4013  0.0509
  361PEP     CB10744  12.191  14.072   6.702 -0.1168 -0.3406 -0.1797
  361PEP     CB10745  12.159  14.439   6.944 -0.3618  0.6187 -0.4161
  361PEP     CB10746  12.363  14.481   7.339  0.0400 -0.3767  0.0802
  361PEP     CB10747  12.396  14.041   7.454 -0.1861  0.1720  0.0482
  361PEP     CB10748  12.343  13.763   7.167  0.1455 -0.1866 -0.3102
  361PEP     CB10749  12.046  13.493   6.938  0.1167 -0.1075  0.2866
  361PEP     CB10750  11.727  13.772   6.740  0.0460 -0.1824 -0.3452
  361PEP     CB10751  11.725  14.163   6.603  0.1040 -0.4305  0.3338
  361PEP     CB10752  11.686  14.479   6.482 -0.4112  0.2424  0.0170
  361PEP     CB10753  11.621  14.892   6.392  0.0748 -0.1844  0.0634
  361PEP     CB10754  11.324  15.184   6.323 -0.1317 -0.1017  0.0879
  361PEP     CB10755  10.902  15.139   6.096 -0.3420  0.1110  0.3094
  361PEP     CB10756  10.839  14.844   5.834 -0.0035 -0.2260 -0.0069
  361PEP     CB10757  11.043  14.459   5.645  0.3092 -0.0893 -0.5012
  361PEP     CB10758  11.258  14.493   5.206 -0.4630  0.2276 -0.2199
  361PEP     CB10759  11.581  14.471   4.981  0.5416  0.0345 -0.0673
  361PEP     CB10760  11.852  14.184   4.871 -0.0030  0.0250 -0.2503
  362PEP     CB10761   0.345  17.506   7.634  0.6694  0.2270 -0.1114
  362PEP     CB10762   0.592  17.810   7.669  0.3151 -0.1760  0.3908
  362PEP     CB10763   0.868  18.089   7.615 -0.0376  0.1428 -0.3031
  362PEP     CB10764   1.219  18.450   7.570 -0.2415 -0.4485  0.2270
  362PEP     CB10765   1.353  18.863   7.779  0.1041  0.0913  0.2299
  362PEP     CB10766   1.236  19.263   7.858  0.2041 -0.0847  0.1019
  362PEP     CB10767   1.135  19.552   8.127 -0.4554  0.1444  0.1455
  362PEP     CB10768   1.222  19.841   8.347  0.3111 -0.2350  0.1341
  362PEP     CB10769   1.317  20.019   8.757 -0.6183  0.4490  0.1292
  362PEP     CB10770   1.647  20.024   9.153 -0.2187  0.1063 -0.0121
  362PEP     CB10771   1.770  20.195   9.576  0.1043 -0.5223 -0.0165
  362PEP     CB10772   1.678  20.489   9.838 -0.2137 -0.0679  0.1354
  362PEP     CB10773   1.660  20.762  10.255  0.1425  0.0340  0.0011
  362PEP     CB10774   1.637  20.993  10.667 -0.0613 -0.2468  0.1123
  362PEP     CB10775   1.324  21.262  10.781 -0.3576  0.1726 -0.0699
  362PEP     CB10776   1.031  21.370  11.115 -0.3587 -0.0107  0.1477
  362PEP     CB10777   1.009  21.376  11.545 -0.1531  0.0278 -0.0714
  362PEP     CB10778   1.457  21.487  11.818  0.0944 -0.0533  0.1094
  362PEP     CB10779   1.815  21.509  11.685 -0.0460  0.1759  0.0201
  362PEP     CB10780   2.217  21.286  11.701  0.0670  0.0461  0.1604
  362PEP     CB10781   2.435  21.093  11.297  0.0399  0.0137  0.0351
  362PEP     CB10782   2.664  21.264  10.901 -0.3957  0.1765 -0.0921
  362PEP     CB10783   3.071  21.400  10.732 -0.1289  0.2664  0.1244
  362PEP     CB10784   3.342  21.615  10.916  0.0145  0.4970 -0.1380
  362PEP     CB10785   3.385  21.587  11.278  0.1319  0.3414  0.3305
  362PEP     CB10786   3.201  21.618  11.709 -0.3040  0.1888  0.2920
  362PEP     CB10787   3.017  21.588  12.193  0.0991 -0.3837 -0.0938
  362PEP     CB10788   2.994  21.375  12.556 -0.0444 -0.0387  0.2499
  362PEP     CB10789   2.955  21.430  13.057  0.0610  0.0972  0.1820
  362PEP     CB10790   2.592  21.592  13.145 -0.5363 -0.1358 -0.0952
  362PEP     CB10791   2.198  21.672  12.841  0.2898  0.0981 -0.0747
  362PEP     CB10792   2.200  21.789  12.365  0.0206  0.0748 -0.3044
  362PEP     CB10793   2.398  21.663  11.993  0.4439 -0.1411  0.2107
  362PEP     CB10794   2.714  21.543  11.816  0.2241 -0.0520  0.0728
  362PEP     CB10795   2.783  21.501  11.410  0.1275 -0.1510 -0.0012
  362PEP     CB10796   2.607  21.828  11.165 -0.1316 -0.2255  0.0649
  362PEP     CB10797   2.818  22.242  11.083 -0.0025  0.2625 -0.2823
  362PEP     CB10798   3.196  22.411  11.024 -0.0714 -0.5075  0.1651
  362PEP     CB10799   3.672  22.399  10.867 -0.0159 -0.2178 -0.2440
  362PEP     CB10800   4.080  22.494  10.631  0.2161  0.2667 -0.4153
  363PEP     CB10801  17.829  15.931  11.394 -0.3678  0.4891 -0.2043
  363PEP     CB10802  18.026  16.309  11.529  0.0180 -0.0592  0.6027
  363PEP     CB10803  18.351  16.513  11.568  0.4092  0.4376 -0.2459
  363PEP     CB10804  18.585  16.863  11.750  0.5824 -0.4177 -0.2270
  363PEP     CB10805  18.392  17.142  12.061  0.0246  0.1138 -0.2883
  363PEP     CB10806  18.412  17.070  12.512  0.1323 -0.2204 -0.0221
  363PEP     CB10807  18.432  16.863  12.868  0.0564  0.0058 -0.3543
  363PEP     CB10808  18.579  16.597  13.121 -0.2168  0.0006  0.2514
  363PEP     CB10809  18.702  16.080  13.027  0.3465  0.1330 -0.0412
  363PEP     CB10810  18.602  15.828  12.718  0.2184 -0.2879 -0.0535
  363PEP     CB10811  18.938  15.876  12.388 -0.0522  0.0529 -0.6168
  363PEP     CB10812  19.297  16.053  12.430  0.3327  0.1472  0.2575
  363PEP     CB10813  19.789  16.114  12.212 -0.1511 -0.0487  0.1263
  363PEP     CB10814  20.375  16.117  12.187  0.5137 -0.2664  0.1990
  363PEP     CB10815  20.894  16.298  12.161 -0.0770  0.0907  0.2134
  363PEP     CB10816  21.234  16.476  11.902 -0.5151 -0.0076 -0.0554
  363PEP     CB10817  21.640  16.582  11.817 -0.2087  0.0156  0.1559
  363PEP     CB10818  22.073  16.730  11.862  0.2254 -0.0050 -0.2191
  363PEP     CB10819  22.452  17.014  11.812  0.1539 -0.2560  0.1393
  363PEP     CB10820  22.858  17.007  11.794  0.0554 -0.0442  0.2418
  363PEP     CB10821  23.317  17.049  11.647 -0.0668 -0.3276  0.0699
  363PEP     CB10822  23.645  16.784  11.778  0.0782  0.2370 -0.0678
  363PEP     CB10823  23.707  16.468  12.154 -0.3296 -0.0888  0.0117
  363PEP     CB10824  23.904  16.430  12.643  0.0855 -0.0389  0.1035
  363PEP     CB10825  23.761  16.534  12.984  0.2435  0.2677  0.0490
  363PEP     CB10826  23.497  16.787  13.247 -0.2540 -0.0464 -0.2583
  363PEP     CB10827  23.308  17.052  13.556  0.3252  0.2078  0.0107
  363PEP     CB10828  23.263  17.501  13.743 -0.0125 -0.5527 -0.2038
  363PEP     CB10829  23.562  17.828  13.928  0.1511 -0.1287 -0.3007
  363PEP     CB10830  23.730  18.208  14.057 -0.2851  0.0825  0.4102
  363PEP     CB10831  24.102  18.267  13.943 -0.1869  0.1739  0.3228
  363PEP     CB10832  24.303  17.954  13.602 -0.4372  0.1196  0.2390
  363PEP     CB10833  24.044  17.652  13.389  0.1879 -0.0215 -0.0211
  363PEP     CB10834  23.649  17.852  13.439  0.1702  0.1737 -0.3989
  363PEP     CB10835  23.297  17.954  13.546 -0.1364 -0.4939 -0.2526
  363PEP     CB10836  22.938  17.842  13.579 -0.0775  0.0061 -0.0059
  363PEP     CB10837  22.612  17.518  13.784  0.2691 -0.0325 -0.1861
  363PEP     CB10838  22.314  17.576  14.083 -0.0984 -0.4641  0.1870
  363PEP     CB10839  21.864  17.621  14.206  0.0272 -0.2007 -0.3302
  363PEP     CB10840  21.471  17.475  14.309 -0.0325  0.0608 -0.1553
  364PEP     CB10841   3.170  12.315  19.120 -0.4278  0.2059  0.5130
  364PEP     CB10842   2.911  11.982  19.213  0.0531  0.0619  0.1172
  364PEP     CB10843   2.524  11.874  19.473  0.4163 -0.4001 -0.2118
  364PEP     CB10844   2.194  11.915  19.836 -0.0179  0.1910  0.0639
  364PEP     CB10845   1.687  11.835  19.919 -0.3663  0.0279  0.1093
  364PEP     CB10846   1.474  11.669  20.291  0.2693 -0.1496 -0.2018
  364PEP     CB10847   1.414  11.937  20.686 -0.0539 -0.1389  0.1579
  364PEP     CB10848   1.539  12.392  20.910  0.0871 -0.0653  0.1693
  364PEP     CB10849   1.476  12.864  21.075 -0.1738 -0.1985  0.2570
  364PEP     CB10850   1.520  13.209  21.256 -0.2408  0.2361 -0.2050
  364PEP     CB10851   1.861  13.463  21.221  0.5342  0.0506 -0.1603
  364PEP     CB10852   2.354  13.253  21.207 -0.1123 -0.2284 -0.3379
  364PEP     CB10853   2.743  13.205  21.036  0.1770 -0.1476  0.0972
  364PEP     CB10854   3.162  13.220  20.918 -0.3748  0.4707 -0.0305
  364PEP     CB10855   3.525  13.078  20.848  0.2026  0.0208  0.1580
  364PEP     CB10856   3.758  12.736  20.786 -0.1089  0.0209 -0.1706
  364PEP     CB10857   3.803  12.592  20.421 -0.2855  0.0486  0.1219
  364PEP     CB10858   3.631  12.239  20.224  0.2160 -0.1262 -0.4510
  364PEP     CB10859   3.262  12.203  19.994  0.2339  0.3648  0.3292
  364PEP     CB10860   2.819  12.294  20.117  0.1812  0.2468  0.0262
  364PEP     CB10861   2.436  12.039  20.384 -0.1307  0.2321  0.3982
  364PEP     CB10862   2.345  11.705  20.760 -0.1524 -0.4629 -0.2271
  364PEP     CB10863   2.575  11.468  21.101 -0.0285 -0.1869 -0.1930
  364PEP     CB10864   2.972  11.398  21.235 -0.0777 -0.4145 -0.1731
  364PEP     CB10865   3.387  11.649  21.298 -0.4378 -0.2235  0.3203
  364PEP     CB10866   3.608  12.018  21.202  0.1042  0.1551  0.1553
  364PEP     CB10867   3.776  12.300  20.922  0.0871  0.5767 -0.0700
  364PEP     CB10868   4.014  12.168  20.605  0.0383  0.1865  0.0580
  364PEP     CB10869   4.073  12.053  20.117  0.1088 -0.2575 -0.0547
  364PEP     CB10870   4.228  11.752  19.900  0.1062 -0.0977  0.1701
  364PEP     CB10871   4.268  11.691  19.430  0.4496 -0.0183 -0.2304
  364PEP     CB10872   3.957  11.761  19.132  0.2707  0.7434  0.0087
  364PEP     CB10873   3.606  11.635  18.975  0.1422  0.1975  0.0663
  364PEP     CB10874   3.220  11.417  18.905 -0.3063 -0.1885 -0.1245
  364PEP     CB10875   2.838  11.395  19.184  0.0238 -0.1423 -0.2163
  364PEP     CB10876   2.792  11.421  19.564 -0.3140 -0.1680 -0.1922
  364PEP     CB10877   2.499  11.208  19.953 -0.3780 -0.2079  0.0682
  364PEP     CB10878   2.070  10.916  20.024 -0.2403 -0.1080  0.1267
  364PEP     CB10879   1.683  10.758  19.939  0.2130 -0.2378  0.4270
  364PEP     CB10880   1.193  10.838  20.000  0.0839  0.0471  0.0922
  365PEP     CB10881  20.290  14.369  15.711  0.0235 -0.5033  0.0111
  365PEP     CB10882  20.230  14.026  15.454 -0.0707 -0.2072  0.0300
  365PEP     CB10883  20.135  13.640  15.267 -0.2886  0.1173 -0.2647
  365PEP     CB10884  20.308  13.246  15.332 -0.3248 -0.1045 -0.0058
  365PEP     CB10885  20.660  12.981  15.455 -0.1297  0.2060  0.2357
  365PEP     CB10886  20.936  12.745  15.280  0.3078 -0.2856 -0.0644
  365PEP     CB10887  20.792  12.382  15.090  0.1418  0.4583 -0.2391
  365PEP     CB10888  20.561  12.367  14.706  0.0382 -0.2560 -0.1337
  365PEP     CB10889  20.499  12.536  14.344 -0.4182 -0.0427  0.0627
  365PEP     CB10890  20.526  12.507  13.837  0.0915 -0.2685 -0.3240
  365PEP     CB10891  20.647  12.364  13.463  0.0937 -0.3311  0.3065
  365PEP     CB10892  20.864  12.496  13.101  0.0143  0.0113 -0.0295
  365PEP     CB10893  21.052  12.890  12.808  0.3746 -0.0061  0.3722
  365PEP     CB10894  21.313  13.223  12.902  0.1266 -0.3446  0.1339
  365PEP     CB10895  21.611  13.421  13.011 -0.2907 -0.0003  0.0543
  365PEP     CB10896  21.936  13.552  12.745  0.3214 -0.3236 -0.0216
  365PEP     CB10897  22.188  13.269  12.494 -0.0617  0.1579  0.0315
  365PEP     CB10898  22.452  12.930  12.397 -0.0211 -0.2496  0.0705
  365PEP     CB10899  22.534  12.549  12.346 -0.4081 -0.6489 -0.1593
  365PEP     CB10900  22.401  12.160  12.398  0.0639  0.0031 -0.1207
  365PEP     CB10901  21.966  11.964  12.462  0.0218 -0.1554 -0.1175
  365PEP     CB10902  21.558  12.092  12.420  0.1407  0.4320 -0.5144
  365PEP     CB10903  21.393  12.199  12.132 -0.0553  0.0360 -0.1361
  365PEP     CB10904  21.350  12.372  11.678 -0.1661 -0.0980  0.0025
  365PEP     CB10905  21.181  12.492  11.255  0.2281  0.0138  0.1767
  365PEP     CB10906  21.217  12.543  10.811 -0.0363  0.2642  0.3286
  365PEP     CB10907  21.475  12.366  10.468 -0.2724 -0.0110 -0.2395
  365PEP     CB10908  21.601  12.294  10.052 -0.0273 -0.1346 -0.0520
  365PEP     CB10909  21.443  12.241   9.628  0.0157  0.2908 -0.3292
  365PEP     CB10910  21.186  12.503   9.299  0.0187 -0.3609  0.1904
  365PEP     CB10911  20.963  12.778   8.984 -0.1860  0.3718  0.1919
  365PEP     CB10912  20.983  12.969   8.560  0.1903 -0.1294  0.2798
  365PEP     CB10913  21.024  13.404   8.393  0.2159 -0.2039 -0.1815
  365PEP     CB10914  20.834  13.728   8.353 -0.2708  0.1133 -0.3454
  365PEP     CB10915  20.617  14.127   8.134 -0.0505  0.4392 -0.0663
  365PEP     CB10916  20.309  14.278   7.863 -0.7641  0.3284 -0.6832
  365PEP     CB10917  20.039  14.340   7.388 -0.1929  0.2016  0.0635
  365PEP     CB10918  19.660  14.354   7.220  0.3192 -0.1238 -0.1593
  365PEP     CB10919  19.256  14.251   7.258  0.3342 -0.0037  0.0087
  365PEP     CB10920  18.908  14.056   7.401  0.2534  0.0258 -0.1906
  366PEP     CB10921  19.801  13.692   1.646 -0.0710 -0.3814  0.2182
  366PEP     CB10922  19.999  13.933   2.035 -0.1239 -0.0588  0.0799
  366PEP     CB10923  20.492  13.832   2.095  0.1936 -0.1720 -0.3444
  366PEP     CB10924  20.679  13.453   1.997 -0.0959  0.2026 -0.0028
  366PEP     CB10925  20.928  13.236   1.578 -0.3448  0.0443 -0.0311
  366PEP     CB10926  21.210  13.120   1.235  0.0906  0.1005  0.2679
  366PEP     CB10927  21.123  12.962   0.830  0.3662  0.1639  0.2381
  366PEP     CB10928  20.828  12.820   0.613  0.2176  0.1674  0.1667
  366PEP     CB10929  20.403  12.801   0.549 -0.0192  0.0620 -0.0987
  366PEP     CB10930  20.032  12.766   0.849  0.0526 -0.1630  0.0969
  366PEP     CB10931  19.619  12.870   0.921  0.1616 -0.3563  0.2698
  366PEP     CB10932  19.219  12.974   0.784 -0.0253  0.0838  0.1492
  366PEP     CB10933  19.009  13.148   0.443  0.1199 -0.1333  0.0735
  366PEP     CB10934  18.985  12.945   0.050  0.0370  0.0158  0.3922
  366PEP     CB10935  19.137  12.699  -0.307 -0.2200  0.3243 -0.0455
  366PEP     CB10936  19.332  12.658  -0.786  0.3175 -0.1400 -0.0611
  366PEP     CB10937  19.604  12.553  -1.055  0.0178  0.1310 -0.0991
  366PEP     CB10938  19.678  12.236  -1.496 -0.3488 -0.0527 -0.1795
  366PEP     CB10939  19.582  12.237  -1.925 -0.6627  0.0506 -0.0377
  366PEP     CB10940  19.545  12.385  -2.373  0.1262 -0.1255  0.4043
  366PEP     CB10941  19.786  12.572  -2.760  0.0787 -0.0693 -0.3314
  366PEP     CB10942  19.995  12.960  -2.768  0.1669 -0.0888 -0.0348
  366PEP     CB10943  20.077  13.458  -2.862 -0.2649  0.1401 -0.0929
  366PEP     CB10944  20.241  13.753  -3.074  0.0308 -0.1732 -0.0604
  366PEP     CB10945  20.593  13.862  -3.141  0.0980  0.4242  0.4365
  366PEP     CB10946  20.929  13.749  -2.873  0.0234  0.0145 -0.1729
  366PEP     CB10947  21.316  13.646  -2.720  0.0851  0.0615 -0.1696
  366PEP     CB10948  21.792  13.644  -2.700 -0.8114 -0.1933  0.3695
  366PEP     CB10949  22.084  13.872  -2.820  0.2655  0.0326  0.0148
  366PEP     CB10950  22.049  14.165  -3.237  0.0029 -0.1061  0.2369
  366PEP     CB10951  22.165  14.235  -3.630 -0.0120 -0.4072 -0.1918
  366PEP     CB10952  22.467  14.590  -3.747  0.2256 -0.3699  0.0941
  366PEP     CB10953  22.764  14.770  -3.396  0.1026 -0.0740 -0.4235
  366PEP     CB10954  22.710  14.673  -2.905 -0.3344 -0.1966 -0.0130
  366PEP     CB10955  22.424  14.857  -2.651  0.2394  0.6132  0.0673
  366PEP     CB10956  21.954  14.901  -2.727 -0.0015 -0.0564 -0.1915
  366PEP     CB10957  21.768  14.675  -3.058 -0.0399 -0.2653 -0.2628
  366PEP     CB10958  21.859  14.560  -3.438  0.0843 -0.0420  0.2572
  366PEP     CB10959  21.933  14.751  -3.884  0.1470  0.0350 -0.0466
  366PEP     CB10960  22.248  14.851  -4.203 -0.3047  0.2149 -0.0112
  367PEP     CB10961  15.712  16.554  16.191 -0.1993  0.2986  0.0346
  367PEP     CB10962  15.590  16.811  15.862 -0.0942  0.3306  0.0994
  367PEP     CB10963  15.494  16.938  15.407 -0.1212 -0.3144 -0.1783
  367PEP     CB10964  15.499  17.129  15.004 -0.1235  0.0613  0.3688
  367PEP     CB10965  15.583  17.444  14.580 -0.2566  0.1201  0.3594
  367PEP     CB10966  15.463  17.401  14.158 -0.1723 -0.4124 -0.1203
  367PEP     CB10967  15.444  17.111  13.807 -0.1809  0.3711  0.1779
  367PEP     CB10968  15.241  16.923  13.401 -0.2837  0.1209  0.4439
  367PEP     CB10969  15.002  17.281  13.164 -0.0117 -0.1932  0.2727
  367PEP     CB10970  15.072  17.771  13.199 -0.1011  0.0611  0.1821
  367PEP     CB10971  15.171  18.222  13.193 -0.2557 -0.3150  0.4105
  367PEP     CB10972  15.237  18.516  13.399 -0.2556 -0.3625  0.1786
  367PEP     CB10973  15.168  18.816  13.822 -0.0692 -0.1938 -0.1227
  367PEP     CB10974  15.209  19.034  14.260  0.2741 -0.2235  0.5971
  367PEP     CB10975  15.153  19.227  14.582 -0.1514 -0.0580 -0.1467
  367PEP     CB10976  15.037  19.337  15.003  0.0285 -0.3797  0.5961
  367PEP     CB10977  15.101  19.219  15.497 -0.0983 -0.1574  0.0421
  367PEP     CB10978  14.989  18.915  15.795  0.0075 -0.4050  0.0686
  367PEP     CB10979  15.082  18.394  15.687  0.1851 -0.2225  0.0032
  367PEP     CB10980  15.324  18.253  15.306  0.2428 -0.3339 -0.4578
  367PEP     CB10981  15.358  18.221  14.845 -0.1430  0.0421 -0.1689
  367PEP     CB10982  15.375  17.881  14.567  0.3550 -0.0004  0.0507
  367PEP     CB10983  14.859  17.740  14.417 -0.2431 -0.0262 -0.0861
  367PEP     CB10984  14.565  17.960  14.619 -0.3791 -0.3340 -0.0561
  367PEP     CB10985  14.447  18.368  14.593  0.0405 -0.4150  0.3284
  367PEP     CB10986  14.690  18.619  14.244  0.2835  0.3048 -0.0167
  367PEP     CB10987  14.845  18.473  13.835 -0.0849  0.3360 -0.2794
  367PEP     CB10988  14.707  18.314  13.491  0.0206 -0.0593  0.0382
  367PEP     CB10989  14.626  18.479  13.054 -0.1728  0.2285  0.3162
  367PEP     CB10990  14.647  18.915  12.840 -0.1051 -0.2402  0.1667
  367PEP     CB10991  14.991  19.167  12.708 -0.1575 -0.0897  0.1051
  367PEP     CB10992  15.403  19.412  12.412 -0.0187  0.3098  0.3061
  367PEP     CB10993  15.547  19.806  12.297 -0.0845 -0.1197  0.1538
  367PEP     CB10994  15.347  20.161  12.458  0.1185  0.2618 -0.2743
  367PEP     CB10995  15.279  20.356  12.857 -0.0783 -0.3820 -0.1813
  367PEP     CB10996  15.576  20.574  13.184 -0.1872 -0.1963  0.2327
  367PEP     CB10997  15.522  20.750  13.577 -0.1570  0.0327 -0.0526
  367PEP     CB10998  15.245  20.571  13.919  0.1292  0.0512  0.0254
  367PEP     CB10999  15.056  20.177  14.171  0.5135 -0.0398  0.5990
  367PEP     CB11000  14.805  19.936  14.027 -0.0436  0.4737  0.0394
  368PEP     CB11001   0.785   8.710  13.911 -0.1487 -0.1441 -0.1139
  368PEP     CB11002   0.812   9.140  14.180  0.0246 -0.4678  0.1989
  368PEP     CB11003   0.666   9.405  14.540 -0.2154  0.1560  0.2468
  368PEP     CB11004   0.421   9.438  14.904 -0.0053 -0.0765 -0.1185
  368PEP     CB11005   0.139   9.285  15.234 -0.1905 -0.0535  0.4607
  368PEP     CB11006  -0.298   9.469  15.277 -0.1858 -0.0618  0.0635
  368PEP     CB11007  -0.687   9.780  15.147 -0.0971 -0.0379  0.5928
  368PEP     CB11008  -0.627  10.230  15.077  0.1153  0.3350 -0.0303
  368PEP     CB11009  -0.463  10.677  14.892  0.1859 -0.1293  0.2547
  368PEP     CB11010  -0.560  10.998  14.679  0.0403 -0.1886 -0.0665
  368PEP     CB11011  -0.817  11.098  14.329 -0.0877 -0.3126 -0.3231
  368PEP     CB11012  -0.930  10.793  14.052  0.0815 -0.0811  0.1079
  368PEP     CB11013  -1.192  10.570  13.683  0.1661 -0.1734 -0.1484
  368PEP     CB11014  -1.439  10.267  13.742  0.1376  0.4770  0.2185
  368PEP     CB11015  -1.479   9.913  14.010 -0.0405 -0.2306 -0.0552
  368PEP     CB11016  -1.472   9.740  14.384 -0.4727  0.1521 -0.2274
  368PEP     CB11017  -1.368   9.419  14.629 -0.1297 -0.0662 -0.2805
  368PEP     CB11018  -1.490   9.076  14.917 -0.1055  0.1935  0.0969
  368PEP     CB11019  -1.397   8.870  15.315  0.2262 -0.0462 -0.1196
  368PEP     CB11020  -1.046   8.685  15.327  0.0403  0.0019 -0.2481
  368PEP     CB11021  -0.602   8.714  15.033  0.1535  0.0987  0.1944
  368PEP     CB11022  -0.528   8.920  14.621  0.0554  0.4826 -0.0696
  368PEP     CB11023  -0.674   9.056  14.356 -0.4644 -0.1091  0.0972
  368PEP     CB11024  -0.981   9.366  14.404 -0.3719  0.1580 -0.2713
  368PEP     CB11025  -1.026   9.761  14.650  0.2780  0.1401 -0.1233
  368PEP     CB11026  -1.094  10.201  14.737  0.1346 -0.1701  0.1169
  368PEP     CB11027  -1.220  10.578  15.083 -0.1294  0.1795  0.3224
  368PEP     CB11028  -1.492  10.807  15.446 -0.2400  0.3802 -0.0792
  368PEP     CB11029  -1.707  11.056  15.807 -0.3906  0.3009 -0.2023
  368PEP     CB11030  -1.726  11.006  16.260  0.1465  0.3603  0.2883
  368PEP     CB11031  -1.540  10.697  16.330  0.1988  0.3509 -0.3473
  368PEP     CB11032  -1.439  10.419  16.720  0.0499  0.0857 -0.1108
  368PEP     CB11033  -1.432  10.003  16.927 -0.4592 -0.4628 -0.0479
  368PEP     CB11034  -1.553   9.574  16.919  0.0580  0.5560  0.1100
  368PEP     CB11035  -1.726   9.120  16.989 -0.0036 -0.2421 -0.3273
  368PEP     CB11036  -1.621   8.745  17.272 -0.4219  0.2133 -0.0567
  368PEP     CB11037  -1.241   8.882  17.618  0.2019  0.0296  0.0388
  368PEP     CB11038  -0.852   8.792  17.887 -0.2587 -0.2641 -0.2124
  368PEP     CB11039  -0.378   8.746  17.965  0.7997 -0.0913 -0.1456
  368PEP     CB11040   0.026   8.731  18.162 -0.0466 -0.0223 -0.2936
  369PEP     CB11041  10.264   2.177  20.547 -0.1497  0.1919 -0.4000
  369PEP     CB11042  10.181   1.934  20.222  0.2556  0.4085  0.3032
  369PEP     CB11043  10.031   1.601  20.004 -0.0059 -0.1016 -0.0302
  369PEP     CB11044   9.606   1.604  19.764 -0.0711  0.0157  0.0879
  369PEP     CB11045   9.290   1.873  19.945 -0.0549 -0.2209 -0.2684
  369PEP     CB11046   9.112   2.252  19.794  0.0605  0.0933  0.0575
  369PEP     CB11047   8.739   2.417  19.621 -0.0603 -0.0992  0.3871
  369PEP     CB11048   8.432   2.327  19.289 -0.1352 -0.2152 -0.2726
  369PEP     CB11049   8.207   1.918  19.090 -0.2108 -0.0359 -0.0198
  369PEP     CB11050   8.320   1.546  18.959  0.1656 -0.0920  0.2226
  369PEP     CB11051   8.576   1.267  19.027 -0.1077 -0.0275  0.3285
  369PEP     CB11052   8.863   0.979  19.279 -0.2463  0.0964 -0.1219
  369PEP     CB11053   9.202   0.996  19.383 -0.0901  0.0851 -0.1485
  369PEP     CB11054   9.629   1.212  19.402  0.0978 -0.0832 -0.1354
  369PEP     CB11055  10.063   1.214  19.154 -0.3324  0.2176 -0.0940
  369PEP     CB11056  10.280   1.406  18.887  0.4045  0.1418  0.0225
  369PEP     CB11057  10.053   1.812  18.805 -0.0873 -0.2175  0.0783
  369PEP     CB11058   9.642   1.957  18.728  0.0415  0.2478  0.2797
  369PEP     CB11059   9.285   1.711  18.530 -0.0797  0.0473 -0.0244
  369PEP     CB11060   9.071   1.616  18.281 -0.1307  0.0522  0.1937
  369PEP     CB11061   9.176   1.687  17.817 -0.0438  0.1184  0.3160
  369PEP     CB11062   9.448   1.502  17.487 -0.1615 -0.0052 -0.0509
  369PEP     CB11063   9.827   1.456  17.179  0.0942  0.3635 -0.2939
  369PEP     CB11064  10.100   1.616  16.917  0.3527 -0.2597  0.0173
  369PEP     CB11065  10.197   2.057  16.976  0.3971 -0.0400 -0.1557
  369PEP     CB11066  10.066   2.449  16.947  0.2506  0.0457 -0.2194
  369PEP     CB11067   9.815   2.806  17.019  0.0068  0.1363 -0.0704
  369PEP     CB11068   9.790   3.005  17.348  0.2243 -0.1453 -0.0510
  369PEP     CB11069   9.586   3.326  17.728 -0.4036  0.3137  0.5073
  369PEP     CB11070   9.513   3.741  17.844  0.0910 -0.6193  0.3099
  369PEP     CB11071   9.186   3.909  18.054  0.1200  0.1170 -0.1221
  369PEP     CB11072   8.850   4.060  17.806  0.0339  0.1466 -0.0712
  369PEP     CB11073   8.711   3.915  17.452 -0.1277 -0.0473  0.4901
  369PEP     CB11074   8.834   3.603  17.131 -0.1008 -0.3790  0.0923
  369PEP     CB11075   8.858   3.099  17.048 -0.0681 -0.0772  0.4232
  369PEP     CB11076   8.844   2.780  17.381 -0.0022  0.2922  0.0571
  369PEP     CB11077   8.654   2.389  17.496 -0.3751  0.1672 -0.0332
  369PEP     CB11078   8.627   1.907  17.461 -0.0283  0.1907  0.1471
  369PEP     CB11079   8.570   1.482  17.688 -0.2321  0.2777 -0.0477
  369PEP     CB11080   8.515   1.299  18.151 -0.3007 -0.2527 -0.2168
  370PEP     CB11081   0.080   5.990   9.782 -0.1399 -0.1081  0.2193
  370PEP     CB11082  -0.159   5.959  10.077  0.1484 -0.2022  0.0347
  370PEP     CB11083  -0.437   5.745  10.269 -0.4105 -0.5310  0.0358
  370PEP     CB11084  -0.817   5.451  10.297 -0.1212  0.2871  0.1404
  370PEP     CB11085  -0.990   4.991  10.273  0.1445 -0.3711  0.0692
  370PEP     CB11086  -1.180   4.628  10.266  0.1245 -0.0249  0.3813
  370PEP     CB11087  -1.162   4.318  10.622  0.1498  0.0929  0.2719
  370PEP     CB11088  -0.945   4.174  11.005  0.1398  0.2140  0.0198
  370PEP     CB11089  -0.851   3.792  11.302 -0.2640  0.2404 -0.4959
  370PEP     CB11090  -1.156   3.713  11.697 -0.3451  0.1703 -0.0614
  370PEP     CB11091  -1.583   3.693  11.773 -0.2791  0.1220  0.0645
  370PEP     CB11092  -2.011   3.742  11.633  0.1484 -0.1068 -0.0025
  370PEP     CB11093  -2.314   3.964  11.554 -0.0563 -0.0766 -0.0490
  370PEP     CB11094  -2.341   4.457  11.450  0.1955  0.0400  0.1742
  370PEP     CB11095  -2.303   4.861  11.577 -0.0814  0.2818 -0.0411
  370PEP     CB11096  -2.154   5.163  11.880  0.4343 -0.0354 -0.1305
  370PEP     CB11097  -2.081   5.549  12.141 -0.2460 -0.0498  0.3599
  370PEP     CB11098  -2.221   5.609  12.522 -0.2892 -0.0412 -0.2263
  370PEP     CB11099  -2.308   5.269  12.813  0.5824  0.0489 -0.1205
  370PEP     CB11100  -2.282   4.811  12.851 -0.1127  0.1855 -0.0039
  370PEP     CB11101  -2.412   4.452  13.151  0.1355 -0.1036  0.0742
  370PEP     CB11102  -2.829   4.259  13.274 -0.2815  0.0324  0.0751
  370PEP     CB11103  -3.223   4.442  13.223 -0.1259  0.1770  0.2049
  370PEP     CB11104  -3.289   4.904  13.208 -0.2901  0.5505 -0.1213
  370PEP     CB11105  -3.006   5.259  13.151  0.1447 -0.4667 -0.0202
  370PEP     CB11106  -2.688   5.530  13.394 -0.0727 -0.2554 -0.3225
  370PEP     CB11107  -2.531   5.562  13.798  0.0530 -0.0029  0.2864
  370PEP     CB11108  -2.337   5.400  14.173 -0.3149  0.0894 -0.2511
  370PEP     CB11109  -2.169   5.362  14.593 -0.0802  0.2721  0.2283
  370PEP     CB11110  -1.834   5.222  14.719 -0.0185  0.0507 -0.0962
  370PEP     CB11111  -1.656   4.849  14.489  0.0664  0.4138 -0.0735
  370PEP     CB11112  -1.411   4.589  14.171 -0.3943  0.1008 -0.2750
  370PEP     CB11113  -1.311   4.149  14.150 -0.2511  0.1821  0.1903
  370PEP     CB11114  -1.086   3.745  14.142 -0.0648  0.1031  0.1079
  370PEP     CB11115  -1.099   3.307  13.882 -0.1579 -0.1134 -0.1981
  370PEP     CB11116  -0.998   3.196  13.513  0.2087  0.3045 -0.0969
  370PEP     CB11117  -1.153   3.139  13.100  0.1397 -0.0183 -0.2550
  370PEP     CB11118  -1.379   2.800  12.998  0.0669 -0.1987 -0.0410
  370PEP     CB11119  -1.693   2.377  13.119 -0.2230  0.2147 -0.1461
  370PEP     CB11120  -1.837   2.020  13.102 -0.2268  0.1264  0.1097
  371PEP     CB11121  15.078   1.100  15.262 -0.3689  0.2231  0.1361
  371PEP     CB11122  15.146   0.740  15.530  0.0617  0.4200 -0.2872
  371PEP     CB11123  15.504   0.450  15.503  0.1886 -0.3103  0.4119
  371PEP     CB11124  15.961   0.531  15.364 -0.0285 -0.0450 -0.2242
  371PEP     CB11125  16.132   0.688  14.992  0.0242  0.5219  0.1933
  371PEP     CB11126  15.791   0.651  14.571  0.1678  0.4623  0.0628
  371PEP     CB11127  15.737   0.417  14.225 -0.1885 -0.2591  0.1644
  371PEP     CB11128  15.368   0.238  14.010  0.0208  0.0339  0.3152
  371PEP     CB11129  14.871   0.364  13.966  0.2313 -0.0925 -0.3442
  371PEP     CB11130  14.657   0.736  13.885  0.4634  0.1408 -0.1330
  371PEP     CB11131  14.458   1.185  13.934  0.1525 -0.3280  0.0241
  371PEP     CB11132  14.493   1.523  13.664  0.3549 -0.2476  0.1128
  371PEP     CB11133  14.154   1.748  13.428 -0.1629 -0.1863  0.0539
  371PEP     CB11134  13.782   1.740  13.163  0.0788  0.4084 -0.2473
  371PEP     CB11135  13.544   1.996  12.822 -0.0644  0.3171  0.0061
  371PEP     CB11136  13.251   2.214  12.656 -0.1470 -0.0879 -0.1552
  371PEP     CB11137  12.946   2.522  12.398 -0.0662 -0.4076 -0.0096
  371PEP     CB11138  12.920   2.543  11.907 -0.2410  0.0972 -0.1674
  371PEP     CB11139  13.052   2.208  11.668  0.2001  0.1606 -0.0190
  371PEP     CB11140  12.979   1.781  11.525 -0.0039  0.2751  0.1960
  371PEP     CB11141  12.675   1.482  11.715 -0.1419 -0.4878  0.1042
  371PEP     CB11142  12.452   1.524  12.116 -0.3137  0.2135  0.3231
  371PEP     CB11143  12.573   1.837  12.367  0.1077  0.1420  0.0815
  371PEP     CB11144  12.546   2.265  12.252 -0.1842 -0.1654 -0.0137
  371PEP     CB11145  12.368   2.549  12.001  0.0033  0.0206  0.1428
  371PEP     CB11146  12.279   3.010  11.971 -0.1010  0.0552 -0.1389
  371PEP     CB11147  12.452   3.422  11.897 -0.2870  0.0855 -0.1424
  371PEP     CB11148  12.856   3.515  12.044 -0.2135 -0.3160  0.3880
  371PEP     CB11149  13.201   3.280  11.951  0.6308  0.0586 -0.1337
  371PEP     CB11150  13.656   3.386  11.992 -0.0184 -0.0443  0.0028
  371PEP     CB11151  14.109   3.281  12.165 -0.1881  0.2540  0.2908
  371PEP     CB11152  14.378   3.520  12.075 -0.1366  0.0721 -0.1446
  371PEP     CB11153  14.728   3.668  12.268  0.0780  0.0635  0.4501
  371PEP     CB11154  15.107   3.377  12.271  0.1827 -0.3607  0.4469
  371PEP     CB11155  15.580   3.431  12.223  0.1120  0.1153  0.1210
  371PEP     CB11156  15.872   3.650  12.180  0.1256 -0.0283  0.1296
  371PEP     CB11157  15.815   3.965  11.858  0.0210 -0.1338 -0.2541
  371PEP     CB11158  15.699   4.061  11.415  0.1385 -0.1124  0.3117
  371PEP     CB11159  15.336   3.993  11.057  0.0026 -0.1204  0.4665
  371PEP     CB11160  15.130   4.178  10.701 -0.4915  0.1019 -0.0065
  372PEP     CB11161   6.029   5.996   6.952  0.0964  0.0076  0.3686
  372PEP     CB11162   6.106   5.704   7.268  0.0728 -0.2114  0.0157
  372PEP     CB11163   6.235   5.183   7.197  0.0214  0.3615  0.0737
  372PEP     CB11164   5.997   4.881   7.006  0.2098  0.0656  0.2306
  372PEP     CB11165   5.718   5.023   6.720  0.1188  0.1222 -0.2168
  372PEP     CB11166   5.309   4.973   6.532 -0.4170  0.0525  0.3902
  372PEP     CB11167   5.054   4.651   6.258  0.0877 -0.0434  0.0125
  372PEP     CB11168   4.516   4.646   6.201  0.3683  0.3845  0.0496
  372PEP     CB11169   4.172   4.560   6.340  0.1332 -0.0346  0.1700
  372PEP     CB11170   3.802   4.500   6.532  0.3231 -0.0364  0.2965
  372PEP     CB11171   3.689   4.427   6.974 -0.2327 -0.2395 -0.1196
  372PEP     CB11172   3.518   4.360   7.295 -0.1799  0.4686  0.0413
  372PEP     CB11173   3.186   4.319   7.579 -0.1718 -0.1498  0.2106
  372PEP     CB11174   2.857   4.171   7.608  0.3181  0.0434 -0.1534
  372PEP     CB11175   2.551   3.919   7.812 -0.1215  0.0083  0.3284
  372PEP     CB11176   2.291   3.703   7.596  0.0521  0.3033 -0.0160
  372PEP     CB11177   2.166   3.741   7.149 -0.0722 -0.0500 -0.0299
  372PEP     CB11178   2.349   3.685   6.783  0.1387 -0.0170  0.0522
  372PEP     CB11179   2.601   3.300   6.622 -0.1289  0.1718 -0.0833
  372PEP     CB11180   2.814   2.953   6.656  0.1916 -0.1111  0.0078
  372PEP     CB11181   2.880   2.584   6.852  0.1366  0.0176  0.1921
  372PEP     CB11182   2.635   2.161   6.947 -0.2871 -0.1981 -0.0340
  372PEP     CB11183   2.293   1.829   7.054  0.0296 -0.0232 -0.2235
  372PEP     CB11184   2.024   1.521   7.152  0.1226  0.3861  0.0193
  372PEP     CB11185   1.627   1.521   7.447  0.0157 -0.3589  0.1428
  372PEP     CB11186   1.316   1.830   7.471 -0.1518 -0.0175 -0.4336
  372PEP     CB11187   0.758   1.777   7.420  0.0807 -0.2109  0.1302
  372PEP     CB11188   0.377   1.964   7.361  0.3416  0.1424 -0.1510
  372PEP     CB11189  -0.101   1.971   7.336  0.2655 -0.5128  0.1411
  372PEP     CB11190  -0.552   1.981   7.490 -0.1696  0.0281 -0.0584
  372PEP     CB11191  -0.804   1.822   7.755 -0.0043 -0.3707  0.1077
  372PEP     CB11192  -1.167   1.622   7.677 -0.0415 -0.0171 -0.2282
  372PEP     CB11193  -1.374   1.736   7.242 -0.2008 -0.1024 -0.3089
  372PEP     CB11194  -1.245   1.940   6.900  0.1178 -0.3131 -0.2405
  372PEP     CB11195  -1.053   2.143   6.554 -0.0194  0.0361  0.0302
  372PEP     CB11196  -0.692   2.056   6.317 -0.3023  0.0933 -0.0338
  372PEP     CB11197  -0.417   1.712   6.320 -0.0211 -0.2677 -0.0062
  372PEP     CB11198  -0.449   1.293   6.477  0.3777 -0.1036  0.1557
  372PEP     CB11199  -0.422   0.965   6.500 -0.1841 -0.3108  0.4922
  372PEP     CB11200  -0.565   0.564   6.621 -0.0870  0.0993  0.2344
  373PEP     CB11201   3.300  16.364   1.318  0.1057 -0.1503  0.1858
  373PEP     CB11202   3.521  16.509   1.651  0.2542 -0.2612 -0.0790
  373PEP     CB11203   3.835  16.433   1.903 -0.2138  0.0613 -0.5932
  373PEP     CB11204   4.233  16.460   2.131 -0.4114  0.3324  0.1056
  373PEP     CB11205   4.660  16.470   2.421  0.1968  0.0982  0.0320
  373PEP     CB11206   4.694  16.532   2.969 -0.2021  0.1104 -0.4225
  373PEP     CB11207   4.971  16.446   3.355 -0.1231  0.1572  0.4311
  373PEP     CB11208   5.134  16.455   3.800 -0.1311  0.1950 -0.0801
  373PEP     CB11209   5.002  16.630   4.155  0.0591  0.0466 -0.3626
  373PEP     CB11210   5.090  17.076   4.123 -0.2311  0.0349 -0.0882
  373PEP     CB11211   4.885  17.400   3.976 -0.0894  0.1851  0.1365
  373PEP     CB11212   4.893  17.783   3.667  0.3996 -0.0989  0.1149
  373PEP     CB11213   4.886  18.063   3.343  0.0064 -0.0103 -0.1795
  373PEP     CB11214   4.716  18.125   2.996  0.1373  0.0517 -0.4388
  373PEP     CB11215   4.576  18.179   2.499 -0.1065  0.0684  0.2001
  373PEP     CB11216   4.369  17.956   2.139 -0.3630 -0.0356  0.2330
  373PEP     CB11217   4.303  17.533   1.976 -0.0154  0.1433 -0.1391
  373PEP     CB11218   4.414  17.011   1.949 -0.2149 -0.0034  0.1295
  373PEP     CB11219   4.212  16.681   1.655 -0.0663 -0.1634 -0.0730
  373PEP     CB11220   3.820  16.815   1.438 -0.0997  0.0563  0.2289
  373PEP     CB11221   3.774  17.305   1.362  0.5695  0.1927  0.0313
  373PEP     CB11222   3.606  17.596   1.796 -0.3211 -0.1090  0.2470
  373PEP     CB11223   3.213  17.506   1.964  0.0673 -0.5391 -0.0862
  373PEP     CB11224   2.939  17.333   2.283 -0.3328  0.0364 -0.0790
  373PEP     CB11225   2.759  16.853   2.210 -0.0021  0.2924 -0.0671
  373PEP     CB11226   2.844  16.543   1.906  0.2183 -0.1527 -0.2287
  373PEP     CB11227   2.980  16.652   1.574 -0.2398  0.0125  0.1996
  373PEP     CB11228   3.029  17.019   1.341 -0.2523  0.1257 -0.1583
  373PEP     CB11229   3.283  17.484   1.273 -0.0846  0.0139 -0.2187
  373PEP     CB11230   3.307  17.890   1.098 -0.0284 -0.2468 -0.2877
  373PEP     CB11231   3.015  18.228   0.770 -0.4130 -0.0600  0.0192
  373PEP     CB11232   3.056  18.546   0.496  0.1870  0.0086 -0.2986
  373PEP     CB11233   3.311  18.898   0.426 -0.0592  0.3134 -0.2433
  373PEP     CB11234   3.750  19.023   0.342  0.0095  0.1622  0.1591
  373PEP     CB11235   4.072  19.211   0.600  0.2333  0.4439 -0.1370
  373PEP     CB11236   4.172  19.559   0.890  0.0721 -0.0508  0.3686
  373PEP     CB11237   4.224  19.938   1.104  0.1481 -0.3229 -0.1634
  373PEP     CB11238   4.309  20.017   1.563  0.0964 -0.4137  0.2252
  373PEP     CB11239   4.314  20.212   1.886 -0.2517 -0.4923 -0.0794
  373PEP     CB11240   4.244  20.556   2.108  0.0172  0.2327  0.0803
  374PEP     CB11241  17.731   9.902   9.651 -0.1446 -0.0139 -0.1104
  374PEP     CB11242  17.649  10.025  10.071  0.2053 -0.3798  0.3136
  374PEP     CB11243  17.497  10.337  10.312 -0.0405 -0.4162 -0.0165
  374PEP     CB11244  17.439  10.742  10.080  0.1694 -0.2449 -0.0272
  374PEP     CB11245  17.193  11.130  10.060  0.2522  0.1789  0.0402
  374PEP     CB11246  16.888  11.446  10.325  0.1177  0.3640 -0.0450
  374PEP     CB11247  16.786  11.568  10.772  0.3678  0.5920 -0.1721
  374PEP     CB11248  17.107  11.675  11.076 -0.2078  0.0201  0.1251
  374PEP     CB11249  17.282  12.092  10.998 -0.3255  0.0228  0.0270
  374PEP     CB11250  17.208  12.485  11.016 -0.1618 -0.2566 -0.0780
  374PEP     CB11251  16.856  12.813  10.825 -0.4563 -0.0571 -0.0389
  374PEP     CB11252  16.789  13.003  10.408  0.0680  0.2813  0.2931
  374PEP     CB11253  16.983  12.916  10.126  0.6233  0.1654 -0.3100
  374PEP     CB11254  16.964  12.957   9.623 -0.2798 -0.3856 -0.0632
  374PEP     CB11255  17.020  13.236   9.317  0.3703  0.1141  0.2968
  374PEP     CB11256  17.394  13.488   9.143  0.3459  0.2217 -0.0247
  374PEP     CB11257  17.854  13.568   9.170  0.6510  0.2237 -0.0285
  374PEP     CB11258  18.095  13.621   8.868  0.0633  0.3044 -0.3783
  374PEP     CB11259  17.951  13.646   8.466 -0.1229  0.0798 -0.2883
  374PEP     CB11260  17.666  13.410   8.224 -0.0966 -0.2831 -0.1612
  374PEP     CB11261  17.398  13.154   8.034 -0.2274 -0.0942 -0.2626
  374PEP     CB11262  17.273  13.062   7.648  0.1323 -0.4122 -0.3741
  374PEP     CB11263  17.376  13.024   7.236 -0.2375 -0.1010 -0.2290
  374PEP     CB11264  17.172  12.920   6.805 -0.1498  0.1687  0.2245
  374PEP     CB11265  16.791  12.975   6.569  0.2908  0.2217  0.0547
  374PEP     CB11266  16.582  13.377   6.482 -0.0459  0.0310  0.0527
  374PEP     CB11267  16.557  13.747   6.700 -0.1336 -0.3264 -0.1026
  374PEP     CB11268  16.558  13.750   7.152  0.1919  0.0456 -0.2164
  374PEP     CB11269  16.911  13.845   7.467 -0.0001  0.0848  0.2307
  374PEP     CB11270  17.285  13.697   7.487 -0.0064 -0.2758  0.0562
  374PEP     CB11271  17.615  13.485   7.741 -0.4401  0.1460 -0.1787
  374PEP     CB11272  18.012  13.473   7.881 -0.0978  0.1498  0.3662
  374PEP     CB11273  18.302  13.210   7.794  0.0729 -0.4345  0.2542
  374PEP     CB11274  18.666  12.966   7.561 -0.2417  0.2578  0.0146
  374PEP     CB11275  19.080  12.866   7.527  0.0851  0.1003  0.1839
  374PEP     CB11276  19.407  12.700   7.230 -0.5188  0.2123 -0.1115
  374PEP     CB11277  19.548  12.578   6.797 -0.2839 -0.1842 -0.3680
  374PEP     CB11278  19.379  12.507   6.388 -0.1757 -0.2453 -0.0496
  374PEP     CB11279  19.224  12.828   6.105 -0.2356  0.1336  0.2009
  374PEP     CB11280  19.232  12.845   5.700 -0.0444 -0.3232  0.1942
  375PEP     CB11281  18.629   7.976  20.422  0.0922  0.1869 -0.1436
  375PEP     CB11282  18.903   8.287  20.635  0.3435 -0.0107 -0.1537
  375PEP     CB11283  19.230   8.355  20.861 -0.1892 -0.0095  0.0957
  375PEP     CB11284  19.249   8.866  20.998  0.1897  0.0178  0.1741
  375PEP     CB11285  19.108   9.233  21.284  0.3094 -0.0464  0.1698
  375PEP     CB11286  19.091   9.706  21.470  0.0357  0.1807 -0.1891
  375PEP     CB11287  19.304  10.068  21.575 -0.3891 -0.1088 -0.0819
  375PEP     CB11288  19.597  10.343  21.812  0.1262 -0.3842 -0.0584
  375PEP     CB11289  19.769  10.405  22.237 -0.0412  0.0006  0.1133
  375PEP     CB11290  19.722  10.672  22.558  0.0098 -0.3721  0.4152
  375PEP     CB11291  19.898  11.017  22.647 -0.1813 -0.3416  0.1148
  375PEP     CB11292  20.248  11.264  22.606  0.2205 -0.0840 -0.0679
  375PEP     CB11293  20.404  11.636  22.430  0.1489  0.0747  0.1921
  375PEP     CB11294  20.435  11.927  22.175 -0.3095  0.1711 -0.1268
  375PEP     CB11295  20.284  12.088  21.729 -0.1975 -0.1875  0.0056
  375PEP     CB11296  20.074  12.265  21.317  0.0523 -0.1911 -0.2121
  375PEP     CB11297  20.040  12.195  20.906 -0.3349  0.4084  0.1302
  375PEP     CB11298  20.310  12.141  20.499  0.0244  0.2764  0.0275
  375PEP     CB11299  20.790  12.114  20.328  0.2146  0.2092 -0.0904
  375PEP     CB11300  21.261  12.068  20.499 -0.2481 -0.4237 -0.0156
  375PEP     CB11301  21.300  12.180  20.872 -0.1403 -0.0212  0.3348
  375PEP     CB11302  21.086  12.103  21.233 -0.5674  0.1386 -0.1680
  375PEP     CB11303  21.027  11.764  21.299  0.1121 -0.1017  0.2534
  375PEP     CB11304  20.974  11.389  21.092  0.1037  0.0576 -0.1624
  375PEP     CB11305  20.813  11.108  20.778 -0.3279 -0.1177 -0.2306
  375PEP     CB11306  20.646  10.684  20.741  0.2122 -0.0557  0.1255
  375PEP     CB11307  20.658  10.292  20.403  0.4839 -0.0213  0.2394
  375PEP     CB11308  20.631  10.393  19.991 -0.0432 -0.0085 -0.0693
  375PEP     CB11309  20.440  10.642  19.637  0.0410  0.3290  0.1108
  375PEP     CB11310  20.401  10.985  19.441  0.3531 -0.1428 -0.0600
  375PEP     CB11311  20.732  11.283  19.443  0.1146  0.0171 -0.1196
  375PEP     CB11312  20.999  11.384  19.132  0.1247 -0.0857  0.2673
  375PEP     CB11313  21.074  11.585  18.669 -0.3294 -0.2502  0.3413
  375PEP     CB11314  21.295  11.868  18.421  0.1210  0.0669 -0.0794
  375PEP     CB11315  21.584  11.989  18.099 -0.2797 -0.3290  0.2508
  375PEP     CB11316  21.842  11.780  17.815 -0.1536  0.1727 -0.1770
  375PEP     CB11317  22.043  11.533  17.579  0.2022 -0.1563 -0.0366
  375PEP     CB11318  22.432  11.369  17.327  0.0708 -0.2255 -0.0196
  375PEP     CB11319  22.767  11.158  17.346  0.2895 -0.2319  0.3325
  375PEP     CB11320  22.969  10.692  17.274 -0.4110  0.2219 -0.3865
  376PEP     CB11321   6.707  14.077  17.573  0.0076 -0.2122  0.0791
  376PEP     CB11322   6.564  13.732  17.402  0.2073  0.1057 -0.1350
  376PEP     CB11323   6.752  13.472  17.228  0.0522  0.1357 -0.2491
  376PEP     CB11324   7.048  13.099  17.161 -0.2948 -0.1657 -0.2219
  376PEP     CB11325   7.462  12.888  17.122  0.1162 -0.5503  0.1887
  376PEP     CB11326   7.753  12.482  17.083  0.2180  0.0331 -0.3397
  376PEP     CB11327   7.774  12.105  17.304  0.3103 -0.3282 -0.1906
  376PEP     CB11328   7.670  12.112  17.654  0.0563 -0.0047  0.2316
  376PEP     CB11329   7.650  11.843  18.057 -0.0107 -0.3431  0.2278
  376PEP     CB11330   7.285  11.560  18.073  0.0256 -0.2666  0.1190
  376PEP     CB11331   6.897  11.746  18.188 -0.0130 -0.2873  0.0943
  376PEP     CB11332   6.819  12.098  18.385 -0.4520 -0.2548  0.2328
  376PEP     CB11333   6.941  12.568  18.404  0.2354 -0.2334 -0.4439
  376PEP     CB11334   7.062  12.842  18.091  0.0418  0.4281  0.1166
  376PEP     CB11335   7.441  12.974  17.972 -0.1923 -0.2534 -0.2780
  376PEP     CB11336   7.896  13.071  18.132 -0.1940 -0.2400  0.3386
  376PEP     CB11337   8.156  13.502  18.267 -0.1062 -0.5846  0.0640
  376PEP     CB11338   8.550  13.659  18.179 -0.3694  0.0502  0.4761
  376PEP     CB11339   8.906  13.543  17.981 -0.2286 -0.2530 -0.1249
  376PEP     CB11340   8.795  13.307  17.614  0.0772  0.0155  0.5031
  376PEP     CB11341   8.387  13.019  17.437  0.0543  0.1265 -0.2047
  376PEP     CB11342   7.942  12.968  17.345  0.3141 -0.4762 -0.1472
  376PEP     CB11343   7.622  13.229  17.523 -0.3657  0.2315 -0.3718
  376PEP     CB11344   7.702  13.481  17.940  0.2937 -0.0815 -0.0635
  376PEP     CB11345   7.542  13.289  18.348  0.3428 -0.0751  0.5115
  376PEP     CB11346   7.179  13.037  18.532  0.3006  0.0281 -0.3826
  376PEP     CB11347   7.165  12.704  18.803  0.2469  0.2513  0.3745
  376PEP     CB11348   7.490  12.445  19.054  0.3269 -0.2141 -0.1301
  376PEP     CB11349   7.655  12.234  19.528 -0.3344  0.0699 -0.3849
  376PEP     CB11350   7.635  12.525  19.859 -0.1776 -0.0263  0.1393
  376PEP     CB11351   7.716  12.994  19.890  0.0313  0.1546 -0.2363
  376PEP     CB11352   8.088  13.188  19.982  0.0742  0.1697  0.1748
  376PEP     CB11353   8.389  13.508  20.044  0.0976 -0.1720 -0.1312
  376PEP     CB11354   8.559  13.866  19.820  0.2924 -0.1164 -0.1939
  376PEP     CB11355   8.606  14.336  19.666  0.0092 -0.0942 -0.3342
  376PEP     CB11356   8.780  14.778  19.490  0.3757 -0.2138 -0.1254
  376PEP     CB11357   9.002  15.165  19.270 -0.1114 -0.0844  0.1002
  376PEP     CB11358   9.049  15.498  19.070  0.2647  0.1148  0.0141
  376PEP     CB11359   8.875  15.675  18.734 -0.1586  0.0318 -0.2017
  376PEP     CB11360   8.532  15.709  18.537 -0.0454 -0.0092 -0.0142
  377PEP     CB11361   4.585  15.831   1.564  0.3361  0.0831 -0.2584
  377PEP     CB11362   4.733  15.581   1.925 -0.3868  0.1879 -0.2069
  377PEP     CB11363   4.751  15.210   2.143 -0.0288 -0.0228 -0.1273
  377PEP     CB11364   4.998  14.811   2.123  0.2755 -0.1389  0.2515
  377PEP     CB11365   5.425  14.871   2.240 -0.3615  0.2887 -0.4128
  377PEP     CB11366   5.418  15.293   2.314 -0.0947 -0.1264  0.1049
  377PEP     CB11367   5.223  15.594   2.015  0.0069 -0.0888  0.0592
  377PEP     CB11368   5.118  15.884   1.751  0.1742  0.2468 -0.0339
  377PEP     CB11369   5.103  16.123   1.452 -0.2408 -0.0553  0.3794
  377PEP     CB11370   5.169  16.570   1.410  0.2926 -0.0436  0.1238
  377PEP     CB11371   5.534  16.916   1.418 -0.0205  0.0792 -0.0153
  377PEP     CB11372   5.699  17.262   1.114  0.0847  0.0079 -0.0724
  377PEP     CB11373   5.768  17.295   0.637 -0.0186 -0.0664  0.0032
  377PEP     CB11374   5.746  16.839   0.429  0.1854  0.0845  0.2417
  377PEP     CB11375   5.696  16.414   0.367  0.2237  0.0958 -0.1726
  377PEP     CB11376   5.585  15.988   0.189 -0.0909  0.0277 -0.0980
  377PEP     CB11377   5.370  15.680  -0.116  0.1317  0.4260 -0.2965
  377PEP     CB11378   4.979  15.447  -0.066  0.1495  0.0031 -0.3879
  377PEP     CB11379   4.680  15.497   0.344 -0.3102 -0.0970 -0.2919
  377PEP     CB11380   4.452  15.793   0.601 -0.1478  0.0659 -0.0617
  377PEP     CB11381   4.160  16.070   0.475 -0.4009 -0.6428  0.3927
  377PEP     CB11382   3.836  16.343   0.203 -0.2035  0.4872  0.3144
  377PEP     CB11383   3.829  16.766  -0.127  0.0339 -0.2292 -0.0058
  377PEP     CB11384   4.148  17.129  -0.269 -0.2581 -0.1371 -0.5653
  377PEP     CB11385   4.515  17.051  -0.505 -0.0100 -0.0633 -0.0095
  377PEP     CB11386   4.557  16.699  -0.772 -0.3032 -0.2648  0.0358
  377PEP     CB11387   4.527  16.492  -1.200 -0.0979 -0.1139 -0.2753
  377PEP     CB11388   4.193  16.218  -1.339  0.2603  0.0081  0.0752
  377PEP     CB11389   3.801  16.089  -1.192 -0.4032  0.0905  0.1767
  377PEP     CB11390   3.444  16.406  -1.199 -0.0661  0.1387 -0.1112
  377PEP     CB11391   3.508  16.796  -1.323 -0.0859  0.1492 -0.1508
  377PEP     CB11392   3.702  16.936  -1.696  0.1824  0.0397  0.2799
  377PEP     CB11393   3.765  17.316  -2.043 -0.1767 -0.3628  0.0233
  377PEP     CB11394   3.839  17.487  -2.375 -0.1647  0.1934  0.1384
  377PEP     CB11395   3.771  17.744  -2.689 -0.1736  0.1125  0.1800
  377PEP     CB11396   3.934  17.939  -3.008  0.1545  0.3306  0.1565
  377PEP     CB11397   4.036  18.368  -3.009 -0.0637 -0.1178  0.2675
  377PEP     CB11398   3.750  18.720  -2.832 -0.5086 -0.2118  0.0987
  377PEP     CB11399   3.289  18.622  -2.926 -0.1707  0.2134 -0.4541
  377PEP     CB11400   3.047  18.456  -3.282  0.0910  0.5024  0.0473
  378PEP     CB11401   6.261  18.157  15.941 -0.1174 -0.0033  0.0066
  378PEP     CB11402   6.574  17.836  16.175  0.0542 -0.0609 -0.2222
  378PEP     CB11403   6.927  17.821  16.347  0.4697  0.2326 -0.1979
  378PEP     CB11404   7.220  18.006  16.702  0.1387 -0.2641  0.4261
  378PEP     CB11405   7.045  18.394  16.884  0.4812  0.1024 -0.0347
  378PEP     CB11406   6.883  18.731  16.593 -0.0954  0.1910 -0.0211
  378PEP     CB11407   6.686  19.036  16.255  0.0301 -0.1266  0.2553
  378PEP     CB11408   6.545  18.958  15.763  0.0135 -0.0897  0.0978
  378PEP     CB11409   6.574  18.810  15.370 -0.3025  0.3393 -0.3482
  378PEP     CB11410   6.685  18.811  15.025  0.1971 -0.1516 -0.2624
  378PEP     CB11411   7.078  18.949  14.785 -0.2349  0.0545  0.0388
  378PEP     CB11412   7.356  19.291  14.772 -0.0588 -0.4946  0.1974
  378PEP     CB11413   7.768  19.362  14.663 -0.0320 -0.3765 -0.0608
  378PEP     CB11414   8.185  19.570  14.697  0.0225  0.0755  0.2723
  378PEP     CB11415   8.453  19.716  14.476  0.0243  0.3091  0.1099
  378PEP     CB11416   8.765  19.918  14.124  0.4501  0.2854 -0.2077
  378PEP     CB11417   8.880  20.061  13.711 -0.2981 -0.0708 -0.0968
  378PEP     CB11418   8.690  19.856  13.378  0.1272 -0.2310  0.0064
  378PEP     CB11419   8.265  19.942  13.232  0.7094  0.0201 -0.2108
  378PEP     CB11420   7.767  19.889  13.089  0.0311 -0.0671  0.0831
  378PEP     CB11421   7.434  19.585  13.146 -0.2086 -0.0293  0.3883
  378PEP     CB11422   7.217  19.193  13.412  0.3724 -0.6896  0.4376
  378PEP     CB11423   6.943  18.912  13.662 -0.5225 -0.1035  0.2927
  378PEP     CB11424   6.978  18.456  13.776  0.0180  0.1264 -0.1701
  378PEP     CB11425   7.173  18.161  14.053  0.0475 -0.1861  0.1603
  378PEP     CB11426   7.371  17.887  14.348  0.2251 -0.1334  0.1696
  378PEP     CB11427   7.341  17.417  14.543 -0.1034 -0.0843  0.3466
  378PEP     CB11428   7.431  17.033  14.535  0.1700  0.0991  0.2630
  378PEP     CB11429   7.615  16.736  14.836 -0.4415  0.0063  0.5282
  378PEP     CB11430   7.660  16.816  15.265 -0.0753  0.2562 -0.0457
  378PEP     CB11431   7.544  17.156  15.486  0.0809  0.1580 -0.1562
  378PEP     CB11432   7.429  17.537  15.301 -0.0487 -0.0575 -0.3651
  378PEP     CB11433   7.174  17.649  14.948  0.1054  0.2375  0.1184
  378PEP     CB11434   6.935  17.986  14.769  0.1420 -0.1368 -0.0885
  378PEP     CB11435   6.718  18.364  14.678  0.1571  0.2206 -0.2171
  378PEP     CB11436   6.484  18.371  14.297  0.3145 -0.1758  0.0220
  378PEP     CB11437   6.678  18.119  13.970  0.3165  0.2659  0.0954
  378PEP     CB11438   6.857  17.679  13.987 -0.0280  0.0300 -0.0204
  378PEP     CB11439   7.066  17.438  13.714 -0.3097  0.3348 -0.0258
  378PEP     CB11440   7.426  17.237  13.646 -0.3432 -0.1774  0.2575
  379PEP     CB11441   2.585   2.315  13.223  0.0671 -0.1272 -0.1178
  379PEP     CB11442   2.907   2.054  12.929 -0.0104  0.0895  0.2169
  379PEP     CB11443   3.262   2.136  12.717  0.5322  0.0332  0.1309
  379PEP     CB11444   3.350   2.547  12.516 -0.4609  0.0945  0.0069
  379PEP     CB11445   3.717   2.791  12.371  0.2040  0.0403  0.4187
  379PEP     CB11446   4.170   2.770  12.545 -0.4024 -0.3251 -0.2704
  379PEP     CB11447   4.502   2.644  12.794 -0.1410  0.0651  0.0452
  379PEP     CB11448   4.879   2.858  12.898  0.3257  0.2343 -0.0913
  379PEP     CB11449   4.970   3.271  12.892  0.1000 -0.0131 -0.1365
  379PEP     CB11450   4.763   3.596  12.767 -0.1944  0.1126 -0.0969
  379PEP     CB11451   4.471   3.963  12.867 -0.3071  0.0651  0.1194
  379PEP     CB11452   4.134   3.985  13.050  0.1155 -0.2208 -0.0228
  379PEP     CB11453   3.842   3.669  13.170  0.1549  0.0280 -0.3862
  379PEP     CB11454   3.353   3.693  13.057 -0.1935  0.1507  0.0737
  379PEP     CB11455   2.896   3.608  12.873  0.1006  0.3870 -0.2832
  379PEP     CB11456   2.514   3.447  12.786  0.2495  0.1024 -0.4462
  379PEP     CB11457   2.306   3.011  12.771 -0.1337  0.2127 -0.2016
  379PEP     CB11458   2.006   2.701  12.591  0.0546  0.3309 -0.0820
  379PEP     CB11459   1.825   2.306  12.496 -0.4865 -0.0248  0.0903
  379PEP     CB11460   2.018   1.908  12.446 -0.2555 -0.0014 -0.2837
  379PEP     CB11461   2.387   1.851  12.339  0.3557  0.2125  0.1556
  379PEP     CB11462   2.765   1.916  12.471 -0.1155  0.0282 -0.0583
  379PEP     CB11463   3.123   1.698  12.640  0.1244 -0.0262 -0.1730
  379PEP     CB11464   3.507   1.540  12.586  0.0870  0.3950  0.2545
  379PEP     CB11465   3.825   1.276  12.850  0.2958  0.1023 -0.2187
  379PEP     CB11466   4.137   1.181  13.142 -0.2777  0.0897 -0.0166
  379PEP     CB11467   4.615   1.196  13.362 -0.3269  0.0032  0.3441
  379PEP     CB11468   4.947   1.498  13.446 -0.1789  0.1750  0.2067
  379PEP     CB11469   5.238   1.775  13.606 -0.0299  0.0087 -0.3386
  379PEP     CB11470   5.321   1.993  14.037  0.1209  0.1856  0.2288
  379PEP     CB11471   4.981   2.140  14.362 -0.3094 -0.3260 -0.1241
  379PEP     CB11472   4.465   2.221  14.278 -0.0678  0.0337  0.1352
  379PEP     CB11473   4.055   2.265  14.468  0.0604 -0.0889 -0.1661
  379PEP     CB11474   3.599   2.489  14.419  0.0107  0.0838 -0.0137
  379PEP     CB11475   3.385   2.738  14.057  0.0089 -0.2155  0.2124
  379PEP     CB11476   3.678   3.011  13.901  0.0839 -0.1622  0.2128
  379PEP     CB11477   4.003   3.229  14.124 -0.0941 -0.4287 -0.4325
  379PEP     CB11478   4.311   3.127  14.408  0.1592  0.4161 -0.3964
  379PEP     CB11479   4.573   3.175  14.761  0.3506  0.3315  0.1075
  379PEP     CB11480   4.813   3.348  15.084  0.0454 -0.0914 -0.0191
  380PEP     CB11481   4.048  12.999  14.178 -0.1502 -0.1426 -0.3128
  380PEP     CB11482   3.870  13.257  14.413 -0.3165 -0.0309  0.2104
  380PEP     CB11483   3.712  13.679  14.561  0.2066  0.4059 -0.4124
  380PEP     CB11484   3.829  14.188  14.476 -0.1156 -0.1067 -0.0623
  380PEP     CB11485   3.947  14.512  14.389 -0.0740 -0.5224  0.2753
  380PEP     CB11486   3.646  14.807  14.192 -0.0429 -0.2357 -0.2751
  380PEP     CB11487   3.312  14.776  13.819  0.0418 -0.4357 -0.0551
  380PEP     CB11488   3.399  14.390  13.615  0.2878 -0.0055  0.0523
  380PEP     CB11489   3.563  14.033  13.786  0.3451 -0.0482 -0.2019
  380PEP     CB11490   3.605  13.656  14.020 -0.0898 -0.0097 -0.0114
  380PEP     CB11491   3.388  13.283  14.209 -0.1139 -0.3395  0.6067
  380PEP     CB11492   3.262  12.854  14.192  0.1832  0.0175  0.2144
  380PEP     CB11493   2.930  12.510  14.233  0.3054 -0.4270 -0.1689
  380PEP     CB11494   2.798  12.283  14.585  0.2015  0.0429  0.3124
  380PEP     CB11495   2.732  12.486  14.994  0.1496 -0.2201 -0.2220
  380PEP     CB11496   2.393  12.711  15.126  0.3063 -0.1085 -0.0660
  380PEP     CB11497   1.997  12.432  15.355  0.1053  0.0469 -0.0529
  380PEP     CB11498   2.045  12.040  15.379  0.0134  0.2009  0.0084
  380PEP     CB11499   2.136  11.797  15.042 -0.1802  0.2079  0.0029
  380PEP     CB11500   2.281  11.833  14.635  0.0304 -0.1446 -0.1751
  380PEP     CB11501   2.340  12.160  14.319 -0.0065 -0.0388 -0.3574
  380PEP     CB11502   2.030  12.508  14.228  0.2077  0.1610  0.1673
  380PEP     CB11503   1.980  12.912  14.180 -0.0168  0.1900 -0.2231
  380PEP     CB11504   2.276  13.254  14.275  0.0046  0.0925 -0.1852
  380PEP     CB11505   2.447  13.203  14.671 -0.0946 -0.3591  0.2129
  380PEP     CB11506   2.656  13.124  15.074  0.3369 -0.3368 -0.2201
  380PEP     CB11507   2.611  13.107  15.546 -0.1868 -0.0218 -0.1550
  380PEP     CB11508   2.651  12.784  15.836 -0.4367  0.1873  0.2458
  380PEP     CB11509   2.707  12.367  16.045  0.0798  0.1269 -0.1692
  380PEP     CB11510   2.981  12.132  16.156 -0.0028  0.3554 -0.2033
  380PEP     CB11511   3.388  11.947  15.926 -0.4620  0.0496 -0.0729
  380PEP     CB11512   3.368  12.133  15.422  0.1367  0.1722 -0.0032
  380PEP     CB11513   3.017  12.138  15.156 -0.1067 -0.1567  0.3351
  380PEP     CB11514   2.606  11.897  15.178  0.1836  0.2796  0.2607
  380PEP     CB11515   2.583  11.543  15.457 -0.1237 -0.3690  0.0090
  380PEP     CB11516   2.443  11.297  15.805 -0.1142 -0.2681  0.5834
  380PEP     CB11517   2.476  10.921  16.121 -0.1300  0.1028 -0.2163
  380PEP     CB11518   2.683  10.583  15.892  0.0789 -0.0673  0.1489
  380PEP     CB11519   2.603  10.537  15.461  0.0587  0.0756  0.0839
  380PEP     CB11520   2.265  10.187  15.215  0.1544  0.6854  0.0940
  381PEP     CB11521  12.082  10.954   4.149  0.5079  0.1501  0.0234
  381PEP     CB11522  11.844  11.320   4.219 -0.2176  0.1357 -0.2531
  381PEP     CB11523  11.598  11.708   4.272  0.1408 -0.2264 -0.0268
  381PEP     CB11524  11.104  11.742   4.323  0.0510 -0.0035  0.1058
  381PEP     CB11525  10.733  11.459   4.509  0.1039 -0.0973  0.3499
  381PEP     CB11526  10.728  11.089   4.689  0.2754 -0.1368  0.2158
  381PEP     CB11527  10.598  10.787   5.040 -0.1758 -0.2627 -0.0990
  381PEP     CB11528  10.689  10.704   5.444 -0.0394  0.2332  0.1590
  381PEP     CB11529  10.632  10.459   5.793 -0.0314 -0.0055  0.1917
  381PEP     CB11530  10.817  10.204   6.009  0.3030 -0.1797  0.0228
  381PEP     CB11531  11.175   9.966   5.939 -0.2446  0.0327  0.2837
  381PEP     CB11532  11.480   9.974   5.583  0.2082 -0.1572  0.0662
  381PEP     CB11533  11.806   9.900   5.324 -0.2503  0.1200  0.1494
  381PEP     CB11534  11.823   9.903   4.857 -0.1873  0.0244  0.2920
  381PEP     CB11535  11.512   9.713   4.519  0.1429  0.1482  0.1950
  381PEP     CB11536  11.249   9.590   4.293 -0.1614  0.1335  0.2089
  381PEP     CB11537  11.118   9.455   3.942 -0.0797 -0.3756 -0.2774
  381PEP     CB11538  10.967   8.992   3.822  0.2048  0.2058  0.1140
  381PEP     CB11539  11.072   8.514   3.953  0.3291  0.2491  0.0761
  381PEP     CB11540  11.447   8.280   3.991 -0.2079  0.1622  0.2551
  381PEP     CB11541  11.827   8.491   4.215  0.2013  0.2213  0.0278
  381PEP     CB11542  11.983   8.893   4.144 -0.2940  0.0224  0.2459
  381PEP     CB11543  12.027   9.093   3.755 -0.1838  0.1191 -0.4976
  381PEP     CB11544  11.996   9.291   3.418 -0.1039  0.0525 -0.1680
  381PEP     CB11545  11.810   9.531   3.178  0.0960 -0.0659  0.3088
  381PEP     CB11546  11.571   9.814   2.861 -0.1756  0.0652  0.1108
  381PEP     CB11547  11.222   9.777   2.538  0.0116 -0.1963  0.0655
  381PEP     CB11548  10.784   9.856   2.429 -0.0800 -0.2880 -0.4559
  381PEP     CB11549  10.413  10.190   2.338  0.0133 -0.1010 -0.2181
  381PEP     CB11550  10.264  10.381   2.737  0.1818 -0.1450  0.1361
  381PEP     CB11551  10.260  10.210   3.204 -0.0588 -0.1104  0.0800
  381PEP     CB11552  10.364   9.869   3.528 -0.2423  0.3113 -0.3708
  381PEP     CB11553  10.524   9.430   3.527  0.3088  0.1398  0.2203
  381PEP     CB11554  10.871   9.163   3.349  0.2420 -0.2951 -0.2147
  381PEP     CB11555  10.991   9.162   2.943  0.0046 -0.2195  0.3634
  381PEP     CB11556  10.867   9.147   2.534 -0.2903  0.1976  0.0654
  381PEP     CB11557  10.563   9.127   2.334 -0.1057  0.1006 -0.3409
  381PEP     CB11558  10.372   8.949   2.042  0.0680  0.1593  0.2380
  381PEP     CB11559  10.246   8.863   1.598  0.2372 -0.0679  0.1476
  381PEP     CB11560  10.150   9.054   1.225  0.4535 -0.2176  0.0231
  382PEP     CB11561  13.531   1.648  16.126  0.1128  0.0204  0.2906
  382PEP     CB11562  13.367   2.074  16.251  0.3345  0.2402  0.0827
  382PEP     CB11563  13.146   2.464  16.159  0.0936  0.0528 -0.4745
  382PEP     CB11564  13.008   2.849  15.935 -0.3525  0.3287  0.0614
  382PEP     CB11565  12.941   2.828  15.544  0.2156 -0.0851 -0.1207
  382PEP     CB11566  12.781   2.735  15.210 -0.3910  0.1768 -0.4684
  382PEP     CB11567  12.852   2.636  14.753 -0.0788 -0.4773  0.1718
  382PEP     CB11568  12.941   2.415  14.402 -0.5639  0.2183  0.2635
  382PEP     CB11569  12.603   2.252  14.016  0.2727  0.1178 -0.0883
  382PEP     CB11570  12.280   2.314  13.709 -0.1085  0.1239  0.2145
  382PEP     CB11571  12.085   2.196  13.232  0.0703 -0.0871  0.5308
  382PEP     CB11572  12.171   2.144  12.836 -0.4063  0.6014  0.1345
  382PEP     CB11573  12.138   2.039  12.427  0.2211 -0.1295 -0.1380
  382PEP     CB11574  12.134   2.042  12.017  0.3405  0.5644  0.0262
  382PEP     CB11575  12.093   2.342  11.649 -0.2418  0.0279 -0.2855
  382PEP     CB11576  11.810   2.649  11.574 -0.1339  0.0771  0.0178
  382PEP     CB11577  11.746   2.907  11.240 -0.2843  0.1753  0.0196
  382PEP     CB11578  11.805   2.951  10.761 -0.1753  0.0147  0.1440
  382PEP     CB11579  11.866   2.676  10.482 -0.3788 -0.1765  0.1026
  382PEP     CB11580  11.721   2.284  10.218 -0.0663 -0.1673 -0.0957
  382PEP     CB11581  11.757   1.966   9.910  0.3112 -0.1123  0.3647
  382PEP     CB11582  11.769   1.613   9.601 -0.2415  0.0859 -0.1562
  382PEP     CB11583  11.486   1.453   9.352  0.4698 -0.2433 -0.0268
  382PEP     CB11584  11.291   1.204   9.089  0.1173 -0.4198 -0.4575
  382PEP     CB11585  11.118   0.830   8.877  0.0085  0.2699 -0.0264
  382PEP     CB11586  10.983   0.804   8.384 -0.1547  0.2457  0.0287
  382PEP     CB11587  11.054   1.098   7.995  0.0735 -0.1375  0.1046
  382PEP     CB11588  11.284   1.461   7.845 -0.2739  0.0770 -0.0812
  382PEP     CB11589  11.647   1.510   7.640  0.1710 -0.2772  0.0739
  382PEP     CB11590  12.142   1.361   7.724  0.0182  0.1635 -0.0799
  382PEP     CB11591  12.472   1.190   7.931 -0.4336 -0.1444 -0.0745
  382PEP     CB11592  12.828   1.229   8.171  0.0394 -0.2689 -0.0302
  382PEP     CB11593  13.172   1.291   8.547 -0.0195  0.0679 -0.1664
  382PEP     CB11594  13.561   1.417   8.794 -0.0261 -0.4275 -0.0522
  382PEP     CB11595  13.993   1.540   8.914  0.2964  0.2380  0.1063
  382PEP     CB11596  14.497   1.482   8.809  0.2899 -0.0226  0.0849
  382PEP     CB11597  14.913   1.429   8.836  0.0712  0.0417 -0.1673
  382PEP     CB11598  15.206   1.033   8.730 -0.0332  0.3238 -0.0590
  382PEP     CB11599  15.237   0.537   8.681  0.2784  0.0712 -0.0639
  382PEP     CB11600  15.359   0.315   8.368  0.3254 -0.4741  0.1144
  383PEP     CB11601   8.309   3.248  18.727 -0.5240 -0.0549  0.0532
  383PEP     CB11602   8.010   3.419  18.543 -0.1974  0.3099 -0.7234
  383PEP     CB11603   7.922   3.840  18.588 -0.4524 -0.1446 -0.3121
  383PEP     CB11604   7.910   4.254  18.542 -0.0926 -0.1512  0.1130
  383PEP     CB11605   7.848   4.501  18.178 -0.0506  0.0303 -0.0380
  383PEP     CB11606   7.773   4.234  17.783  0.0253 -0.1198 -0.3019
  383PEP     CB11607   8.030   3.933  17.637 -0.0977  0.2479 -0.0919
  383PEP     CB11608   8.264   3.623  17.520  0.2443  0.0299 -0.4112
  383PEP     CB11609   8.425   3.217  17.336  0.0224 -0.3413 -0.0355
  383PEP     CB11610   8.425   2.753  17.115  0.2765  0.3869 -0.2294
  383PEP     CB11611   8.588   2.287  17.011 -0.2291  0.1150 -0.1993
  383PEP     CB11612   8.966   2.217  16.895  0.2833 -0.1712  0.0848
  383PEP     CB11613   9.095   2.000  16.618  0.1288 -0.0017 -0.1561
  383PEP     CB11614   8.819   1.740  16.324  0.2901 -0.0480 -0.2157
  383PEP     CB11615   8.632   1.462  16.019 -0.2140 -0.0006 -0.1635
  383PEP     CB11616   8.343   1.125  16.057 -0.0555  0.4890 -0.3726
  383PEP     CB11617   8.263   0.760  16.335  0.1282 -0.0234  0.6693
  383PEP     CB11618   8.311   0.684  16.833 -0.2202 -0.0133 -0.5270
  383PEP     CB11619   8.636   0.693  17.238  0.0214 -0.0532 -0.4179
  383PEP     CB11620   8.685   0.606  17.660 -0.0977 -0.2296 -0.1051
  383PEP     CB11621   8.950   0.490  18.039  0.2407 -0.2585  0.2191
  383PEP     CB11622   9.102   0.522  18.431 -0.1014 -0.0618  0.1125
  383PEP     CB11623   8.877   0.783  18.656  0.1730  0.2467 -0.0036
  383PEP     CB11624   8.737   1.058  18.618  0.1310 -0.0328  0.3862
  383PEP     CB11625   8.697   1.530  18.562  0.2191  0.1260  0.0822
  383PEP     CB11626   8.594   1.922  18.778  0.0497 -0.0120  0.2863
  383PEP     CB11627   8.574   2.409  18.740 -0.1618 -0.5082  0.3821
  383PEP     CB11628   8.708   2.836  18.660 -0.0305  0.0620 -0.2522
  383PEP     CB11629   8.528   3.167  18.300  0.1446  0.2333 -0.0727
  383PEP     CB11630   8.121   3.100  18.085  0.0067  0.2450 -0.3138
  383PEP     CB11631   7.635   3.091  18.170 -0.1650  0.1265 -0.2087
  383PEP     CB11632   7.189   2.953  18.161 -0.1135 -0.1439 -0.1683
  383PEP     CB11633   6.783   2.793  18.147  0.0601  0.0997 -0.0123
  383PEP     CB11634   6.344   2.620  18.132  0.1792 -0.0606 -0.2852
  383PEP     CB11635   5.915   2.750  18.266 -0.1331 -0.1644  0.0575
  383PEP     CB11636   5.774   3.043  18.623 -0.2392  0.0283  0.1576
  383PEP     CB11637   5.605   3.350  18.913 -0.1716  0.0375  0.0776
  383PEP     CB11638   5.860   3.757  19.145  0.1887  0.0791 -0.0560
  383PEP     CB11639   6.078   4.199  19.105 -0.1024  0.2208  0.0134
  383PEP     CB11640   6.135   4.656  18.983 -0.2868  0.2253  0.1177
  384PEP     CB11641   2.631   8.960  17.586 -0.3554 -0.0873  0.2482
  384PEP     CB11642   2.818   9.056  17.143 -0.0602  0.2526 -0.2758
  384PEP     CB11643   2.994   9.002  16.745 -0.1580 -0.7451  0.3861
  384PEP     CB11644   3.210   8.888  16.314  0.1044  0.2837  0.0006
  384PEP     CB11645   3.552   8.682  16.137  0.0352  0.1125  0.1219
  384PEP     CB11646   3.641   8.365  15.927  0.1869 -0.1098 -0.1966
  384PEP     CB11647   3.485   7.995  15.878  0.1323 -0.2257  0.0821
  384PEP     CB11648   3.076   7.952  15.774  0.3780  0.0431  0.3076
  384PEP     CB11649   3.033   7.948  15.297 -0.1961  0.4127  0.5870
  384PEP     CB11650   3.331   8.014  15.072 -0.0333 -0.1160  0.2018
  384PEP     CB11651   3.706   8.188  15.208  0.1393 -0.0707  0.0140
  384PEP     CB11652   3.717   8.584  15.518  0.2577 -0.1707  0.0346
  384PEP     CB11653   3.985   8.862  15.912  0.2327 -0.3947 -0.3193
  384PEP     CB11654   4.266   9.145  16.151  0.0281 -0.3223  0.0810
  384PEP     CB11655   4.612   9.351  16.358 -0.3290  0.0844  0.2935
  384PEP     CB11656   4.822   9.504  16.615 -0.2079  0.1149  0.2868
  384PEP     CB11657   5.213   9.619  16.635  0.5781 -0.3508  0.0070
  384PEP     CB11658   5.624   9.622  16.743 -0.0154  0.0078 -0.3922
  384PEP     CB11659   6.111   9.357  16.710  0.3440 -0.1091 -0.0293
  384PEP     CB11660   6.313   9.023  17.024  0.4708 -0.2644 -0.1352
  384PEP     CB11661   5.945   8.707  17.087  0.1091  0.3312 -0.5849
  384PEP     CB11662   5.579   8.805  17.093  0.0657 -0.2256  0.7855
  384PEP     CB11663   5.477   9.248  17.121 -0.0542  0.1756 -0.1283
  384PEP     CB11664   5.872   9.425  17.200  0.1745 -0.0971  0.3557
  384PEP     CB11665   6.223   9.667  17.042 -0.1391  0.0545 -0.3962
  384PEP     CB11666   6.515   9.694  16.769 -0.1799  0.5784  0.1213
  384PEP     CB11667   6.541   9.849  16.378 -0.2299  0.0054  0.5116
  384PEP     CB11668   6.125   9.985  16.157 -0.2200  0.4802 -0.2146
  384PEP     CB11669   5.721   9.993  16.247  0.1951  0.1278 -0.0341
  384PEP     CB11670   5.424  10.067  16.594 -0.1631  0.1166  0.1544
  384PEP     CB11671   5.389   9.901  17.084  0.4742 -0.2930  0.1863
  384PEP     CB11672   5.300   9.651  17.525 -0.1752  0.2713  0.3002
  384PEP     CB11673   5.194   9.732  17.994 -0.2812 -0.2842 -0.2042
  384PEP     CB11674   4.766   9.862  18.127  0.2547 -0.1215  0.3572
  384PEP     CB11675   4.581   9.967  17.789 -0.1495  0.4765 -0.1466
  384PEP     CB11676   4.299   9.782  17.500 -0.2805 -0.2909 -0.0343
  384PEP     CB11677   4.045   9.370  17.389  0.0446  0.1520  0.3588
  384PEP     CB11678   3.745   9.060  17.238 -0.0667  0.0353 -0.2108
  384PEP     CB11679   3.552   8.812  16.892  0.1851 -0.0669 -0.1246
  384PEP     CB11680   3.501   8.605  16.593  0.1819  0.0041  0.2220
  385PEP     CB11681  17.308   7.091   7.543 -0.1991  0.1355  0.0374
  385PEP     CB11682  16.962   6.916   7.680 -0.1068 -0.3705  0.0320
  385PEP     CB11683  16.559   6.848   7.586  0.3028 -0.1054 -0.0989
  385PEP     CB11684  16.210   6.930   7.489  0.0151  0.2222 -0.0835
  385PEP     CB11685  15.783   7.049   7.381 -0.0722  0.0897 -0.4312
  385PEP     CB11686  15.602   7.353   7.107 -0.1852  0.3153  0.2407
  385PEP     CB11687  15.507   7.570   6.757 -0.0136  0.1494 -0.1505
  385PEP     CB11688  15.529   7.871   6.449  0.0440 -0.2270  0.2402
  385PEP     CB11689  15.559   8.010   6.038  0.1013  0.0653 -0.3514
  385PEP     CB11690  15.451   7.930   5.535  0.1549 -0.1149  0.0369
  385PEP     CB11691  15.791   7.691   5.270  0.4328  0.1748  0.1935
  385PEP     CB11692  16.178   7.499   5.308  0.1271  0.3895 -0.0324
  385PEP     CB11693  16.512   7.115   5.152  0.3888  0.0337  0.0116
  385PEP     CB11694  16.496   6.901   4.723  0.2405 -0.1917  0.0315
  385PEP     CB11695  16.266   7.071   4.439 -0.1637 -0.0755 -0.0531
  385PEP     CB11696  15.902   7.146   4.297 -0.0498  0.0565  0.1146
  385PEP     CB11697  15.683   7.334   3.947  0.0845 -0.0226  0.3705
  385PEP     CB11698  15.540   7.446   3.622 -0.2753  0.2097  0.1100
  385PEP     CB11699  15.268   7.434   3.341 -0.0495 -0.0752  0.0622
  385PEP     CB11700  15.177   7.429   2.913 -0.0523 -0.2856 -0.1177
  385PEP     CB11701  15.388   7.249   2.558 -0.2545  0.3602 -0.1634
  385PEP     CB11702  15.500   7.467   2.272  0.1576 -0.1262 -0.1011
  385PEP     CB11703  15.505   7.845   1.959  0.0003  0.1975  0.0630
  385PEP     CB11704  15.478   8.303   1.820 -0.0331  0.0655 -0.0627
  385PEP     CB11705  15.085   8.388   1.822  0.1745  0.2917 -0.3057
  385PEP     CB11706  14.644   8.139   1.764  0.2905 -0.0445 -0.1642
  385PEP     CB11707  14.242   8.058   1.881 -0.1903  0.0977 -0.4135
  385PEP     CB11708  13.978   7.986   2.270 -0.2941 -0.1354  0.0762
  385PEP     CB11709  13.770   7.985   2.557 -0.1529 -0.1092  0.1522
  385PEP     CB11710  13.502   7.570   2.724 -0.1301  0.3119  0.0020
  385PEP     CB11711  13.358   7.244   2.334  0.0274  0.1792 -0.1199
  385PEP     CB11712  13.410   7.113   1.964  0.1190 -0.1476 -0.1509
  385PEP     CB11713  13.815   7.249   1.724 -0.1033  0.1748 -0.1013
  385PEP     CB11714  14.189   7.550   1.781  0.3406  0.3467  0.5245
  385PEP     CB11715  14.631   7.701   1.557  0.3665  0.3003  0.0299
  385PEP     CB11716  15.014   7.966   1.510  0.2899  0.2847 -0.0922
  385PEP     CB11717  15.348   8.172   1.338 -0.2184  0.0537  0.2748
  385PEP     CB11718  15.611   8.447   1.304 -0.0960 -0.2054  0.0956
  385PEP     CB11719  15.934   8.738   1.170  0.2220  0.0884 -0.0203
  385PEP     CB11720  16.273   8.944   0.980 -0.4087  0.0248 -0.4959
  386PEP     CB11721  12.544   0.571   4.488  0.0024  0.0227  0.4772
  386PEP     CB11722  12.837   0.351   4.317 -0.1153 -0.2846  0.4022
  386PEP     CB11723  13.194   0.122   4.194 -0.1042  0.2407 -0.0568
  386PEP     CB11724  13.523  -0.207   4.276 -0.0897 -0.3487 -0.1673
  386PEP     CB11725  13.494  -0.613   4.369 -0.0886  0.2891 -0.2215
  386PEP     CB11726  13.286  -0.945   4.598 -0.0276 -0.2976  0.0436
  386PEP     CB11727  13.419  -1.337   4.796  0.0423 -0.0004  0.0032
  386PEP     CB11728  13.574  -1.775   4.654 -0.1140  0.1214 -0.0657
  386PEP     CB11729  13.629  -2.186   4.814 -0.0310  0.2299  0.3251
  386PEP     CB11730  13.706  -2.521   5.014 -0.0611  0.2471 -0.2199
  386PEP     CB11731  13.630  -2.940   5.173 -0.1994  0.0407  0.2975
  386PEP     CB11732  13.748  -3.187   5.423  0.1577 -0.1878 -0.2375
  386PEP     CB11733  13.689  -3.413   5.835 -0.0955  0.0865  0.2848
  386PEP     CB11734  13.664  -3.683   6.123 -0.0108  0.1321  0.1447
  386PEP     CB11735  13.809  -3.975   6.373 -0.3388 -0.0020 -0.1226
  386PEP     CB11736  13.651  -4.266   6.574 -0.0991  0.0505 -0.1454
  386PEP     CB11737  13.223  -4.360   6.644  0.0419  0.4043 -0.1076
  386PEP     CB11738  12.770  -4.195   6.438  0.3212 -0.1035 -0.4660
  386PEP     CB11739  12.366  -3.885   6.555  0.3831  0.6569  0.3199
  386PEP     CB11740  11.944  -3.790   6.534  0.1038  0.1366 -0.2111
  386PEP     CB11741  11.507  -3.851   6.582  0.0144 -0.0611 -0.0206
  386PEP     CB11742  11.182  -3.870   6.289 -0.0221 -0.1680 -0.3071
  386PEP     CB11743  11.122  -3.531   6.038  0.1319 -0.2807 -0.2602
  386PEP     CB11744  11.161  -3.218   6.123  0.1085 -0.3735 -0.2893
  386PEP     CB11745  11.428  -2.933   6.445 -0.4390 -0.2646  0.0034
  386PEP     CB11746  11.195  -2.664   6.809  0.4820  0.5219  0.0677
  386PEP     CB11747  10.930  -2.361   6.697  0.0561  0.1400  0.0153
  386PEP     CB11748  10.589  -2.333   6.363  0.3042 -0.2037  0.3313
  386PEP     CB11749  10.451  -2.130   6.026 -0.0418  0.0573 -0.1384
  386PEP     CB11750  10.555  -2.115   5.508  0.0877 -0.4712  0.0748
  386PEP     CB11751  10.837  -1.919   5.154  0.4750 -0.0193 -0.3215
  386PEP     CB11752  11.189  -1.594   5.064 -0.6436  0.1093  0.1071
  386PEP     CB11753  11.210  -1.189   5.122 -0.0953  0.0791 -0.2319
  386PEP     CB11754  11.355  -0.755   5.110  0.1462  0.2156  0.5102
  386PEP     CB11755  11.268  -0.504   4.742 -0.0919  0.1801  0.0059
  386PEP     CB11756  11.114  -0.502   4.292 -0.5808  0.4620  0.1164
  386PEP     CB11757  10.903  -0.721   3.921  0.2429 -0.2060 -0.0721
  386PEP     CB11758  10.825  -1.164   3.699 -0.2546 -0.0674  0.1962
  386PEP     CB11759  10.587  -1.486   3.505 -0.2918  0.1565 -0.1761
  386PEP     CB11760  10.346  -1.893   3.534 -0.3031  0.1924 -0.1025
  387PEP     CB11761  15.075  13.043   1.326  0.3628  0.1994 -0.1708
  387PEP     CB11762  14.987  12.976   1.769  0.0035  0.3587 -0.5035
  387PEP     CB11763  15.141  13.072   2.090 -0.1030  0.1885  0.3576
  387PEP     CB11764  15.240  13.408   2.396 -0.0055 -0.3962 -0.3943
  387PEP     CB11765  15.124  13.858   2.528  0.2436 -0.2411  0.0196
  387PEP     CB11766  15.326  14.204   2.402 -0.0103 -0.3153  0.0133
  387PEP     CB11767  15.597  14.308   2.113 -0.1892  0.0807 -0.1112
  387PEP     CB11768  15.908  14.124   1.767 -0.1626 -0.0504 -0.0527
  387PEP     CB11769  16.277  14.082   1.509  0.2940  0.1950  0.0128
  387PEP     CB11770  16.475  14.164   1.222 -0.3549  0.1135  0.2728
  387PEP     CB11771  16.857  13.966   1.118 -0.1961  0.0808 -0.2742
  387PEP     CB11772  17.165  13.689   1.028 -0.0022  0.2184  0.0721
  387PEP     CB11773  17.430  13.409   0.820 -0.0513 -0.2097 -0.2641
  387PEP     CB11774  17.622  13.047   0.613 -0.1047  0.3565 -0.3843
  387PEP     CB11775  18.119  12.965   0.455 -0.1427  0.0414 -0.1986
  387PEP     CB11776  18.533  12.991   0.493 -0.3301 -0.0337 -0.2603
  387PEP     CB11777  18.843  12.653   0.590  0.0591  0.1020 -0.0737
  387PEP     CB11778  18.770  12.290   0.647  0.0395 -0.1542  0.0496
  387PEP     CB11779  18.701  11.818   0.670  0.1716 -0.1125 -0.0023
  387PEP     CB11780  18.690  11.429   0.895 -0.2258 -0.2529 -0.3324
  387PEP     CB11781  18.735  11.014   0.938  0.4016  0.3396 -0.3840
  387PEP     CB11782  18.601  10.594   0.760 -0.1880  0.0931  0.2950
  387PEP     CB11783  18.548  10.230   0.462  0.3976 -0.2711  0.0457
  387PEP     CB11784  18.622  10.071   0.058  0.3459 -0.0580 -0.1025
  387PEP     CB11785  18.809  10.112  -0.395 -0.0791 -0.2264  0.2181
  387PEP     CB11786  18.941  10.243  -0.779  0.0521  0.0786 -0.1713
  387PEP     CB11787  19.084  10.217  -1.257 -0.1155 -0.1000  0.3069
  387PEP     CB11788  19.253  10.240  -1.649 -0.2864  0.2863 -0.3183
  387PEP     CB11789  19.539  10.169  -1.917 -0.0941  0.0128 -0.3097
  387PEP     CB11790  19.824  10.151  -2.174  0.2726  0.0331 -0.1753
  387PEP     CB11791  20.158  10.237  -2.333  0.0086  0.2361  0.0128
  387PEP     CB11792  20.627  10.097  -2.507 -0.0122  0.2154  0.2009
  387PEP     CB11793  20.755   9.812  -2.832 -0.4835 -0.2350  0.1281
  387PEP     CB11794  20.549   9.668  -3.183  0.6439 -0.0860  0.1238
  387PEP     CB11795  20.281   9.438  -3.419 -0.2687 -0.1875 -0.0490
  387PEP     CB11796  20.172   9.020  -3.372 -0.2862  0.0607 -0.0539
  387PEP     CB11797  19.939   8.716  -3.211  0.2202  0.4123 -0.0460
  387PEP     CB11798  19.865   8.303  -3.352 -0.2290 -0.0201 -0.1745
  387PEP     CB11799  19.553   8.136  -3.551  0.0557 -0.0537 -0.2748
  387PEP     CB11800  19.083   8.084  -3.416 -0.2062 -0.1199 -0.1850
  388PEP     CB11801   3.833  15.084  17.428 -0.1311 -0.3537 -0.0936
  388PEP     CB11802   3.466  14.814  17.545  0.2376 -0.2062  0.3103
  388PEP     CB11803   3.015  14.623  17.544  0.0635  0.5490 -0.0486
  388PEP     CB11804   2.827  14.179  17.475  0.1177 -0.0500  0.1832
  388PEP     CB11805   2.496  13.833  17.441  0.0469 -0.3712 -0.0447
  388PEP     CB11806   2.224  13.637  17.709 -0.1699  0.0459  0.1158
  388PEP     CB11807   2.183  13.688  18.120  0.3480 -0.2477  0.0613
  388PEP     CB11808   2.462  13.800  18.257  0.1710  0.2692  0.2064
  388PEP     CB11809   2.653  14.053  18.555 -0.3972  0.0348  0.1144
  388PEP     CB11810   2.752  14.370  18.874  0.3625 -0.3655 -0.0760
  388PEP     CB11811   3.070  14.716  19.077 -0.1094  0.2580  0.3755
  388PEP     CB11812   3.276  15.079  19.232  0.3558 -0.0203 -0.1298
  388PEP     CB11813   3.444  15.379  19.483  0.1959 -0.4386  0.3878
  388PEP     CB11814   3.371  15.636  19.770  0.1387 -0.0964  0.0093
  388PEP     CB11815   3.213  16.002  20.020 -0.1370 -0.1229  0.0574
  388PEP     CB11816   2.832  16.211  20.120 -0.1248 -0.0011 -0.0126
  388PEP     CB11817   2.644  16.595  20.274 -0.1047 -0.0444 -0.2009
  388PEP     CB11818   2.596  16.956  20.331  0.0196 -0.3431  0.2099
  388PEP     CB11819   2.885  17.337  20.201 -0.2112 -0.0257 -0.1209
  388PEP     CB11820   3.287  17.395  20.317  0.5213  0.2425 -0.0724
  388PEP     CB11821   3.570  17.696  20.472 -0.2557  0.2576  0.0753
  388PEP     CB11822   3.773  18.096  20.635  0.1620 -0.0199 -0.2640
  388PEP     CB11823   4.147  18.213  20.819  0.2954 -0.1394  0.1634
  388PEP     CB11824   4.523  18.565  21.066  0.1023 -0.2524  0.2119
  388PEP     CB11825   4.974  18.588  20.930 -0.0916  0.1067  0.0794
  388PEP     CB11826   5.193  18.644  20.565 -0.1449  0.1994  0.2620
  388PEP     CB11827   5.001  18.605  20.178 -0.0309 -0.2274  0.2368
  388PEP     CB11828   5.018  18.326  19.770 -0.2052 -0.1723  0.2769
  388PEP     CB11829   5.375  18.165  19.637 -0.1511 -0.4139  0.1560
  388PEP     CB11830   5.764  18.298  19.715 -0.2575 -0.2174  0.2106
  388PEP     CB11831   6.109  18.407  19.865 -0.1946 -0.1586 -0.0225
  388PEP     CB11832   6.457  18.338  19.776  0.1210  0.1572 -0.6054
  388PEP     CB11833   6.896  18.519  19.891 -0.2405  0.3023  0.0111
  388PEP     CB11834   7.222  18.341  20.100 -0.0846  0.1448  0.2214
  388PEP     CB11835   7.194  17.968  20.304 -0.0537  0.0265  0.1371
  388PEP     CB11836   6.886  17.639  20.341  0.0916 -0.5564  0.1056
  388PEP     CB11837   6.344  17.708  20.311  0.0940  0.5021  0.1203
  388PEP     CB11838   6.231  18.147  20.359 -0.1068  0.1791  0.1965
  388PEP     CB11839   6.598  18.563  20.379  0.1025  0.5503  0.2287
  388PEP     CB11840   7.040  18.558  20.630  0.2207  0.3175 -0.1189
  389PEP     CB11841  11.442  16.613   8.778 -0.0080  0.2218 -0.1090
  389PEP     CB11842  11.647  16.949   9.044 -0.1579 -0.0622 -0.1092
  389PEP     CB11843  11.585  17.248   9.421  0.1034  0.1947  0.3823
  389PEP     CB11844  11.219  17.253   9.590  0.1297  0.0081  0.0220
  389PEP     CB11845  10.858  16.984   9.557 -0.4588  0.0964 -0.0015
  389PEP     CB11846  10.784  16.609   9.330  0.3035 -0.1913 -0.0692
  389PEP     CB11847  11.135  16.238   9.305  0.2367  0.1556  0.2187
  389PEP     CB11848  11.440  16.149   9.044  0.0715  0.1493  0.0983
  389PEP     CB11849  11.828  15.994   8.959  0.2193 -0.1360  0.3000
  389PEP     CB11850  12.296  16.045   9.106  0.4659  0.0003 -0.0133
  389PEP     CB11851  12.736  16.221   9.033 -0.1209  0.1127 -0.2681
  389PEP     CB11852  13.112  16.354   8.719  0.4211 -0.1338 -0.1784
  389PEP     CB11853  13.487  16.560   8.560  0.0447 -0.2116  0.1424
  389PEP     CB11854  13.827  16.840   8.597  0.1080  0.2652 -0.0684
  389PEP     CB11855  14.273  16.924   8.611 -0.2536 -0.0249 -0.0880
  389PEP     CB11856  14.576  16.990   9.049 -0.3413 -0.1451  0.1109
  389PEP     CB11857  14.463  16.826   9.474  0.1210 -0.0790  0.0996
  389PEP     CB11858  14.413  16.383   9.498  0.0715 -0.4887 -0.1524
  389PEP     CB11859  14.504  16.010   9.560 -0.0963 -0.1051  0.2881
  389PEP     CB11860  14.767  15.674   9.532 -0.3354  0.0560  0.2086
  389PEP     CB11861  14.656  15.163   9.719 -0.0827 -0.0195 -0.2224
  389PEP     CB11862  14.443  14.887  10.017  0.4865 -0.2199 -0.3144
  389PEP     CB11863  14.058  14.766  10.103  0.0309 -0.2416 -0.1558
  389PEP     CB11864  13.725  14.569  10.188 -0.1711  0.0532  0.2381
  389PEP     CB11865  13.689  14.175  10.415  0.1247 -0.2314 -0.1418
  389PEP     CB11866  14.087  13.857  10.411  0.0351 -0.0512  0.0275
  389PEP     CB11867  14.337  13.964  10.092  0.2254 -0.2431  0.1630
  389PEP     CB11868  14.281  14.318   9.854 -0.0574 -0.2992  0.3578
  389PEP     CB11869  14.232  14.759   9.585 -0.0409  0.2515  0.1175
  389PEP     CB11870  14.067  15.048   9.288 -0.2155 -0.3179  0.1866
  389PEP     CB11871  13.933  15.403   9.072  0.3532 -0.0997  0.2097
  389PEP     CB11872  14.021  15.880   8.941 -0.0181 -0.2265 -0.2812
  389PEP     CB11873  14.178  16.002   8.534 -0.0298 -0.0605  0.0884
  389PEP     CB11874  14.301  15.671   8.203 -0.4105 -0.3578 -0.1854
  389PEP     CB11875  14.318  15.254   8.248  0.1639 -0.1521 -0.0763
  389PEP     CB11876  14.346  15.104   8.764  0.0926 -0.1002  0.4483
  389PEP     CB11877  14.399  15.484   9.067  0.2991  0.2254  0.0864
  389PEP     CB11878  14.591  15.901   9.075 -0.2507 -0.1289 -0.0092
  389PEP     CB11879  14.971  16.216   8.975  0.1232 -0.1615 -0.2605
  389PEP     CB11880  15.176  16.294   8.648 -0.4726  0.0642 -0.2778
  390PEP     CB11881   0.393   0.846   2.502  0.1150 -0.0132  0.0166
  390PEP     CB11882   0.488   1.020   2.064  0.1514  0.1498 -0.0923
  390PEP     CB11883   0.533   1.371   1.879  0.2200 -0.4096  0.3102
  390PEP     CB11884   0.823   1.735   1.833 -0.2699  0.5476 -0.1912
  390PEP     CB11885   0.934   2.090   1.535  0.1567 -0.2842 -0.2478
  390PEP     CB11886   0.954   2.241   1.096 -0.0495 -0.3642  0.0137
  390PEP     CB11887   0.867   2.256   0.649  0.5982 -0.1287 -0.1719
  390PEP     CB11888   0.981   1.853   0.355 -0.2471  0.2581  0.3145
  390PEP     CB11889   1.366   1.813   0.259  0.2663 -0.1763 -0.4599
  390PEP     CB11890   1.732   2.003   0.425  0.1037  0.2923  0.0751
  390PEP     CB11891   1.728   2.558   0.526  0.5412 -0.0998  0.2476
  390PEP     CB11892   1.512   2.864   0.731 -0.1573 -0.0879 -0.0745
  390PEP     CB11893   1.198   2.798   1.003  0.4002 -0.0799  0.0980
  390PEP     CB11894   0.967   2.895   1.347  0.2221 -0.2435 -0.4312
  390PEP     CB11895   0.807   2.702   1.753 -0.1119  0.1727 -0.1370
  390PEP     CB11896   0.589   2.450   1.883 -0.0716 -0.1441  0.2868
  390PEP     CB11897   0.466   2.090   2.070  0.1313  0.0888  0.0870
  390PEP     CB11898   0.522   1.728   2.241 -0.0523 -0.0276  0.1592
  390PEP     CB11899   0.622   1.472   2.557  0.6336 -0.3782  0.1736
  390PEP     CB11900   0.545   1.541   2.993 -0.2745  0.4137 -0.0216
  390PEP     CB11901   0.561   1.810   3.362  0.0169 -0.0838 -0.0954
  390PEP     CB11902   0.614   1.868   3.790 -0.2507 -0.1620 -0.1894
  390PEP     CB11903   0.985   1.784   4.099  0.0519  0.2338  0.3593
  390PEP     CB11904   1.039   1.748   4.566  0.0428  0.2312  0.1571
  390PEP     CB11905   0.686   1.643   4.838 -0.1587  0.2527  0.1195
  390PEP     CB11906   0.508   1.422   5.112 -0.2944  0.1109  0.0777
  390PEP     CB11907   0.180   1.504   5.360 -0.0311 -0.1584 -0.1120
  390PEP     CB11908  -0.167   1.757   5.165 -0.0848 -0.0085  0.0832
  390PEP     CB11909  -0.112   2.037   4.757  0.0300 -0.1734 -0.1983
  390PEP     CB11910   0.222   2.296   4.607 -0.4155  0.1130  0.0055
  390PEP     CB11911   0.575   2.535   4.508 -0.3774 -0.3848 -0.0485
  390PEP     CB11912   0.715   2.687   4.062 -0.3596 -0.2140 -0.1675
  390PEP     CB11913   0.683   2.349   3.680 -0.1999 -0.0182  0.1298
  390PEP     CB11914   0.985   2.093   3.460  0.1182 -0.0311  0.0634
  390PEP     CB11915   1.271   1.840   3.668 -0.0898 -0.1349  0.3086
  390PEP     CB11916   1.503   1.715   4.143  0.0936 -0.4147 -0.2458
  390PEP     CB11917   1.636   1.380   4.317  0.3212 -0.6214 -0.1859
  390PEP     CB11918   1.624   1.022   4.089 -0.1212  0.5214 -0.2520
  390PEP     CB11919   1.381   0.884   3.635 -0.0413 -0.1497  0.0838
  390PEP     CB11920   1.392   0.792   3.121 -0.2213 -0.4077  0.4487
  391PEP     CB11921  19.607  11.071   7.847 -0.2562  0.1687 -0.1034
  391PEP     CB11922  19.185  10.885   7.791  0.0778 -0.1851 -0.4086
  391PEP     CB11923  18.927  10.845   7.438 -0.3121  0.2215 -0.4688
  391PEP     CB11924  18.868  10.694   7.056 -0.0060  0.2114 -0.5518
  391PEP     CB11925  18.941  10.543   6.706 -0.0807 -0.1558 -0.2054
  391PEP     CB11926  19.100  10.175   6.525 -0.0290 -0.3933 -0.0996
  391PEP     CB11927  19.114   9.870   6.135  0.1041 -0.1551  0.3375
  391PEP     CB11928  19.525   9.733   5.850  0.2437 -0.2157 -0.2008
  391PEP     CB11929  19.777   9.970   5.686  0.2152  0.2743 -0.3218
  391PEP     CB11930  19.880  10.385   5.785 -0.2762 -0.2142  0.1348
  391PEP     CB11931  20.178  10.666   5.927 -0.2076 -0.2801 -0.0634
  391PEP     CB11932  19.998  11.009   6.147 -0.5705 -0.0246  0.0113
  391PEP     CB11933  19.602  11.282   6.148  0.2838 -0.2561 -0.0671
  391PEP     CB11934  19.211  11.449   6.064 -0.0860 -0.2120 -0.0128
  391PEP     CB11935  18.829  11.568   5.967  0.1033  0.0784  0.2458
  391PEP     CB11936  18.401  11.603   5.886  0.0528  0.3031 -0.1175
  391PEP     CB11937  18.005  11.661   5.739 -0.2922 -0.0685  0.0106
  391PEP     CB11938  17.812  11.976   5.513 -0.1472 -0.0973  0.1491
  391PEP     CB11939  17.974  12.223   5.160  0.0808 -0.1319 -0.0926
  391PEP     CB11940  18.175  12.343   4.738 -0.2201  0.0166  0.5562
  391PEP     CB11941  18.430  12.367   4.391 -0.0050 -0.0415  0.1142
  391PEP     CB11942  18.622  12.254   3.967 -0.0722 -0.0835  0.1901
  391PEP     CB11943  18.724  12.322   3.516 -0.2446 -0.1278 -0.0589
  391PEP     CB11944  18.775  12.624   3.256  0.2413 -0.1186  0.0181
  391PEP     CB11945  18.572  13.028   3.197 -0.2808  0.2972 -0.0510
  391PEP     CB11946  18.141  13.191   2.934  0.2487 -0.1315  0.2660
  391PEP     CB11947  18.133  13.491   2.646 -0.0375 -0.1774 -0.0872
  391PEP     CB11948  17.793  13.693   2.476 -0.3325 -0.2656  0.0677
  391PEP     CB11949  17.437  13.924   2.754 -0.0370  0.2844 -0.1722
  391PEP     CB11950  17.173  14.380   2.879 -0.3483  0.3357  0.0853
  391PEP     CB11951  16.823  14.719   2.790 -0.0564 -0.4452 -0.1752
  391PEP     CB11952  16.486  14.754   2.685  0.0487 -0.0654  0.1863
  391PEP     CB11953  16.112  14.510   2.571 -0.3318  0.1947  0.4957
  391PEP     CB11954  15.796  14.634   2.470  0.1823 -0.0298 -0.2112
  391PEP     CB11955  15.389  14.868   2.673 -0.0223  0.2178 -0.0894
  391PEP     CB11956  15.461  15.145   3.060  0.1230 -0.2864 -0.2771
  391PEP     CB11957  15.926  15.186   3.274 -0.0213 -0.2460 -0.5501
  391PEP     CB11958  16.303  15.189   3.048 -0.1241  0.1127  0.1672
  391PEP     CB11959  16.515  15.314   2.632  0.2229  0.3710 -0.4803
  391PEP     CB11960  16.645  15.516   2.221 -0.0451 -0.0276  0.3972
  392PEP     CB11961  21.799   5.354  13.403 -0.0884  0.0254 -0.0558
  392PEP     CB11962  22.232   5.260  13.427 -0.5516 -0.1827  0.4685
  392PEP     CB11963  22.534   4.994  13.270  0.5788  0.2964 -0.2342
  392PEP     CB11964  22.725   4.783  12.956  0.1361 -0.0332  0.1966
  392PEP     CB11965  22.928   4.409  12.870  0.2137  0.0595  0.0516
  392PEP     CB11966  22.855   4.004  12.861 -0.2082  0.1358  0.3984
  392PEP     CB11967  22.560   3.670  12.723  0.2382  0.4440  0.3721
  392PEP     CB11968  22.134   3.466  12.716 -0.2278 -0.2259  0.5833
  392PEP     CB11969  21.849   3.579  13.062  0.0272  0.2025 -0.2321
  392PEP     CB11970  21.778   4.033  13.216  0.1054  0.4699  0.0841
  392PEP     CB11971  21.826   4.298  13.503 -0.1881  0.2858  0.2836
  392PEP     CB11972  22.123   4.499  13.646  0.0438  0.1616 -0.2051
  392PEP     CB11973  22.507   4.559  13.596  0.3294 -0.3805  0.2512
  392PEP     CB11974  22.831   4.214  13.585  0.0316  0.3211  0.2207
  392PEP     CB11975  22.973   3.853  13.424 -0.3307 -0.0879  0.2789
  392PEP     CB11976  23.113   3.448  13.640  0.0776 -0.1990 -0.1652
  392PEP     CB11977  23.389   3.168  13.802  0.4063  0.2642  0.0245
  392PEP     CB11978  23.860   3.200  14.000  0.3975 -0.3886  0.0695
  392PEP     CB11979  24.268   3.311  13.894  0.2483 -0.1153  0.0436
  392PEP     CB11980  24.559   3.460  13.559 -0.0133  0.2927  0.0277
  392PEP     CB11981  24.801   3.322  13.232 -0.0417 -0.4456  0.1226
  392PEP     CB11982  24.820   3.079  12.858 -0.0098  0.1834 -0.0891
  392PEP     CB11983  24.788   3.217  12.462 -0.0518  0.1122  0.0639
  392PEP     CB11984  24.909   3.244  12.119 -0.0348 -0.0667  0.3761
  392PEP     CB11985  25.149   3.144  11.723  0.1311  0.2006 -0.4118
  392PEP     CB11986  25.070   2.886  11.431  0.1805  0.1162  0.1217
  392PEP     CB11987  24.725   2.763  11.207 -0.2368  0.2467  0.1364
  392PEP     CB11988  24.406   2.534  11.377  0.1755  0.2948 -0.1048
  392PEP     CB11989  24.120   2.530  11.630  0.0085  0.0795 -0.1509
  392PEP     CB11990  24.160   2.549  12.048 -0.2555 -0.0802  0.0517
  392PEP     CB11991  24.400   2.345  12.291  0.4550 -0.2623 -0.0047
  392PEP     CB11992  24.708   2.412  12.645  0.1579  0.2984 -0.2371
  392PEP     CB11993  25.037   2.536  12.821  0.1912 -0.1287 -0.0755
  392PEP     CB11994  25.373   2.525  13.008 -0.1155  0.2694 -0.2083
  392PEP     CB11995  25.661   2.782  13.073 -0.3116 -0.2280 -0.0046
  392PEP     CB11996  25.645   3.163  13.351  0.0488 -0.2529 -0.2403
  392PEP     CB11997  25.247   3.402  13.536  0.0402  0.0106  0.1458
  392PEP     CB11998  24.938   3.703  13.798  0.0347  0.3967 -0.1657
  392PEP     CB11999  24.843   4.059  14.008 -0.3113 -0.0937 -0.2589
  392PEP     CB12000  24.553   4.257  14.026 -0.0393  0.0495  0.2590
  393PEP     CB12001   1.730  21.313  15.988  0.1029  0.3595  0.0426
  393PEP     CB12002   1.631  20.960  15.580  0.1180 -0.1821 -0.2282
  393PEP     CB12003   1.493  20.804  15.231  0.3259  0.1135  0.0975
  393PEP     CB12004   1.097  20.720  15.214  0.0257  0.1135  0.1412
  393PEP     CB12005   0.874  20.808  15.645  0.1889  0.0100  0.1512
  393PEP     CB12006   0.418  20.764  15.708 -0.2197  0.1869 -0.2555
  393PEP     CB12007   0.039  20.899  15.481 -0.0406  0.3829  0.2824
  393PEP     CB12008  -0.131  20.796  15.065 -0.6924 -0.1211 -0.1936
  393PEP     CB12009  -0.120  20.480  14.766 -0.2696  0.2780 -0.0463
  393PEP     CB12010  -0.333  20.212  14.548 -0.1037 -0.4421  0.2496
  393PEP     CB12011  -0.282  19.855  14.425  0.0897  0.1911 -0.1950
  393PEP     CB12012   0.105  19.789  14.120 -0.3530 -0.1488 -0.0826
  393PEP     CB12013   0.533  20.054  14.154 -0.1587  0.1759 -0.0061
  393PEP     CB12014   0.861  20.155  14.383  0.2699 -0.3490  0.0510
  393PEP     CB12015   1.157  20.262  14.761  0.1774  0.2896  0.1845
  393PEP     CB12016   1.498  19.946  14.943 -0.2367  0.4168 -0.0955
  393PEP     CB12017   1.642  19.518  14.906  0.1841 -0.0563 -0.3125
  393PEP     CB12018   1.771  19.353  14.547  0.2685 -0.0912 -0.2941
  393PEP     CB12019   1.902  19.551  14.268  0.0599 -0.1052 -0.0057
  393PEP     CB12020   2.208  19.805  14.230 -0.1135 -0.1355  0.1240
  393PEP     CB12021   2.375  20.111  14.572  0.0277 -0.2001 -0.0349
  393PEP     CB12022   2.020  20.503  14.692  0.1354  0.2281 -0.5569
  393PEP     CB12023   1.524  20.600  14.685  0.2577 -0.1486  0.1874
  393PEP     CB12024   1.060  20.726  14.664 -0.1303 -0.3385  0.1756
  393PEP     CB12025   0.716  20.628  14.317  0.2228  0.0456  0.0822
  393PEP     CB12026   0.497  20.591  13.852 -0.2534  0.3377  0.0290
  393PEP     CB12027   0.254  20.192  13.731  0.0215  0.1612  0.0303
  393PEP     CB12028   0.199  19.816  13.505  0.1654  0.1406  0.1018
  393PEP     CB12029  -0.173  19.630  13.286 -0.2494  0.0686 -0.2454
  393PEP     CB12030  -0.615  19.805  13.313 -0.1107  0.2719  0.4267
  393PEP     CB12031  -0.885  19.971  13.078  0.2313 -0.3328 -0.1320
  393PEP     CB12032  -1.263  20.242  13.035 -0.2115  0.0060  0.2411
  393PEP     CB12033  -1.507  20.522  13.198 -0.2327  0.3524  0.0564
  393PEP     CB12034  -1.904  20.713  13.150 -0.0418 -0.0580 -0.3805
  393PEP     CB12035  -2.279  20.604  13.016 -0.2795  0.1869  0.0485
  393PEP     CB12036  -2.497  20.343  13.043  0.2017 -0.2256  0.2011
  393PEP     CB12037  -2.620  20.010  13.229 -0.0805  0.0295 -0.1605
  393PEP     CB12038  -2.708  19.792  13.563 -0.0101  0.0969  0.0916
  393PEP     CB12039  -2.566  19.499  13.881  0.3878  0.1494 -0.3852
  393PEP     CB12040  -2.473  19.429  14.302  0.0176  0.2674  0.2228
  394PEP     CB12041  19.465   2.334   3.893 -0.0356  0.1258  0.0496
  394PEP     CB12042  19.409   2.766   4.000 -0.1025 -0.0082  0.0647
  394PEP     CB12043  19.198   3.129   4.190  0.4499 -0.1035  0.2560
  394PEP     CB12044  18.802   3.351   4.163 -0.2722 -0.2319 -0.3078
  394PEP     CB12045  18.458   3.307   4.439  0.3511  0.1786 -0.0902
  394PEP     CB12046  18.134   3.190   4.751  0.1123  0.2769  0.2542
  394PEP     CB12047  17.906   2.988   5.096 -0.0803 -0.0162  0.2934
  394PEP     CB12048  17.623   2.889   5.432 -0.2106  0.2048 -0.2303
  394PEP     CB12049  17.339   3.128   5.653  0.1900 -0.2607 -0.4566
  394PEP     CB12050  17.125   3.497   5.465 -0.1875 -0.0394  0.0392
  394PEP     CB12051  17.249   3.704   5.164 -0.5534 -0.0353  0.0012
  394PEP     CB12052  17.599   3.858   5.060  0.0866 -0.1035  0.0502
  394PEP     CB12053  17.677   4.242   4.911 -0.0645  0.0121  0.3841
  394PEP     CB12054  17.668   4.662   4.977  0.0856  0.1875 -0.3143
  394PEP     CB12055  17.952   5.084   5.038 -0.0778 -0.1078 -0.0310
  394PEP     CB12056  17.950   5.546   5.038  0.1378  0.1108 -0.2559
  394PEP     CB12057  17.699   5.842   4.807  0.0885 -0.2347 -0.4574
  394PEP     CB12058  17.244   5.761   4.862  0.2882 -0.0538  0.3081
  394PEP     CB12059  16.896   5.568   4.917  0.2096 -0.1263  0.1927
  394PEP     CB12060  16.703   5.154   4.918 -0.2575 -0.1608 -0.4414
  394PEP     CB12061  16.678   4.710   4.754  0.1728  0.2313  0.0812
  394PEP     CB12062  16.700   4.397   4.303  0.1750 -0.2003 -0.0972
  394PEP     CB12063  16.723   4.272   3.877  0.0418 -0.2051 -0.1643
  394PEP     CB12064  17.020   4.211   3.516  0.5811  0.3488 -0.1194
  394PEP     CB12065  16.927   4.114   3.128  0.2272 -0.4676 -0.3659
  394PEP     CB12066  16.573   3.887   2.851 -0.3360  0.1514 -0.1926
  394PEP     CB12067  16.205   4.000   2.695 -0.0698 -0.2645 -0.0611
  394PEP     CB12068  15.965   4.378   2.608 -0.2139  0.1161  0.0768
  394PEP     CB12069  15.730   4.767   2.564  0.1058  0.3901 -0.0180
  394PEP     CB12070  15.457   5.192   2.623 -0.1208  0.1005  0.0960
  394PEP     CB12071  15.303   5.560   2.698 -0.0921  0.0653  0.0166
  394PEP     CB12072  15.133   5.892   2.920  0.0259 -0.0570 -0.0142
  394PEP     CB12073  15.234   6.161   3.208 -0.1492 -0.6259 -0.1165
  394PEP     CB12074  15.348   6.443   3.365  0.0348 -0.1437 -0.1517
  394PEP     CB12075  15.212   6.480   3.817  0.2971  0.1196  0.4171
  394PEP     CB12076  14.800   6.307   3.958  0.2834  0.2594 -0.2302
  394PEP     CB12077  14.489   6.037   3.768  0.2987  0.1352 -0.2392
  394PEP     CB12078  14.019   5.968   3.691 -0.1073 -0.0481 -0.0417
  394PEP     CB12079  13.582   5.945   3.591  0.1080 -0.1808  0.4288
  394PEP     CB12080  13.408   5.551   3.350 -0.0949  0.1481 -0.6176
  395PEP     CB12081   2.902   9.034   1.427 -0.2359  0.0395 -0.5767
  395PEP     CB12082   3.139   8.614   1.512 -0.1717  0.1606 -0.1519
  395PEP     CB12083   3.367   8.379   1.813 -0.3903 -0.5299  0.0311
  395PEP     CB12084   3.597   8.427   2.217 -0.3473  0.2836 -0.0109
  395PEP     CB12085   3.706   8.570   2.695 -0.2554  0.1511  0.4804
  395PEP     CB12086   3.890   8.464   3.261  0.1811  0.3346  0.0951
  395PEP     CB12087   3.593   8.458   3.615 -0.2446  0.0524  0.1600
  395PEP     CB12088   3.264   8.394   3.838  0.1233  0.2087  0.3453
  395PEP     CB12089   3.149   8.426   4.258 -0.1417 -0.0620 -0.0621
  395PEP     CB12090   2.930   8.822   4.572 -0.0701  0.1611 -0.2012
  395PEP     CB12091   2.772   9.211   4.777  0.3410  0.1326  0.1906
  395PEP     CB12092   2.506   9.530   4.524 -0.0352  0.3036 -0.3872
  395PEP     CB12093   2.259   9.744   4.170 -0.2067 -0.0926 -0.1579
  395PEP     CB12094   2.025  10.073   3.958  0.0251 -0.0220  0.0016
  395PEP     CB12095   1.760  10.378   3.948  0.1802 -0.1045  0.2484
  395PEP     CB12096   1.594  10.562   4.239  0.1420  0.0970 -0.0486
  395PEP     CB12097   1.279  10.873   4.547 -0.0663  0.0582  0.1118
  395PEP     CB12098   0.977  10.990   4.858  0.4871 -0.1383  0.0524
  395PEP     CB12099   0.497  11.143   4.729  0.2864  0.4038 -0.3684
  395PEP     CB12100   0.098  11.125   4.716  0.0988 -0.0287  0.1275
  395PEP     CB12101  -0.264  10.835   4.702  0.0082  0.1641  0.0359
  395PEP     CB12102  -0.650  10.576   4.536  0.0273 -0.1731  0.1032
  395PEP     CB12103  -0.933  10.238   4.660  0.2895  0.0549 -0.0408
  395PEP     CB12104  -1.082  10.188   5.057 -0.1253 -0.1633  0.3004
  395PEP     CB12105  -1.018  10.297   5.490 -0.2573 -0.0999  0.1101
  395PEP     CB12106  -1.166  10.786   5.544  0.0368 -0.3100  0.2990
  395PEP     CB12107  -1.286  11.071   5.246  0.1718 -0.6544 -0.0708
  395PEP     CB12108  -1.170  11.204   4.788  0.2536  0.0338 -0.6825
  395PEP     CB12109  -0.773  11.244   4.611 -0.0998  0.0514  0.5483
  395PEP     CB12110  -0.368  11.259   4.387  0.2623 -0.6795 -0.1678
  395PEP     CB12111  -0.051  10.930   4.264 -0.2522 -0.0101  0.0511
  395PEP     CB12112  -0.229  10.534   4.161 -0.0420 -0.4429  0.4355
  395PEP     CB12113  -0.392  10.245   4.216 -0.3876  0.2092  0.1067
  395PEP     CB12114  -0.312   9.822   4.402  0.2132 -0.0816 -0.0735
  395PEP     CB12115   0.095   9.623   4.440 -0.1352  0.2481 -0.0727
  395PEP     CB12116   0.432   9.548   4.655 -0.0193 -0.0789  0.0424
  395PEP     CB12117   0.881   9.834   4.620 -0.0521 -0.1030  0.0819
  395PEP     CB12118   1.083  10.209   4.386 -0.1381 -0.0100  0.3516
  395PEP     CB12119   1.021  10.181   3.940 -0.0738 -0.1994  0.4044
  395PEP     CB12120   0.827   9.834   3.702  0.2917 -0.2874 -0.1004
  396PEP     CB12121  12.500  16.574   3.785  0.1105 -0.0829 -0.0388
  396PEP     CB12122  12.714  16.786   3.439 -0.1745  0.4550  0.2627
  396PEP     CB12123  12.960  16.804   3.050  0.2134  0.1065  0.0399
  396PEP     CB12124  13.391  17.111   2.812 -0.0136 -0.0803  0.0328
  396PEP     CB12125  13.485  17.325   2.480 -0.4564 -0.3511  0.2189
  396PEP     CB12126  13.508  17.729   2.196 -0.2557  0.3489 -0.1302
  396PEP     CB12127  13.822  18.072   1.988  0.4382  0.0644 -0.1159
  396PEP     CB12128  14.133  18.330   2.123 -0.0158  0.0684  0.1212
  396PEP     CB12129  14.601  18.432   2.205 -0.0298  0.0496  0.2733
  396PEP     CB12130  15.011  18.414   2.203  0.4261  0.0049  0.1950
  396PEP     CB12131  15.417  18.339   2.238 -0.3193 -0.1737  0.1221
  396PEP     CB12132  15.668  18.527   2.493 -0.1733  0.0580  0.2983
  396PEP     CB12133  15.672  18.835   2.876 -0.2024  0.4881 -0.2618
  396PEP     CB12134  15.630  19.209   3.050  0.0278  0.1382  0.2832
  396PEP     CB12135  15.372  19.365   3.358  0.1194  0.1597  0.0807
  396PEP     CB12136  15.116  19.767   3.320  0.2389 -0.2556  0.0071
  396PEP     CB12137  15.025  20.160   3.320  0.3220  0.1083  0.2094
  396PEP     CB12138  15.213  20.590   3.366  0.2058 -0.4558 -0.0231
  396PEP     CB12139  15.344  21.071   3.407  0.0239  0.2934 -0.1008
  396PEP     CB12140  15.427  21.486   3.338  0.0093 -0.2748 -0.3464
  396PEP     CB12141  15.308  21.813   3.325 -0.0128 -0.3150  0.0606
  396PEP     CB12142  15.057  22.156   3.162 -0.2250  0.0295 -0.0471
  396PEP     CB12143  14.924  22.490   2.932  0.3137 -0.1386  0.2370
  396PEP     CB12144  14.842  22.748   2.679 -0.3474 -0.0576 -0.1106
  396PEP     CB12145  14.568  22.682   2.425 -0.0494  0.4628  0.2004
  396PEP     CB12146  14.188  22.386   2.324  0.4862  0.1863 -0.1707
  396PEP     CB12147  13.807  22.292   2.386  0.1161  0.2084 -0.0591
  396PEP     CB12148  13.461  21.976   2.295 -0.0015  0.1191 -0.3974
  396PEP     CB12149  13.317  21.486   2.549 -0.0555 -0.3123  0.0937
  396PEP     CB12150  13.510  21.239   2.919  0.0278  0.1457  0.0961
  396PEP     CB12151  13.969  21.275   3.096 -0.0834  0.2990 -0.4276
  396PEP     CB12152  14.295  21.429   2.800 -0.2319  0.1333  0.1023
  396PEP     CB12153  14.640  21.540   2.622 -0.0458  0.4013 -0.1695
  396PEP     CB12154  14.947  21.823   2.584 -0.0494 -0.0224 -0.0327
  396PEP     CB12155  15.043  22.244   2.437 -0.0228  0.0004  0.0103
  396PEP     CB12156  15.381  22.517   2.724  0.1917  0.4440  0.1734
  396PEP     CB12157  15.351  22.714   3.082 -0.2020  0.2109 -0.1507
  396PEP     CB12158  15.263  22.432   3.537  0.0458  0.1337 -0.2544
  396PEP     CB12159  15.245  22.050   3.774 -0.1398 -0.1258  0.2514
  396PEP     CB12160  15.312  21.706   3.841  0.2459  0.2666 -0.0516
  397PEP     CB12161  20.448  14.382  12.209 -0.1490 -0.2710 -0.1893
  397PEP     CB12162  20.093  14.569  12.215 -0.1015  0.1017  0.2896
  397PEP     CB12163  20.007  14.844  12.580  0.3630  0.0804 -0.1147
  397PEP     CB12164  19.983  14.749  13.042  0.0654 -0.3307 -0.3006
  397PEP     CB12165  20.066  14.698  13.479 -0.1408 -0.2500  0.2716
  397PEP     CB12166  19.982  14.687  13.981 -0.3064  0.0644  0.1964
  397PEP     CB12167  19.653  14.623  14.289 -0.0298 -0.2652 -0.0239
  397PEP     CB12168  19.372  14.722  14.673  0.2955 -0.3177  0.1559
  397PEP     CB12169  19.104  14.956  14.999  0.5202  0.3624 -0.0149
  397PEP     CB12170  19.159  15.326  15.226 -0.1461 -0.0183 -0.1701
  397PEP     CB12171  19.359  15.624  15.491  0.1313  0.0165 -0.0418
  397PEP     CB12172  19.593  15.909  15.702 -0.0560  0.0970  0.1885
  397PEP     CB12173  19.573  16.273  15.930  0.0051 -0.2986 -0.3768
  397PEP     CB12174  19.252  16.581  15.867 -0.3037  0.3737  0.3180
  397PEP     CB12175  18.851  16.621  15.801  0.0254  0.1551 -0.0819
  397PEP     CB12176  18.661  16.269  15.553  0.1636 -0.0270 -0.3556
  397PEP     CB12177  18.743  15.899  15.517  0.3072 -0.3473  0.1908
  397PEP     CB12178  19.046  15.811  15.165 -0.2359 -0.0617 -0.2503
  397PEP     CB12179  18.969  16.052  14.757 -0.0477  0.1253 -0.2742
  397PEP     CB12180  18.652  16.426  14.838  0.3174  0.1389 -0.1438
  397PEP     CB12181  18.304  16.235  15.131 -0.0377  0.0577 -0.2932
  397PEP     CB12182  18.266  15.926  15.397  0.1761  0.0662 -0.1047
  397PEP     CB12183  18.388  15.816  15.797 -0.1228 -0.1992 -0.1986
  397PEP     CB12184  18.712  15.633  16.019  0.0123 -0.1105  0.2721
  397PEP     CB12185  19.157  15.633  16.004 -0.3936 -0.2932 -0.0125
  397PEP     CB12186  19.571  15.514  15.992  0.0867 -0.0953 -0.3009
  397PEP     CB12187  19.910  15.249  15.929 -0.2327 -0.0381  0.1409
  397PEP     CB12188  20.082  14.889  16.074 -0.0326  0.2172  0.0739
  397PEP     CB12189  19.890  14.473  16.276  0.2695 -0.0134  0.0037
  397PEP     CB12190  19.576  14.288  16.572 -0.0602  0.1257 -0.3202
  397PEP     CB12191  19.156  14.229  16.819 -0.0239  0.2774 -0.0090
  397PEP     CB12192  18.967  14.205  17.197  0.0392  0.3332 -0.1264
  397PEP     CB12193  18.990  14.320  17.641 -0.3291  0.1086  0.0466
  397PEP     CB12194  19.235  14.566  17.851  0.5516 -0.7844  0.2695
  397PEP     CB12195  19.627  14.748  17.925  0.0085  0.0235 -0.2320
  397PEP     CB12196  19.955  15.055  17.774  0.0753  0.3160  0.1643
  397PEP     CB12197  19.992  15.301  17.341 -0.0211 -0.2330 -0.0115
  397PEP     CB12198  20.167  15.597  17.065  0.3781 -0.0462 -0.0712
  397PEP     CB12199  20.235  15.973  16.986  0.0369  0.2285 -0.0377
  397PEP     CB12200  20.451  16.281  16.779  0.2537  0.2562  0.1580
  398PEP     CB12201  16.926  21.243   2.111  0.1396 -0.2236  0.3787
  398PEP     CB12202  16.835  21.372   2.499 -0.2910 -0.0007 -0.3703
  398PEP     CB12203  16.620  21.433   2.859  0.1928 -0.4298 -0.5139
  398PEP     CB12204  16.631  21.634   3.175  0.0186  0.0492 -0.2820
  398PEP     CB12205  16.976  21.877   3.376  0.4089 -0.0644 -0.1080
  398PEP     CB12206  17.351  22.240   3.383 -0.1974 -0.0550  0.3334
  398PEP     CB12207  17.776  22.459   3.205  0.2520 -0.2644  0.2007
  398PEP     CB12208  18.189  22.256   3.076  0.2641  0.1924 -0.1395
  398PEP     CB12209  18.365  21.879   2.876 -0.0840 -0.2486  0.0456
  398PEP     CB12210  18.798  21.799   2.771 -0.1046  0.2168  0.2271
  398PEP     CB12211  19.156  22.105   2.762  0.1673 -0.2562  0.0041
  398PEP     CB12212  19.334  22.213   3.210  0.1595 -0.3303  0.1959
  398PEP     CB12213  19.301  22.056   3.687  0.0606 -0.1198  0.2310
  398PEP     CB12214  19.205  21.817   3.996  0.2631  0.2980 -0.0427
  398PEP     CB12215  18.897  21.674   4.399 -0.3025 -0.1990 -0.1027
  398PEP     CB12216  18.853  21.422   4.804 -0.0921  0.0714 -0.2054
  398PEP     CB12217  19.033  21.299   5.206 -0.0836  0.4484 -0.4122
  398PEP     CB12218  19.132  20.959   5.534 -0.0283  0.2546  0.1633
  398PEP     CB12219  18.879  20.617   5.785  0.0569 -0.0372  0.4242
  398PEP     CB12220  18.888  20.403   6.141  0.2435 -0.2659 -0.1568
  398PEP     CB12221  19.018  20.279   6.543 -0.1763 -0.1497 -0.2923
  398PEP     CB12222  19.196  20.084   6.889 -0.0539 -0.0823  0.2306
  398PEP     CB12223  19.348  20.207   7.340  0.0269  0.1985  0.0049
  398PEP     CB12224  19.340  20.591   7.537  0.0833  0.0410  0.3586
  398PEP     CB12225  19.221  20.992   7.442 -0.3429 -0.0179 -0.2231
  398PEP     CB12226  19.050  21.301   7.082  0.1004 -0.2014 -0.0840
  398PEP     CB12227  18.848  21.227   6.668 -0.1136 -0.0773  0.1251
  398PEP     CB12228  18.506  21.397   6.348  0.3265 -0.0301 -0.0598
  398PEP     CB12229  18.289  21.220   5.965 -0.1432  0.2153 -0.0648
  398PEP     CB12230  17.883  21.167   5.746 -0.0225 -0.2737  0.0950
  398PEP     CB12231  17.515  21.283   5.562  0.0364 -0.4129  0.0093
  398PEP     CB12232  17.301  21.508   5.226 -0.0336  0.3037 -0.3949
  398PEP     CB12233  17.383  21.679   4.833 -0.1612 -0.0021  0.0122
  398PEP     CB12234  17.332  21.800   4.458 -0.0097  0.1747 -0.1271
  398PEP     CB12235  17.486  22.013   4.109  0.2805 -0.2408 -0.1607
  398PEP     CB12236  17.322  21.916   3.758  0.1707 -0.1525  0.3035
  398PEP     CB12237  17.365  21.624   3.516 -0.0055  0.0485  0.3468
  398PEP     CB12238  17.597  21.304   3.291 -0.2731  0.4794 -0.0623
  398PEP     CB12239  17.765  21.027   2.843 -0.1766 -0.1590  0.0815
  398PEP     CB12240  18.079  21.021   2.465 -0.2589  0.2380 -0.0549
  399PEP     CB12241  13.452   4.064   0.351 -0.2570 -0.0153 -0.2474
  399PEP     CB12242  13.105   4.474   0.243 -0.0631  0.1299  0.1282
  399PEP     CB12243  12.674   4.672   0.472  0.5185  0.1427 -0.3647
  399PEP     CB12244  12.315   5.052   0.550  0.1349  0.1722  0.1040
  399PEP     CB12245  12.374   5.403   0.799  0.0587 -0.4485 -0.1110
  399PEP     CB12246  12.466   5.863   0.921 -0.0996  0.0264 -0.4168
  399PEP     CB12247  12.779   5.976   1.159  0.0956  0.3361 -0.2487
  399PEP     CB12248  12.845   5.922   1.617 -0.2681  0.0175 -0.1287
  399PEP     CB12249  12.736   6.029   2.016  0.2610  0.0755 -0.2114
  399PEP     CB12250  12.735   6.063   2.470  0.0971 -0.1906 -0.0286
  399PEP     CB12251  12.716   6.048   2.980  0.2910  0.1194  0.0164
  399PEP     CB12252  12.936   5.647   3.211 -0.0164  0.1533  0.0821
  399PEP     CB12253  13.197   5.313   2.940 -0.0409  0.2275 -0.0834
  399PEP     CB12254  13.286   5.155   2.434  0.0285 -0.1498 -0.0546
  399PEP     CB12255  13.305   5.020   2.077 -0.2555 -0.0157 -0.1157
  399PEP     CB12256  13.665   4.904   1.781  0.5650  0.0165  0.1417
  399PEP     CB12257  13.876   4.897   1.388  0.1886  0.1118  0.2466
  399PEP     CB12258  13.982   4.533   1.048 -0.1853 -0.0260  0.4218
  399PEP     CB12259  13.911   4.109   0.879  0.0068 -0.0252 -0.0655
  399PEP     CB12260  13.992   3.702   0.730  0.3299  0.3055 -0.3116
  399PEP     CB12261  14.010   3.457   0.420  0.0601 -0.1793  0.1191
  399PEP     CB12262  14.081   3.145   0.110  0.1124  0.0383  0.2750
  399PEP     CB12263  14.088   2.676   0.009  0.0148 -0.4924  0.0964
  399PEP     CB12264  13.973   2.162  -0.159 -0.1782  0.2131 -0.0151
  399PEP     CB12265  14.056   1.687  -0.075  0.1986 -0.1511  0.2780
  399PEP     CB12266  14.206   1.226  -0.070  0.5126 -0.2657  0.0507
  399PEP     CB12267  14.527   1.013   0.003 -0.3170 -0.4644  0.1303
  399PEP     CB12268  14.789   0.723   0.160 -0.0076  0.2146 -0.1258
  399PEP     CB12269  15.043   0.633   0.491 -0.2328 -0.3804 -0.6262
  399PEP     CB12270  15.238   0.406   0.775 -0.1757 -0.2106  0.3206
  399PEP     CB12271  15.283  -0.008   0.725  0.2942 -0.0605 -0.0811
  399PEP     CB12272  15.266  -0.245   0.486  0.0467  0.1276 -0.2647
  399PEP     CB12273  15.097  -0.307   0.085 -0.1213 -0.0918 -0.1326
  399PEP     CB12274  14.725  -0.111  -0.201  0.1566  0.3603 -0.1094
  399PEP     CB12275  14.362   0.040  -0.372  0.1626 -0.1577  0.0292
  399PEP     CB12276  14.443   0.375  -0.729 -0.0270  0.2805  0.3654
  399PEP     CB12277  14.798   0.302  -0.911  0.1319  0.1103 -0.3058
  399PEP     CB12278  14.975  -0.126  -1.034 -0.3985  0.2530 -0.0440
  399PEP     CB12279  14.717  -0.468  -0.926  0.0045 -0.1411  0.1168
  399PEP     CB12280  14.461  -0.501  -0.594 -0.0103 -0.0005  0.3722
  400PEP     CB12281   2.106  10.662  13.020 -0.2000  0.1128  0.0178
  400PEP     CB12282   1.960  11.017  12.848 -0.0419 -0.2544  0.0206
  400PEP     CB12283   2.255  11.207  12.556 -0.1406  0.0447 -0.0133
  400PEP     CB12284   2.722  11.241  12.451 -0.1040  0.2903  0.2109
  400PEP     CB12285   3.124  11.398  12.318  0.0176  0.0557 -0.0850
  400PEP     CB12286   3.486  11.100  12.247 -0.0359 -0.0080 -0.3939
  400PEP     CB12287   3.890  11.081  12.234  0.2931  0.0269 -0.0843
  400PEP     CB12288   4.280  11.305  12.267  0.3221 -0.3461 -0.0214
  400PEP     CB12289   4.534  11.727  12.461  0.2102 -0.2764  0.3481
  400PEP     CB12290   4.636  12.171  12.408  0.0345  0.1190  0.1996
  400PEP     CB12291   4.659  12.488  12.120 -0.0346 -0.1784 -0.2636
  400PEP     CB12292   4.530  12.621  11.655  0.0589 -0.0271  0.2361
  400PEP     CB12293   4.237  12.603  11.454 -0.3049  0.0281  0.4281
  400PEP     CB12294   3.856  12.601  11.255  0.0608 -0.0319  0.1722
  400PEP     CB12295   3.552  12.428  10.879  0.0616  0.0896 -0.0329
  400PEP     CB12296   3.722  12.404  10.415  0.0023 -0.0362 -0.0410
  400PEP     CB12297   3.626  12.144  10.056  0.1884 -0.0898 -0.0022
  400PEP     CB12298   3.584  11.739   9.726 -0.0047  0.1348 -0.4565
  400PEP     CB12299   3.458  11.694   9.229 -0.4034 -0.0303  0.0097
  400PEP     CB12300   3.492  11.832   8.742 -0.0666 -0.1384  0.0436
  400PEP     CB12301   3.674  11.930   8.346  0.0226 -0.1980  0.3481
  400PEP     CB12302   3.962  12.110   8.039  0.4652  0.4422  0.3796
  400PEP     CB12303   4.116  12.339   7.778  0.4015 -0.2298 -0.0552
  400PEP     CB12304   4.313  12.699   7.730  0.2205 -0.1803 -0.1970
  400PEP     CB12305   4.386  13.097   7.530 -0.0268  0.0746  0.1873
  400PEP     CB12306   4.638  13.469   7.518  0.3009 -0.2745 -0.0180
  400PEP     CB12307   5.079  13.622   7.763 -0.1279  0.3277  0.2704
  400PEP     CB12308   5.238  13.605   8.190  0.0691 -0.2151 -0.4231
  400PEP     CB12309   4.903  13.425   8.551 -0.0257  0.0198  0.3801
  400PEP     CB12310   4.544  13.576   8.634 -0.1210 -0.0889  0.1769
  400PEP     CB12311   4.156  13.397   8.676  0.1320 -0.5592 -0.1523
  400PEP     CB12312   3.822  13.213   8.386 -0.1767 -0.1783  0.0919
  400PEP     CB12313   3.767  13.325   7.939 -0.1928 -0.3442 -0.2448
  400PEP     CB12314   4.042  13.454   7.591  0.0109 -0.0061  0.0822
  400PEP     CB12315   4.252  13.855   7.688  0.3277 -0.2957 -0.1028
  400PEP     CB12316   4.039  14.249   7.869  0.2372 -0.4720  0.1275
  400PEP     CB12317   4.012  14.686   8.031  0.1000  0.1561  0.1519
  400PEP     CB12318   4.108  14.997   8.425 -0.1594  0.2093 -0.2879
  400PEP     CB12319   4.337  14.748   8.744 -0.3602 -0.1795 -0.0949
  400PEP     CB12320   4.551  14.532   9.047  0.2863  0.1147 -0.0733
  401PEP     CB12321   1.147  10.637   4.151  0.0615  0.2454  0.1573
  401PEP     CB12322   0.892  10.955   3.822 -0.4737 -0.1505  0.0077
  401PEP     CB12323   0.762  10.979   3.426  0.2182 -0.1052  0.0279
  401PEP     CB12324   0.552  10.729   3.158 -0.0044  0.0571  0.0045
  401PEP     CB12325   0.692  10.316   3.031  0.4029 -0.3868  0.1408
  401PEP     CB12326   1.062  10.286   2.744  0.3672 -0.4467 -0.2065
  401PEP     CB12327   1.246  10.646   2.675  0.1958  0.4372 -0.4419
  401PEP     CB12328   1.207  11.039   2.499  0.2859 -0.2150  0.2442
  401PEP     CB12329   1.370  11.480   2.502  0.3762  0.1991  0.3084
  401PEP     CB12330   1.522  11.939   2.498  0.1435  0.0503 -0.0643
  401PEP     CB12331   1.496  12.358   2.507 -0.0836  0.1942  0.1467
  401PEP     CB12332   1.771  12.667   2.619  0.2584  0.0626 -0.2089
  401PEP     CB12333   2.071  12.804   2.739  0.1949 -0.3510 -0.2597
  401PEP     CB12334   2.529  12.944   2.869  0.0992 -0.2477  0.1003
  401PEP     CB12335   2.716  13.367   3.033 -0.1036 -0.6324  0.2383
  401PEP     CB12336   2.693  13.816   2.976  0.0275 -0.1863 -0.0984
  401PEP     CB12337   2.596  14.202   3.170 -0.0375  0.0364 -0.3015
  401PEP     CB12338   2.587  14.648   3.036  0.0641 -0.1339  0.1118
  401PEP     CB12339   2.802  14.885   2.717 -0.1231  0.2200 -0.3816
  401PEP     CB12340   2.910  15.273   2.636  0.2939  0.1216  0.2897
  401PEP     CB12341   2.781  15.615   2.822 -0.0405  0.0877  0.0803
  401PEP     CB12342   2.556  15.450   3.216 -0.3172  0.0935 -0.1527
  401PEP     CB12343   2.878  15.322   3.513  0.2738  0.0980 -0.0557
  401PEP     CB12344   3.304  15.239   3.665 -0.1908 -0.0029  0.3071
  401PEP     CB12345   3.639  15.404   3.487  0.0900  0.2366  0.3046
  401PEP     CB12346   4.024  15.583   3.493 -0.0152 -0.0285  0.2697
  401PEP     CB12347   4.098  15.836   3.779 -0.2293  0.5363 -0.1495
  401PEP     CB12348   4.202  16.266   3.956 -0.2149 -0.0081 -0.3809
  401PEP     CB12349   4.044  16.685   3.907 -0.0078  0.0586  0.1243
  401PEP     CB12350   3.826  17.102   4.043  0.1159 -0.0196  0.1264
  401PEP     CB12351   3.522  17.376   4.173  0.3243 -0.0109 -0.2637
  401PEP     CB12352   3.074  17.487   3.905  0.5153  0.0630  0.1891
  401PEP     CB12353   2.854  17.114   3.804  0.3712 -0.0598  0.1071
  401PEP     CB12354   3.136  16.729   3.746  0.0624 -0.2882 -0.3049
  401PEP     CB12355   3.555  16.694   3.575 -0.0176 -0.4346  0.0954
  401PEP     CB12356   3.682  17.013   3.249 -0.2847  0.1823 -0.4153
  401PEP     CB12357   3.443  17.304   2.941  0.0980  0.1186  0.2344
  401PEP     CB12358   3.421  17.445   2.456  0.1713  0.2063 -0.1156
  401PEP     CB12359   3.874  17.460   2.244 -0.2020 -0.0398 -0.1534
  401PEP     CB12360   4.340  17.148   2.396 -0.1633  0.0338  0.2543
  402PEP     CB12361  13.547  10.462   7.634  0.2801  0.5674  0.2836
  402PEP     CB12362  13.127  10.331   7.719  0.0152  0.2211  0.2396
  402PEP     CB12363  12.738  10.360   7.850  0.0122 -0.0186  0.1818
  402PEP     CB12364  12.280  10.263   7.894  0.2913 -0.1683 -0.3580
  402PEP     CB12365  12.098  10.021   7.577 -0.3981  0.1433 -0.2190
  402PEP     CB12366  12.186  10.022   7.122 -0.2710 -0.1102 -0.1248
  402PEP     CB12367  12.430  10.188   6.917 -0.1353  0.2484  0.2831
  402PEP     CB12368  12.689  10.211   6.587  0.0125  0.0442  0.0140
  402PEP     CB12369  12.938  10.346   6.231  0.5346  0.0565 -0.1667
  402PEP     CB12370  13.137  10.735   6.121 -0.2561  0.1053 -0.1727
  402PEP     CB12371  12.999  10.939   5.666 -0.0219  0.1840 -0.3097
  402PEP     CB12372  12.629  10.859   5.394 -0.0303  0.1884  0.0185
  402PEP     CB12373  12.219  11.067   5.491  0.4550 -0.1746  0.1185
  402PEP     CB12374  12.058  11.438   5.813  0.0744 -0.0992  0.5155
  402PEP     CB12375  12.252  11.656   6.185 -0.5691 -0.0608 -0.2215
  402PEP     CB12376  12.580  11.564   6.517 -0.1419 -0.1112  0.2967
  402PEP     CB12377  12.867  11.513   6.898 -0.0113  0.2260 -0.0793
  402PEP     CB12378  13.000  11.237   7.175  0.1311  0.0016  0.3252
  402PEP     CB12379  12.890  10.854   7.402 -0.1164 -0.0584 -0.2276
  402PEP     CB12380  12.524  10.774   7.749  0.2559 -0.1359 -0.0212
  402PEP     CB12381  12.256  11.088   8.009  0.3454  0.1669 -0.0149
  402PEP     CB12382  12.153  11.463   7.730 -0.1309  0.1815  0.1695
  402PEP     CB12383  12.375  11.751   7.433  0.2673 -0.0688 -0.0908
  402PEP     CB12384  12.419  11.926   7.042 -0.0756  0.0926 -0.3204
  402PEP     CB12385  12.636  12.252   6.804  0.2410  0.0161 -0.0551
  402PEP     CB12386  12.984  12.604   6.969  0.0374 -0.3561  0.1361
  402PEP     CB12387  12.938  12.755   7.355 -0.2207 -0.1515  0.1324
  402PEP     CB12388  12.939  12.534   7.778 -0.1203 -0.0622 -0.1555
  402PEP     CB12389  12.613  12.312   8.062  0.4467  0.1025 -0.2629
  402PEP     CB12390  12.424  12.197   8.421 -0.3061  0.1364  0.3247
  402PEP     CB12391  11.992  12.004   8.528 -0.1054  0.3769  0.0567
  402PEP     CB12392  11.887  11.685   8.820  0.0850  0.2785 -0.1667
  402PEP     CB12393  12.131  11.391   9.116  0.2024  0.1745  0.3824
  402PEP     CB12394  12.216  11.579   9.470 -0.5461 -0.0047  0.2191
  402PEP     CB12395  12.225  12.005   9.441 -0.2887  0.0677  0.1207
  402PEP     CB12396  11.947  12.147   9.249 -0.0436 -0.5043 -0.2152
  402PEP     CB12397  11.835  12.379   8.896 -0.2691 -0.2799 -0.1553
  402PEP     CB12398  11.574  12.526   8.546  0.0012 -0.2168  0.2911
  402PEP     CB12399  11.089  12.690   8.508  0.2062 -0.1647  0.0014
  402PEP     CB12400  10.688  12.816   8.238  0.3761 -0.4306  0.0309
  403PEP     CB12401   0.395  17.340  10.120  0.0597 -0.2876 -0.0449
  403PEP     CB12402   0.290  16.926  10.192 -0.0336 -0.3452 -0.1459
  403PEP     CB12403   0.368  16.468  10.202 -0.2627  0.2923 -0.2354
  403PEP     CB12404   0.720  16.284  10.452  0.3625 -0.1223  0.1771
  403PEP     CB12405   1.062  16.154  10.764  0.0719  0.6792 -0.0973
  403PEP     CB12406   1.555  16.133  10.879 -0.5154  0.1628  0.2613
  403PEP     CB12407   1.914  16.339  11.074 -0.0374  0.2988 -0.2632
  403PEP     CB12408   2.104  16.462  11.502  0.0215 -0.0114  0.3938
  403PEP     CB12409   2.150  16.507  11.964 -0.3560 -0.2652  0.1547
  403PEP     CB12410   2.171  16.143  12.124 -0.3696 -0.1914  0.1395
  403PEP     CB12411   2.341  15.695  12.160  0.1208  0.3261 -0.2295
  403PEP     CB12412   2.384  15.261  12.253  0.0421  0.0771  0.0437
  403PEP     CB12413   2.325  15.045  12.580 -0.1349  0.3147  0.0588
  403PEP     CB12414   2.532  14.702  12.900 -0.2186 -0.1939  0.0679
  403PEP     CB12415   2.901  14.689  13.217  0.3056  0.0785  0.1060
  403PEP     CB12416   3.305  14.905  13.248 -0.4687  0.0194 -0.0787
  403PEP     CB12417   3.447  15.339  13.141 -0.1209 -0.1816 -0.4730
  403PEP     CB12418   3.492  15.773  13.331 -0.0104 -0.0909 -0.0447
  403PEP     CB12419   3.500  15.870  13.778 -0.3892 -0.3107 -0.0868
  403PEP     CB12420   3.601  15.913  14.280 -0.2915  0.0319  0.1413
  403PEP     CB12421   3.610  15.606  14.612 -0.1206  0.0262  0.3084
  403PEP     CB12422   3.532  15.202  14.732 -0.1583 -0.0514 -0.0675
  403PEP     CB12423   3.120  15.065  14.858 -0.1740  0.0026 -0.2481
  403PEP     CB12424   2.829  15.232  14.830 -0.2564 -0.0470 -0.2847
  403PEP     CB12425   2.686  15.643  15.049  0.0250  0.1315 -0.0128
  403PEP     CB12426   2.729  16.097  14.952 -0.0819  0.0921 -0.0436
  403PEP     CB12427   2.544  16.495  15.229 -0.3096  0.2046  0.1280
  403PEP     CB12428   2.306  16.376  15.717  0.1057  0.0554 -0.0637
  403PEP     CB12429   1.898  16.254  15.981 -0.2256  0.0504 -0.2594
  403PEP     CB12430   1.606  15.885  15.896  0.1294  0.0097  0.0628
  403PEP     CB12431   1.676  15.541  15.607  0.2345  0.3772 -0.1014
  403PEP     CB12432   1.965  15.453  15.349 -0.1018  0.0003  0.0162
  403PEP     CB12433   2.120  15.511  14.910 -0.2321  0.1658  0.2694
  403PEP     CB12434   2.065  15.406  14.472  0.0274  0.0734 -0.1662
  403PEP     CB12435   1.997  15.240  14.057  0.3640  0.2547 -0.1426
  403PEP     CB12436   1.802  14.935  13.757 -0.0021  0.2241  0.1657
  403PEP     CB12437   1.787  14.547  13.815  0.0218 -0.3274  0.1451
  403PEP     CB12438   1.669  14.383  14.168 -0.0537  0.1366 -0.4766
  403PEP     CB12439   1.329  14.350  14.548 -0.0193  0.0832  0.0548
  403PEP     CB12440   1.103  14.484  14.913 -0.0270  0.3759  0.4505
  404PEP     CB12441   1.025   8.251   4.637 -0.0773  0.1491 -0.0185
  404PEP     CB12442   1.191   8.297   4.172 -0.2535 -0.3019  0.1671
  404PEP     CB12443   1.440   8.387   3.835 -0.3810  0.3124 -0.3277
  404PEP     CB12444   1.863   8.380   3.713  0.1913 -0.1759 -0.0163
  404PEP     CB12445   2.306   8.443   3.923 -0.2178 -0.1685 -0.1206
  404PEP     CB12446   2.756   8.401   3.745  0.1577 -0.0576  0.1966
  404PEP     CB12447   3.046   8.081   3.581  0.1040  0.2411 -0.1178
  404PEP     CB12448   3.082   7.582   3.494 -0.1237 -0.0325 -0.1829
  404PEP     CB12449   3.112   7.105   3.344  0.2328  0.0741 -0.0556
  404PEP     CB12450   3.427   6.811   3.299  0.1692  0.3419  0.0764
  404PEP     CB12451   3.704   6.470   3.436  0.3169  0.0505 -0.0411
  404PEP     CB12452   3.974   6.176   3.212 -0.1489  0.0407  0.0008
  404PEP     CB12453   4.330   6.084   2.991 -0.1100 -0.2794 -0.1333
  404PEP     CB12454   4.455   5.844   2.797  0.1038  0.2759  0.3760
  404PEP     CB12455   4.618   5.503   2.600 -0.1501  0.0257  0.1126
  404PEP     CB12456   4.767   5.329   2.305 -0.4119  0.0109  0.0731
  404PEP     CB12457   5.077   5.491   1.942 -0.3821 -0.0856 -0.0188
  404PEP     CB12458   5.498   5.325   1.670  0.1515 -0.3424  0.1114
  404PEP     CB12459   5.661   4.864   1.733 -0.2839  0.5152  0.4171
  404PEP     CB12460   5.432   4.566   1.911  0.0883 -0.1483 -0.0895
  404PEP     CB12461   5.101   4.797   2.040  0.1980  0.4020  0.6194
  404PEP     CB12462   4.970   5.006   1.708  0.1167  0.1534 -0.0610
  404PEP     CB12463   4.944   5.208   1.328  0.1043  0.1343  0.2726
  404PEP     CB12464   4.598   5.409   1.107 -0.1878  0.5795  0.1527
  404PEP     CB12465   4.576   5.708   0.826  0.0712  0.0643 -0.0870
  404PEP     CB12466   4.911   5.937   0.757  0.1031  0.0111  0.3241
  404PEP     CB12467   5.378   5.959   0.894 -0.1903 -0.2131  0.0183
  404PEP     CB12468   5.662   5.868   1.235  0.2190 -0.1748  0.0467
  404PEP     CB12469   5.871   5.478   1.198  0.1461  0.3880  0.2402
  404PEP     CB12470   5.696   5.143   1.041 -0.1415 -0.2916  0.2161
  404PEP     CB12471   5.385   4.831   1.049 -0.0536  0.0096  0.1540
  404PEP     CB12472   5.328   4.460   1.297 -0.3338 -0.0452 -0.3186
  404PEP     CB12473   5.523   4.090   1.343  0.0411 -0.0637 -0.1691
  404PEP     CB12474   5.600   3.646   1.253  0.2065 -0.0349  0.0888
  404PEP     CB12475   5.895   3.409   1.191  0.2215 -0.0814 -0.0387
  404PEP     CB12476   6.369   3.418   1.130 -0.1039  0.2831  0.1992
  404PEP     CB12477   6.624   3.074   1.000  0.1608 -0.0894 -0.0635
  404PEP     CB12478   6.477   2.565   1.154 -0.1672 -0.0609 -0.2293
  404PEP     CB12479   6.093   2.413   1.469 -0.1312  0.0399 -0.4279
  404PEP     CB12480   5.672   2.537   1.397  0.0142 -0.2506 -0.1944
  405PEP     CB12481   6.815   3.559   1.968  0.0602 -0.0159 -0.0226
  405PEP     CB12482   7.007   3.401   1.633  0.1304  0.2371  0.4332
  405PEP     CB12483   7.246   3.498   1.289 -0.1927 -0.1277  0.1879
  405PEP     CB12484   7.454   3.319   0.881  0.0336 -0.0805 -0.2732
  405PEP     CB12485   7.406   3.178   0.431  0.3667 -0.3570 -0.1088
  405PEP     CB12486   7.210   3.290   0.019  0.1341  0.2071 -0.1731
  405PEP     CB12487   7.299   3.340  -0.304 -0.2175  0.0684  0.2020
  405PEP     CB12488   7.610   3.152  -0.516  0.0422 -0.4226  0.1361
  405PEP     CB12489   7.951   2.792  -0.486 -0.0927 -0.0055 -0.2110
  405PEP     CB12490   8.063   2.714  -0.117 -0.4126 -0.1027 -0.2933
  405PEP     CB12491   8.063   3.017   0.282 -0.1592  0.1595  0.1590
  405PEP     CB12492   7.892   3.284   0.491 -0.3112 -0.2782 -0.3525
  405PEP     CB12493   7.881   3.668   0.827 -0.1996  0.3924 -0.2011
  405PEP     CB12494   7.591   3.830   1.182 -0.0637 -0.1514  0.2472
  405PEP     CB12495   7.160   4.069   1.285 -0.1637 -0.0822 -0.2179
  405PEP     CB12496   6.941   4.475   1.642  0.0565  0.1239 -0.1505
  405PEP     CB12497   7.075   4.875   1.829 -0.1626  0.2242  0.0854
  405PEP     CB12498   6.971   5.238   2.065 -0.2025 -0.1333 -0.0710
  405PEP     CB12499   7.022   5.521   2.387 -0.1024 -0.2015 -0.1615
  405PEP     CB12500   7.053   5.768   2.734  0.0366  0.2232 -0.2549
  405PEP     CB12501   7.093   6.240   2.921 -0.0223 -0.0280  0.0502
  405PEP     CB12502   7.408   6.637   3.085 -0.3257  0.0349  0.2105
  405PEP     CB12503   7.603   6.936   3.332  0.1418 -0.1100  0.2231
  405PEP     CB12504   7.717   7.335   3.436 -0.2269 -0.0759  0.0261
  405PEP     CB12505   7.801   7.580   3.741 -0.3257 -0.0826 -0.4936
  405PEP     CB12506   8.002   7.974   3.950  0.0560 -0.2127 -0.1786
  405PEP     CB12507   8.029   8.376   4.155  0.1006  0.3785 -0.1353
  405PEP     CB12508   8.279   8.489   4.639 -0.3792  0.4244 -0.0662
  405PEP     CB12509   8.566   8.671   4.925 -0.4194  0.1282  0.0276
  405PEP     CB12510   8.784   8.482   5.314  0.3559  0.0403 -0.0536
  405PEP     CB12511   8.492   8.323   5.684  0.0146 -0.4752 -0.1583
  405PEP     CB12512   8.018   8.411   5.778  0.1344  0.2071  0.1029
  405PEP     CB12513   7.729   8.467   5.405 -0.1562 -0.2499  0.1159
  405PEP     CB12514   7.838   8.449   4.981 -0.1279  0.0731  0.4181
  405PEP     CB12515   7.618   8.657   4.694  0.0567  0.1832 -0.0577
  405PEP     CB12516   7.384   9.076   4.582  0.0082 -0.0418 -0.0891
  405PEP     CB12517   7.062   9.462   4.684 -0.0425  0.2430 -0.2192
  405PEP     CB12518   6.844   9.892   4.708  0.0672 -0.2151  0.0583
  405PEP     CB12519   6.812  10.313   4.787  0.5185 -0.2466 -0.0734
  405PEP     CB12520   6.823  10.783   4.661 -0.1870 -0.4611 -0.3321
  406PEP     CB12521   1.731   9.568  18.791  0.3793 -0.0543 -0.1278
  406PEP     CB12522   1.879   9.665  18.449 -0.3860  0.1199 -0.2577
  406PEP     CB12523   1.905   9.925  18.187 -0.0789  0.0554  0.1619
  406PEP     CB12524   2.013  10.218  17.955 -0.0154  0.0128 -0.5803
  406PEP     CB12525   2.105  10.642  17.656 -0.0971 -0.2495  0.1243
  406PEP     CB12526   2.409  10.869  17.565  0.1699  0.3801 -0.1095
  406PEP     CB12527   2.749  11.209  17.532  0.0465 -0.0959  0.4322
  406PEP     CB12528   3.032  11.232  17.201  0.3362  0.1294  0.1333
  406PEP     CB12529   3.241  10.920  16.951 -0.2161 -0.0419  0.2091
  406PEP     CB12530   3.152  10.491  16.837 -0.1325 -0.1513 -0.3451
  406PEP     CB12531   2.922  10.246  16.596 -0.0575  0.0527  0.1746
  406PEP     CB12532   2.604   9.902  16.608  0.0047 -0.1753  0.3878
  406PEP     CB12533   2.391   9.732  16.923  0.1831 -0.0533 -0.0301
  406PEP     CB12534   2.427   9.552  17.303 -0.2592 -0.4523  0.1445
  406PEP     CB12535   2.518   9.459  17.807 -0.3218 -0.2141 -0.1523
  406PEP     CB12536   2.790   9.234  18.108  0.2337 -0.0243  0.1796
  406PEP     CB12537   3.260   9.306  18.279  0.3604  0.2107  0.0635
  406PEP     CB12538   3.523   9.370  18.679  0.3773 -0.2055 -0.0067
  406PEP     CB12539   3.497   9.423  19.168 -0.0590  0.5075  0.1894
  406PEP     CB12540   3.213   9.343  19.518  0.4126 -0.4073 -0.0823
  406PEP     CB12541   2.777   9.267  19.687  0.1079 -0.2825  0.1321
  406PEP     CB12542   2.368   9.038  19.639  0.2506  0.1223  0.2127
  406PEP     CB12543   2.097   8.782  19.676  0.1249  0.0232  0.1479
  406PEP     CB12544   1.863   8.484  19.887  0.3179 -0.0010 -0.3995
  406PEP     CB12545   1.841   8.193  19.671  0.2556 -0.4973 -0.2405
  406PEP     CB12546   2.103   8.011  19.412  0.1423 -0.4635 -0.4052
  406PEP     CB12547   2.306   7.915  19.038 -0.1452  0.1838 -0.0231
  406PEP     CB12548   2.571   7.634  18.847 -0.0708 -0.0720  0.0495
  406PEP     CB12549   2.281   7.232  18.770 -0.0997  0.0896  0.0688
  406PEP     CB12550   2.097   6.933  19.032 -0.0431  0.0954  0.1931
  406PEP     CB12551   2.043   6.705  19.316  0.2836 -0.0864 -0.4845
  406PEP     CB12552   1.953   6.263  19.286 -0.4349 -0.0145 -0.2020
  406PEP     CB12553   1.561   5.979  19.320  0.0916 -0.5533 -0.0727
  406PEP     CB12554   1.021   5.949  19.498 -0.3962  0.0400 -0.1660
  406PEP     CB12555   0.759   6.073  19.927 -0.2284 -0.3251 -0.1309
  406PEP     CB12556   0.904   6.281  20.326  0.0743 -0.0740  0.2492
  406PEP     CB12557   1.291   6.206  20.432 -0.0449  0.2723  0.2635
  406PEP     CB12558   1.611   6.189  20.179 -0.0587  0.0063 -0.1595
  406PEP     CB12559   2.099   6.182  20.282  0.0036 -0.1569  0.3466
  406PEP     CB12560   2.401   6.390  20.314  0.3247  0.0465 -0.0758
  407PEP     CB12561  14.657  11.304   5.041  0.1321 -0.0828  0.2371
  407PEP     CB12562  14.294  11.096   4.993  0.2175  0.0547 -0.0755
  407PEP     CB12563  13.938  10.823   5.021  0.1808 -0.2279  0.0525
  407PEP     CB12564  13.495  10.676   5.005  0.0177 -0.1598  0.0119
  407PEP     CB12565  13.196  10.479   4.791  0.2493 -0.1328 -0.1540
  407PEP     CB12566  13.091  10.138   4.431 -0.2600  0.2971 -0.1802
  407PEP     CB12567  13.155   9.701   4.470  0.1247  0.1952  0.1531
  407PEP     CB12568  13.227   9.320   4.718 -0.0067  0.0224  0.2909
  407PEP     CB12569  13.615   9.165   4.792 -0.5184 -0.0702  0.1424
  407PEP     CB12570  13.970   9.364   4.706 -0.0317 -0.2657 -0.0858
  407PEP     CB12571  14.127   9.731   4.618 -0.0847  0.0647 -0.2945
  407PEP     CB12572  13.998  10.010   4.301 -0.0805 -0.1827 -0.2011
  407PEP     CB12573  13.918   9.891   3.812 -0.2488 -0.2698 -0.0334
  407PEP     CB12574  13.864   9.485   3.614  0.2628 -0.3777 -0.2116
  407PEP     CB12575  13.981   9.111   3.358 -0.1717 -0.1515 -0.1860
  407PEP     CB12576  13.877   8.832   3.015 -0.1540 -0.1463  0.6537
  407PEP     CB12577  13.951   8.874   2.549  0.1798  0.4264  0.3208
  407PEP     CB12578  14.273   8.926   2.194 -0.2233 -0.0471  0.0859
  407PEP     CB12579  14.590   9.224   2.206 -0.4247 -0.0873 -0.3614
  407PEP     CB12580  14.728   9.234   2.646 -0.2711  0.0977  0.1692
  407PEP     CB12581  14.396   9.169   2.884  0.0019 -0.3980  0.3078
  407PEP     CB12582  14.350   8.839   3.162 -0.0355  0.0621  0.0104
  407PEP     CB12583  14.436   8.494   3.449  0.0668  0.2356 -0.0284
  407PEP     CB12584  14.569   8.114   3.540  0.0941  0.0331  0.8480
  407PEP     CB12585  14.377   7.728   3.835 -0.0427 -0.2701 -0.2312
  407PEP     CB12586  14.003   7.604   3.900  0.2933  0.4116  0.1638
  407PEP     CB12587  13.771   7.213   3.856  0.0829  0.2189 -0.1610
  407PEP     CB12588  13.738   6.829   4.106  0.3256 -0.2545 -0.2438
  407PEP     CB12589  14.049   6.498   4.221 -0.0535  0.1504  0.1561
  407PEP     CB12590  14.417   6.323   4.308 -0.4043 -0.0560 -0.0426
  407PEP     CB12591  14.665   5.910   4.295  0.3047  0.1558 -0.2333
  407PEP     CB12592  15.012   5.696   4.450  0.0584  0.3386  0.0519
  407PEP     CB12593  15.294   5.389   4.585  0.5887 -0.0033  0.0043
  407PEP     CB12594  15.415   5.252   5.001 -0.3992 -0.0734 -0.2802
  407PEP     CB12595  15.433   5.539   5.380  0.2563 -0.1719 -0.2453
  407PEP     CB12596  15.640   5.801   5.745  0.1398 -0.0022 -0.2159
  407PEP     CB12597  15.362   6.009   6.127 -0.2191 -0.1116  0.1010
  407PEP     CB12598  15.091   6.177   6.312  0.2480  0.1530 -0.0593
  407PEP     CB12599  14.852   6.531   6.251 -0.0603  0.1827 -0.0879
  407PEP     CB12600  14.664   6.885   6.262 -0.0739  0.0867  0.1406
  408PEP     CB12601  20.815  21.973  17.202 -0.1079  0.1498  0.0976
  408PEP     CB12602  20.713  22.386  17.113  0.1292 -0.0037  0.0948
  408PEP     CB12603  20.864  22.771  17.052 -0.0284  0.1844  0.3559
  408PEP     CB12604  21.162  23.149  17.073  0.3156 -0.1321  0.4614
  408PEP     CB12605  21.404  23.364  16.805 -0.1952  0.3781 -0.0370
  408PEP     CB12606  21.795  23.678  16.557 -0.1430  0.2414  0.1692
  408PEP     CB12607  22.198  23.637  16.507  0.2486  0.0915 -0.0973
  408PEP     CB12608  22.638  23.681  16.400 -0.4339  0.0410  0.0224
  408PEP     CB12609  22.715  23.616  15.980 -0.4677  0.2382  0.0288
  408PEP     CB12610  22.681  23.272  15.744 -0.1153 -0.1556 -0.1320
  408PEP     CB12611  22.350  23.041  15.505  0.3278 -0.0808 -0.0583
  408PEP     CB12612  22.189  22.611  15.619 -0.2331  0.2813  0.0773
  408PEP     CB12613  22.230  22.433  16.010  0.1778 -0.6470 -0.1444
  408PEP     CB12614  22.241  22.368  16.443 -0.1196  0.0791  0.2320
  408PEP     CB12615  22.245  22.289  16.916  0.0441  0.0114  0.2890
  408PEP     CB12616  21.936  22.051  17.139  0.1127  0.4661 -0.1633
  408PEP     CB12617  21.461  22.045  17.120 -0.3817  0.2530 -0.0813
  408PEP     CB12618  21.179  22.248  16.952  0.4051  0.1748  0.0595
  408PEP     CB12619  21.058  22.392  16.567 -0.3242  0.2944  0.4322
  408PEP     CB12620  21.393  22.754  16.242 -0.0806 -0.0888  0.1368
  408PEP     CB12621  21.885  22.837  16.038 -0.1537 -0.0811 -0.2164
  408PEP     CB12622  22.319  22.959  15.985  0.0916 -0.6816  0.0747
  408PEP     CB12623  22.644  23.099  16.164 -0.1546  0.1259  0.2441
  408PEP     CB12624  22.908  22.920  16.538  0.4640 -0.1120  0.2050
  408PEP     CB12625  23.226  23.014  16.697  0.2321 -0.0267 -0.1108
  408PEP     CB12626  23.479  23.311  16.641 -0.1780 -0.1387 -0.2638
  408PEP     CB12627  23.581  23.680  16.535 -0.0841 -0.2430 -0.2343
  408PEP     CB12628  23.872  23.880  16.332 -0.1482  0.0195  0.1635
  408PEP     CB12629  24.327  23.837  16.212 -0.0287 -0.0415 -0.1309
  408PEP     CB12630  24.793  23.762  16.211  0.1379  0.0948  0.2977
  408PEP     CB12631  24.923  23.355  16.253  0.1967 -0.0207  0.1477
  408PEP     CB12632  24.769  22.986  16.134 -0.1460  0.0888  0.0125
  408PEP     CB12633  24.469  22.621  16.098 -0.2241  0.0426  0.0816
  408PEP     CB12634  24.392  22.190  16.082  0.0615 -0.3290  0.3863
  408PEP     CB12635  24.377  21.830  15.880 -0.1409 -0.0826 -0.2366
  408PEP     CB12636  24.160  21.561  15.655  0.1806 -0.0966  0.3326
  408PEP     CB12637  23.768  21.447  15.542  0.1153 -0.2106 -0.1797
  408PEP     CB12638  23.339  21.504  15.672 -0.4455  0.3345  0.0536
  408PEP     CB12639  22.885  21.466  15.438 -0.1913 -0.4612 -0.2977
  408PEP     CB12640  22.664  21.307  15.095  0.0239 -0.1982  0.1981
  409PEP     CB12641   6.612  15.757  15.915 -0.1021  0.1132 -0.2052
  409PEP     CB12642   6.366  15.625  16.251 -0.1735  0.1474  0.0092
  409PEP     CB12643   6.058  15.607  16.630  0.2794  0.1877  0.1407
  409PEP     CB12644   5.997  15.539  17.146 -0.2126  0.3340  0.2080
  409PEP     CB12645   6.095  15.333  17.542  0.4413 -0.4405  0.0718
  409PEP     CB12646   6.152  15.319  18.014 -0.3502  0.4020  0.2650
  409PEP     CB12647   6.088  15.630  18.266  0.2399  0.0541  0.1605
  409PEP     CB12648   5.890  16.046  18.108 -0.0307  0.0516 -0.0796
  409PEP     CB12649   5.907  16.310  17.726 -0.3235 -0.2351  0.1587
  409PEP     CB12650   5.925  16.138  17.343 -0.1863 -0.1452  0.3304
  409PEP     CB12651   5.951  16.027  16.919 -0.0136 -0.0951  0.0244
  409PEP     CB12652   6.284  16.036  16.539  0.1983 -0.0363  0.4449
  409PEP     CB12653   6.347  16.136  16.094  0.0831  0.4137 -0.5834
  409PEP     CB12654   6.113  16.410  15.784  0.2702 -0.2425  0.4709
  409PEP     CB12655   5.843  16.750  15.544  0.0089  0.3296 -0.2840
  409PEP     CB12656   5.406  16.792  15.438 -0.3016 -0.2073 -0.2611
  409PEP     CB12657   4.915  16.801  15.400  0.3090 -0.0489 -0.1292
  409PEP     CB12658   4.618  16.705  15.626  0.2608 -0.2317  0.3558
  409PEP     CB12659   4.303  16.598  15.935 -0.1331  0.0494  0.1450
  409PEP     CB12660   4.181  16.346  16.342  0.1291 -0.1071  0.0809
  409PEP     CB12661   4.069  16.033  16.585  0.0987 -0.0541  0.3068
  409PEP     CB12662   3.796  15.801  16.801 -0.0370 -0.0945  0.0620
  409PEP     CB12663   3.275  15.747  16.906 -0.3682  0.0152 -0.1142
  409PEP     CB12664   3.115  15.628  17.273  0.0693  0.3760  0.1266
  409PEP     CB12665   3.351  15.503  17.593  0.3798 -0.0767 -0.0498
  409PEP     CB12666   3.522  15.195  17.928  0.0764 -0.0699  0.0088
  409PEP     CB12667   3.377  14.978  18.390  0.0543  0.2318  0.4323
  409PEP     CB12668   3.126  15.141  18.682  0.2482  0.1311  0.0883
  409PEP     CB12669   2.891  15.246  18.987 -0.3322  0.2568 -0.1141
  409PEP     CB12670   2.726  15.080  19.335  0.0141 -0.2395  0.1781
  409PEP     CB12671   2.594  14.638  19.549  0.4164  0.3550  0.4102
  409PEP     CB12672   2.439  14.543  20.015  0.1024  0.0614 -0.0145
  409PEP     CB12673   2.680  14.689  20.421 -0.0242 -0.0346 -0.4109
  409PEP     CB12674   2.493  14.783  20.874 -0.0059 -0.1668  0.2586
  409PEP     CB12675   2.097  14.942  21.005  0.0818 -0.0322  0.0736
  409PEP     CB12676   1.692  15.234  20.784 -0.2725 -0.2082 -0.1900
  409PEP     CB12677   1.434  15.317  20.390  0.0241  0.2085  0.1528
  409PEP     CB12678   1.446  15.233  19.970 -0.1196  0.1014 -0.0321
  409PEP     CB12679   1.719  15.333  19.572  0.1147  0.4584 -0.3238
  409PEP     CB12680   1.930  15.275  19.209 -0.3413 -0.2356  0.1869
  410PEP     CB12681   7.998   7.997   5.574 -0.4037  0.0348  0.0922
  410PEP     CB12682   7.751   8.014   5.167 -0.3380  0.0994 -0.1488
  410PEP     CB12683   7.414   8.202   5.022 -0.1176 -0.2379 -0.0491
  410PEP     CB12684   7.142   8.409   4.939 -0.0398 -0.1944 -0.1588
  410PEP     CB12685   6.704   8.431   4.849 -0.4053  0.2693 -0.2817
  410PEP     CB12686   6.429   8.131   4.658  0.0663  0.3091  0.0127
  410PEP     CB12687   6.236   8.109   4.299  0.0706 -0.1238 -0.1319
  410PEP     CB12688   5.998   8.122   3.919  0.1175  0.2886  0.0017
  410PEP     CB12689   5.871   8.204   3.507  0.1175 -0.0233  0.1005
  410PEP     CB12690   6.084   8.295   3.140 -0.0566 -0.3437 -0.6734
  410PEP     CB12691   6.559   8.232   3.130  0.0148  0.1338  0.2357
  410PEP     CB12692   6.873   8.150   3.356 -0.5066 -0.0759 -0.1169
  410PEP     CB12693   7.258   8.152   3.601  0.1448  0.0173  0.1799
  410PEP     CB12694   7.457   7.997   3.996 -0.0094 -0.0334 -0.0734
  410PEP     CB12695   7.696   7.690   4.241  0.1883 -0.5153 -0.1003
  410PEP     CB12696   7.874   7.445   4.518 -0.1925 -0.1054 -0.1310
  410PEP     CB12697   7.946   7.532   4.960 -0.0174  0.1437  0.1883
  410PEP     CB12698   7.824   7.350   5.329  0.0478 -0.1439  0.1047
  410PEP     CB12699   7.412   7.222   5.651  0.1915  0.0601 -0.2722
  410PEP     CB12700   7.078   7.045   5.773  0.1129  0.0912  0.3473
  410PEP     CB12701   6.841   6.712   5.606 -0.3143 -0.1445  0.0505
  410PEP     CB12702   6.852   6.700   5.130 -0.0399  0.2732 -0.1972
  410PEP     CB12703   7.176   6.873   4.831 -0.0999  0.0550 -0.3761
  410PEP     CB12704   7.306   7.051   4.421 -0.6102 -0.0595  0.3784
  410PEP     CB12705   7.219   7.383   4.050  0.1456  0.0144  0.3386
  410PEP     CB12706   7.141   7.666   3.815 -0.0740  0.3546 -0.5459
  410PEP     CB12707   7.074   7.546   3.455  0.2199  0.1629  0.1170
  410PEP     CB12708   7.281   7.307   3.108  0.1607  0.2485 -0.0643
  410PEP     CB12709   7.399   7.093   2.775  0.1300 -0.0660 -0.0650
  410PEP     CB12710   7.375   6.634   2.511  0.2419 -0.1080  0.0805
  410PEP     CB12711   7.520   6.241   2.462 -0.0465  0.0190 -0.2154
  410PEP     CB12712   7.536   5.760   2.525  0.1131  0.5357 -0.2497
  410PEP     CB12713   7.862   5.364   2.550 -0.0377 -0.1802  0.2943
  410PEP     CB12714   8.096   5.069   2.183 -0.1744  0.1254 -0.1081
  410PEP     CB12715   8.396   5.131   1.827 -0.4102  0.1419 -0.1757
  410PEP     CB12716   8.789   5.002   1.684 -0.0285 -0.1584  0.0326
  410PEP     CB12717   9.242   5.183   1.786 -0.0706  0.3850 -0.0285
  410PEP     CB12718   9.340   5.556   1.848  0.1466 -0.3886  0.0077
  410PEP     CB12719   8.972   5.825   1.999 -0.1068  0.1313 -0.0122
  410PEP     CB12720   8.634   5.972   1.764  0.2786 -0.1135 -0.0303
  411PEP     CB12721  18.030  20.837  19.192 -0.0383 -0.1253 -0.1897
  411PEP     CB12722  17.934  21.012  19.493 -0.0747 -0.2007  0.0728
  411PEP     CB12723  17.905  21.462  19.635 -0.1524  0.3828 -0.1049
  411PEP     CB12724  17.782  21.886  19.513  0.2133 -0.0036  0.1938
  411PEP     CB12725  17.435  21.943  19.264 -0.0221  0.1979  0.3362
  411PEP     CB12726  17.019  21.993  19.062  0.5618  0.3063  0.0627
  411PEP     CB12727  16.678  22.092  18.778  0.1530  0.1620 -0.1906
  411PEP     CB12728  16.717  22.377  18.498 -0.1455  0.1903  0.2633
  411PEP     CB12729  16.668  22.871  18.425 -0.0966  0.1640  0.8523
  411PEP     CB12730  16.377  23.061  18.227  0.0616  0.1936  0.4744
  411PEP     CB12731  15.959  22.797  18.161  0.0070 -0.2669  0.1036
  411PEP     CB12732  15.890  22.433  18.416  0.3350 -0.0355  0.3008
  411PEP     CB12733  15.722  21.988  18.465 -0.7517 -0.5190  0.0681
  411PEP     CB12734  15.644  21.580  18.502 -0.0879 -0.4112 -0.2529
  411PEP     CB12735  15.611  21.283  18.789  0.0197 -0.0053  0.2294
  411PEP     CB12736  15.752  21.202  19.077 -0.3957  0.2622 -0.0455
  411PEP     CB12737  15.736  21.036  19.432 -0.0013  0.2606 -0.2419
  411PEP     CB12738  15.639  20.753  19.740 -0.1719  0.2062 -0.1861
  411PEP     CB12739  15.327  20.639  20.083 -0.0534  0.3432  0.0697
  411PEP     CB12740  15.122  20.905  20.336 -0.3125  0.2410  0.0339
  411PEP     CB12741  15.214  21.209  20.593  0.1472 -0.0563  0.0156
  411PEP     CB12742  15.579  21.476  20.600 -0.0435  0.2353 -0.1025
  411PEP     CB12743  15.846  21.517  20.313  0.1748  0.1002  0.0681
  411PEP     CB12744  15.929  21.495  19.875 -0.1484  0.0480 -0.0427
  411PEP     CB12745  15.938  21.884  19.617 -0.3001 -0.0314  0.0420
  411PEP     CB12746  16.002  22.281  19.835 -0.0299 -0.0430 -0.1431
  411PEP     CB12747  15.888  22.680  20.107 -0.0437  0.1413  0.1711
  411PEP     CB12748  15.745  23.103  20.138  0.1427 -0.0596 -0.2878
  411PEP     CB12749  15.691  23.378  20.486 -0.1033 -0.0774 -0.0170
  411PEP     CB12750  15.429  23.459  20.875 -0.0803  0.1862 -0.0764
  411PEP     CB12751  15.055  23.365  21.104  0.2532  0.1308  0.0064
  411PEP     CB12752  14.599  23.414  20.974 -0.0382 -0.2155  0.2225
  411PEP     CB12753  14.562  23.773  20.647  0.0424  0.0498  0.3885
  411PEP     CB12754  14.901  24.048  20.674  0.0522  0.0239  0.0902
  411PEP     CB12755  15.249  23.969  20.912  0.1803  0.0639  0.1514
  411PEP     CB12756  15.682  24.081  21.005 -0.4309 -0.0396  0.0733
  411PEP     CB12757  15.838  24.400  21.286 -0.1706  0.3628 -0.3098
  411PEP     CB12758  15.935  24.448  21.734  0.2220  0.1129  0.2740
  411PEP     CB12759  16.102  24.588  22.127 -0.0200  0.2080  0.2607
  411PEP     CB12760  16.324  24.717  22.441 -0.1335 -0.1031  0.2133
  412PEP     CB12761   0.301   4.259   0.397  0.5758  0.3481  0.4899
  412PEP     CB12762   0.576   4.523   0.397  0.5950 -0.0130 -0.3346
  412PEP     CB12763   0.827   4.865   0.500 -0.1498 -0.4286 -0.2205
  412PEP     CB12764   1.237   4.995   0.569 -0.2965 -0.2051 -0.1350
  412PEP     CB12765   1.660   5.002   0.880  0.3316 -0.0174  0.3699
  412PEP     CB12766   2.010   5.126   1.094  0.1398 -0.0869 -0.4209
  412PEP     CB12767   1.854   5.366   1.512  0.0132 -0.0457 -0.1552
  412PEP     CB12768   1.489   5.587   1.659 -0.0458 -0.5296 -0.0084
  412PEP     CB12769   1.185   5.995   1.744  0.1394 -0.0668  0.0179
  412PEP     CB12770   0.992   6.438   1.636 -0.2839  0.2312 -0.3500
  412PEP     CB12771   0.621   6.579   1.344  0.2198  0.0670 -0.0893
  412PEP     CB12772   0.599   6.681   0.880  0.0650  0.1825 -0.1739
  412PEP     CB12773   0.446   6.428   0.370 -0.1175  0.3660  0.0869
  412PEP     CB12774   0.363   6.182   0.049  0.0709 -0.6468  0.3810
  412PEP     CB12775   0.365   5.714  -0.080  0.0941  0.0876  0.1674
  412PEP     CB12776   0.647   5.329  -0.080 -0.2804  0.2668 -0.1217
  412PEP     CB12777   0.857   5.109  -0.369 -0.1942  0.0228  0.1279
  412PEP     CB12778   1.221   4.953  -0.634 -0.2655  0.2599  0.1188
  412PEP     CB12779   1.423   4.999  -1.050  0.2198  0.2801  0.2069
  412PEP     CB12780   1.738   5.227  -1.254  0.0946 -0.3166 -0.1964
  412PEP     CB12781   1.969   5.472  -1.471  0.2707  0.0940 -0.0608
  412PEP     CB12782   2.230   5.670  -1.755 -0.3196  0.3053  0.0649
  412PEP     CB12783   2.401   5.975  -2.095  0.0432 -0.6059 -0.2245
  412PEP     CB12784   2.839   6.184  -2.153 -0.1599  0.4842  0.1500
  412PEP     CB12785   3.194   6.182  -1.851  0.4002  0.1899 -0.3747
  412PEP     CB12786   3.464   6.451  -1.706 -0.1977  0.1531  0.1243
  412PEP     CB12787   3.702   6.818  -1.699 -0.2626  0.0284  0.1982
  412PEP     CB12788   3.972   7.122  -1.719  0.2989  0.1300  0.3384
  412PEP     CB12789   4.377   7.278  -1.777  0.2002 -0.1714 -0.1023
  412PEP     CB12790   4.564   7.685  -1.688 -0.4559  0.0466 -0.0727
  412PEP     CB12791   4.553   8.149  -1.582  0.0392 -0.0693  0.2277
  412PEP     CB12792   4.441   8.453  -1.333 -0.0169 -0.0785  0.1493
  412PEP     CB12793   4.178   8.561  -0.954 -0.1164 -0.1023  0.0487
  412PEP     CB12794   3.818   8.830  -0.935 -0.0847 -0.1658  0.0722
  412PEP     CB12795   3.690   9.087  -1.244 -0.1774  0.0272 -0.1390
  412PEP     CB12796   3.696   9.232  -1.632 -0.0860 -0.0111  0.4025
  412PEP     CB12797   3.660   9.223  -2.033 -0.1703 -0.0947 -0.4543
  412PEP     CB12798   3.580   9.035  -2.432 -0.1651 -0.0751 -0.1113
  412PEP     CB12799   3.551   8.957  -2.917 -0.0613  0.0155  0.0895
  412PEP     CB12800   3.690   8.820  -3.381 -0.3517 -0.0142  0.3807
  413PEP     CB12801  19.317   9.559   9.733 -0.3522 -0.3293 -0.1533
  413PEP     CB12802  18.963   9.646  10.113  0.2797  0.0237  0.0367
  413PEP     CB12803  18.701   9.415  10.417  0.3346  0.0846  0.2140
  413PEP     CB12804  18.433   9.035  10.465  0.2256  0.8874 -0.1955
  413PEP     CB12805  18.525   8.622  10.430 -0.2545 -0.1171 -0.1269
  413PEP     CB12806  18.621   8.330  10.825 -0.1338  0.1558 -0.0945
  413PEP     CB12807  18.534   8.359  11.198  0.2769 -0.0487  0.1093
  413PEP     CB12808  18.517   8.324  11.610  0.1727  0.0167 -0.2755
  413PEP     CB12809  18.337   8.544  11.930 -0.1744  0.2220 -0.3419
  413PEP     CB12810  18.112   8.586  12.290  0.2556 -0.0053 -0.3651
  413PEP     CB12811  17.687   8.703  12.482 -0.3524 -0.0902  0.1886
  413PEP     CB12812  17.415   8.866  12.729  0.1165 -0.1027  0.0631
  413PEP     CB12813  17.377   9.209  13.081 -0.1968  0.2133  0.3552
  413PEP     CB12814  17.263   9.565  13.315 -0.2258 -0.1084 -0.2154
  413PEP     CB12815  17.092   9.857  13.719  0.1070  0.4719  0.1425
  413PEP     CB12816  17.072  10.235  14.015  0.0021  0.5559  0.0165
  413PEP     CB12817  16.988  10.334  14.439  0.0722 -0.2811  0.0725
  413PEP     CB12818  16.722  10.168  14.888 -0.2583  0.3116 -0.1969
  413PEP     CB12819  16.523   9.802  15.089  0.1126 -0.2203 -0.2550
  413PEP     CB12820  16.538   9.276  14.967  0.2347 -0.0138  0.5880
  413PEP     CB12821  16.649   8.968  14.620  0.3858  0.0079 -0.0261
  413PEP     CB12822  16.383   8.752  14.317  0.2708 -0.1095 -0.1800
  413PEP     CB12823  15.933   8.775  14.282 -0.1355  0.0862  0.0663
  413PEP     CB12824  15.702   8.551  14.574  0.0302 -0.2770 -0.3061
  413PEP     CB12825  15.803   8.353  14.928 -0.1156  0.2439  0.0940
  413PEP     CB12826  15.604   7.994  15.249 -0.2630  0.2720  0.4909
  413PEP     CB12827  15.379   7.790  15.549 -0.0349 -0.1068 -0.1049
  413PEP     CB12828  15.169   7.438  15.738 -0.2218  0.1673 -0.2209
  413PEP     CB12829  15.178   6.974  16.019  0.2590 -0.0578  0.1451
  413PEP     CB12830  15.117   6.509  15.959  0.1162 -0.0149 -0.0997
  413PEP     CB12831  15.426   6.222  15.940  0.2789 -0.5199  0.1568
  413PEP     CB12832  15.805   6.153  16.153 -0.0756  0.1637 -0.1317
  413PEP     CB12833  16.196   6.294  16.456  0.4247  0.1835  0.0168
  413PEP     CB12834  16.459   6.569  16.619 -0.0074  0.1067 -0.1309
  413PEP     CB12835  16.833   6.841  16.540 -0.4722  0.0312 -0.1598
  413PEP     CB12836  16.977   7.193  16.631  0.2611 -0.2018 -0.2191
  413PEP     CB12837  17.185   7.569  16.405  0.2955  0.1075  0.0536
  413PEP     CB12838  17.466   7.562  16.024  0.0390 -0.4139 -0.3782
  413PEP     CB12839  17.513   7.186  15.741 -0.4477 -0.3672 -0.0715
  413PEP     CB12840  17.346   6.748  15.803  0.1057  0.0060 -0.5542
  414PEP     CB12841   9.541   0.468  11.392 -0.1623 -0.0524  0.0274
  414PEP     CB12842   9.477   0.882  11.615  0.0629 -0.2379 -0.1263
  414PEP     CB12843   9.569   1.175  11.925  0.0726 -0.1028 -0.0411
  414PEP     CB12844   9.531   1.112  12.363  0.0538  0.1509 -0.0421
  414PEP     CB12845   9.556   0.949  12.801 -0.1582  0.1455 -0.0322
  414PEP     CB12846   9.519   0.918  13.220 -0.2955  0.1708  0.2207
  414PEP     CB12847   9.338   0.825  13.629 -0.0728 -0.1609 -0.0275
  414PEP     CB12848   9.159   0.829  14.034 -0.3326  0.3061 -0.1067
  414PEP     CB12849   8.968   0.639  14.396 -0.0723  0.3431  0.1489
  414PEP     CB12850   8.850   0.364  14.702  0.1128 -0.2719 -0.2207
  414PEP     CB12851   8.505   0.146  14.811  0.0740  0.0243  0.3419
  414PEP     CB12852   8.341  -0.194  14.939  0.0901  0.1033  0.4055
  414PEP     CB12853   8.293  -0.648  14.969 -0.1700  0.1907  0.2308
  414PEP     CB12854   8.323  -1.033  14.743  0.1722  0.2290  0.0786
  414PEP     CB12855   8.253  -1.344  14.454 -0.0512  0.0567 -0.0161
  414PEP     CB12856   8.192  -1.725  14.298 -0.0170  0.3293 -0.0236
  414PEP     CB12857   7.789  -1.883  14.382 -0.2980  0.0913 -0.3119
  414PEP     CB12858   7.370  -1.755  14.266 -0.3779  0.1627  0.4138
  414PEP     CB12859   7.276  -1.380  13.961 -0.1717 -0.2812  0.0997
  414PEP     CB12860   7.524  -0.981  13.977 -0.2584 -0.0449 -0.2471
  414PEP     CB12861   7.864  -0.885  14.269  0.5355 -0.3310 -0.0569
  414PEP     CB12862   7.896  -0.712  14.622  0.1503  0.1545 -0.1216
  414PEP     CB12863   7.809  -0.420  14.922 -0.1480  0.2596  0.3502
  414PEP     CB12864   7.466  -0.213  15.022  0.0907 -0.1283 -0.0203
  414PEP     CB12865   7.357   0.131  15.285 -0.0946 -0.0334 -0.2190
  414PEP     CB12866   7.220   0.346  15.663 -0.1983  0.1123  0.2444
  414PEP     CB12867   6.963   0.585  15.954 -0.0556 -0.0891 -0.1817
  414PEP     CB12868   6.595   0.730  16.276 -0.2997  0.2052 -0.0609
  414PEP     CB12869   6.277   0.669  16.439 -0.3332  0.3076  0.0527
  414PEP     CB12870   6.253   0.249  16.669  0.1082 -0.1544  0.2080
  414PEP     CB12871   6.465   0.160  16.905 -0.1366  0.1645 -0.0793
  414PEP     CB12872   6.767   0.461  16.939 -0.0439  0.0815  0.0437
  414PEP     CB12873   6.527   0.859  16.854 -0.0974 -0.0808 -0.1815
  414PEP     CB12874   6.506   1.193  16.615  0.0661  0.2288  0.1301
  414PEP     CB12875   6.918   1.424  16.468  0.1643  0.0609 -0.3668
  414PEP     CB12876   7.340   1.634  16.301  0.3010  0.3452 -0.0437
  414PEP     CB12877   7.636   1.849  16.065 -0.3270 -0.0575 -0.2793
  414PEP     CB12878   7.887   2.117  15.930  0.2688 -0.0250  0.0627
  414PEP     CB12879   8.231   2.559  15.782  0.2417 -0.2254  0.3539
  414PEP     CB12880   8.293   2.982  15.607 -0.2412  0.1466 -0.4333
  415PEP     CB12881   5.782  20.558   5.280 -0.3622 -0.1523  0.1840
  415PEP     CB12882   5.801  20.067   5.421  0.3947 -0.2494 -0.2666
  415PEP     CB12883   5.699  19.593   5.383  0.3317 -0.2565  0.1516
  415PEP     CB12884   5.735  19.311   5.122 -0.0414 -0.2535 -0.0110
  415PEP     CB12885   6.122  19.073   4.966 -0.1028  0.0542  0.0290
  415PEP     CB12886   6.302  19.015   4.540 -0.0903 -0.3252 -0.0980
  415PEP     CB12887   6.442  19.023   4.104 -0.2025 -0.1133  0.0872
  415PEP     CB12888   6.639  19.145   3.754  0.1776 -0.1477  0.5453
  415PEP     CB12889   6.947  19.319   3.426  0.2017 -0.0573  0.1017
  415PEP     CB12890   7.167  19.447   3.092 -0.3848 -0.0666  0.1978
  415PEP     CB12891   7.477  19.649   2.822  0.2638  0.2963  0.3276
  415PEP     CB12892   7.874  19.742   2.726  0.1459 -0.0638 -0.1561
  415PEP     CB12893   8.144  20.123   2.636 -0.0134 -0.2425  0.1343
  415PEP     CB12894   8.217  20.542   2.477  0.1735 -0.1952  0.1834
  415PEP     CB12895   7.830  20.899   2.322  0.2249  0.1600 -0.0792
  415PEP     CB12896   7.414  20.994   2.157 -0.0769 -0.0287  0.1288
  415PEP     CB12897   7.073  20.832   1.945  0.1155  0.1079  0.1334
  415PEP     CB12898   7.000  20.434   1.672 -0.1373  0.1895 -0.2468
  415PEP     CB12899   6.901  20.082   1.668 -0.2391 -0.2899  0.1224
  415PEP     CB12900   6.602  19.843   1.710  0.1120 -0.0697  0.1142
  415PEP     CB12901   6.456  19.634   2.072  0.4537 -0.1700  0.0637
  415PEP     CB12902   6.417  19.464   2.518  0.1629  0.5545  0.2717
  415PEP     CB12903   6.351  19.512   2.861  0.0058 -0.2726 -0.1181
  415PEP     CB12904   6.556  19.572   3.257  0.0090 -0.0982  0.0544
  415PEP     CB12905   6.395  19.602   3.640  0.0766  0.2740 -0.3905
  415PEP     CB12906   6.127  19.837   3.887 -0.3166  0.3733 -0.0804
  415PEP     CB12907   5.690  19.751   3.789  0.2769 -0.0905 -0.2840
  415PEP     CB12908   5.442  19.284   3.892 -0.0118 -0.2618  0.0451
  415PEP     CB12909   5.119  19.091   4.076 -0.0671 -0.1458  0.1215
  415PEP     CB12910   4.685  19.162   4.286  0.6364  0.0451 -0.0418
  415PEP     CB12911   4.392  19.505   4.512  0.1913 -0.1362 -0.0353
  415PEP     CB12912   4.430  19.756   4.899 -0.1131 -0.0737  0.4369
  415PEP     CB12913   4.760  19.822   5.322  0.1631  0.1694 -0.5160
  415PEP     CB12914   4.886  20.141   5.606 -0.1178 -0.1697 -0.1410
  415PEP     CB12915   5.139  20.292   5.892 -0.4453 -0.0200  0.2878
  415PEP     CB12916   5.374  20.386   6.326 -0.0464 -0.2359  0.1082
  415PEP     CB12917   5.742  20.608   6.630  0.1495  0.1788  0.3301
  415PEP     CB12918   5.743  20.914   6.898 -0.1335  0.3425  0.1112
  415PEP     CB12919   5.463  21.308   6.847 -0.0379  0.2109 -0.4504
  415PEP     CB12920   5.111  21.426   6.613 -0.3395 -0.3534 -0.2061
  416PEP     CB12921  15.313   7.622  21.106  0.0784  0.2590 -0.0048
  416PEP     CB12922  14.974   7.827  20.909  0.0295  0.0913 -0.0870
  416PEP     CB12923  14.839   7.969  20.490 -0.4566  0.0341 -0.1369
  416PEP     CB12924  14.633   8.107  20.136 -0.1475 -0.2974 -0.1522
  416PEP     CB12925  14.810   8.193  19.687  0.0955  0.1650 -0.1258
  416PEP     CB12926  14.968   8.529  19.456 -0.3669  0.0115  0.1208
  416PEP     CB12927  15.026   8.654  19.026  0.0614  0.5634  0.0605
  416PEP     CB12928  15.063   8.523  18.598  0.0173 -0.2328 -0.2288
  416PEP     CB12929  15.045   8.103  18.457  0.0088 -0.1308 -0.5312
  416PEP     CB12930  15.192   7.633  18.456 -0.1965  0.3806 -0.2865
  416PEP     CB12931  15.432   7.309  18.309  0.1134 -0.4137 -0.1924
  416PEP     CB12932  15.655   7.098  18.004 -0.2369 -0.0963 -0.3313
  416PEP     CB12933  16.014   6.862  18.079 -0.1193 -0.0567 -0.4898
  416PEP     CB12934  16.394   6.809  18.294 -0.1584  0.1325 -0.2698
  416PEP     CB12935  16.822   6.673  18.411  0.0509 -0.3072  0.0399
  416PEP     CB12936  16.979   6.218  18.438 -0.1067 -0.0723 -0.0037
  416PEP     CB12937  16.697   5.847  18.525  0.3387 -0.1321 -0.1965
  416PEP     CB12938  16.378   5.854  18.297  0.2004  0.0639 -0.0768
  416PEP     CB12939  16.210   6.061  17.929  0.0756  0.3354  0.0732
  416PEP     CB12940  15.774   6.011  17.757 -0.0855 -0.2077 -0.4043
  416PEP     CB12941  15.531   5.830  17.490  0.0078 -0.2110  0.3636
  416PEP     CB12942  15.368   5.842  17.073  0.0776 -0.1851  0.1083
  416PEP     CB12943  15.267   5.608  16.709 -0.1008  0.1592 -0.0299
  416PEP     CB12944  15.015   5.526  16.316  0.4038 -0.5409  0.2454
  416PEP     CB12945  14.987   5.347  15.962  0.0036 -0.0613  0.0755
  416PEP     CB12946  15.013   5.044  15.572 -0.0832  0.1180  0.0276
  416PEP     CB12947  15.154   4.901  15.203 -0.2071  0.0946  0.1122
  416PEP     CB12948  15.008   4.630  14.906  0.1564  0.3203 -0.2214
  416PEP     CB12949  14.584   4.762  14.740  0.0002 -0.2752 -0.0245
  416PEP     CB12950  14.276   4.907  14.388 -0.2479 -0.1763 -0.2397
  416PEP     CB12951  13.995   4.657  14.198 -0.3706 -0.3328  0.2184
  416PEP     CB12952  13.729   4.318  14.027  0.2337 -0.1495  0.2073
  416PEP     CB12953  13.442   4.142  13.667  0.1921 -0.3895 -0.0930
  416PEP     CB12954  13.012   4.093  13.540  0.0026 -0.2581  0.0459
  416PEP     CB12955  12.709   3.900  13.417  0.2060 -0.3679  0.4125
  416PEP     CB12956  12.493   3.588  13.484  0.2622  0.0270  0.3487
  416PEP     CB12957  12.563   3.226  13.798  0.0552 -0.0181 -0.1747
  416PEP     CB12958  12.682   3.385  14.262 -0.0849  0.2986  0.6010
  416PEP     CB12959  12.697   3.540  14.628 -0.0826 -0.0824 -0.0525
  416PEP     CB12960  12.551   3.763  14.999  0.2776 -0.2340  0.1362
  417PEP     CB12961  21.951  12.325   2.934  0.0066  0.2167 -0.0639
  417PEP     CB12962  21.760  12.703   3.103  0.1487  0.0871  0.3518
  417PEP     CB12963  21.858  12.995   3.360  0.1814 -0.4457  0.2910
  417PEP     CB12964  22.261  13.061   3.498 -0.0531  0.0060 -0.4058
  417PEP     CB12965  22.626  13.048   3.322  0.3532 -0.0846  0.0117
  417PEP     CB12966  23.111  13.058   3.195  0.0362 -0.3526  0.1706
  417PEP     CB12967  23.480  13.212   3.254 -0.2084  0.3622  0.0592
  417PEP     CB12968  23.719  13.240   3.689 -0.0268  0.0090  0.0369
  417PEP     CB12969  23.800  13.010   4.052  0.2623 -0.1557  0.0394
  417PEP     CB12970  24.049  13.121   4.366  0.2016  0.1330  0.0063
  417PEP     CB12971  24.467  13.424   4.292 -0.1655  0.3523  0.0336
  417PEP     CB12972  24.738  13.483   4.022 -0.2414 -0.3736 -0.3390
  417PEP     CB12973  24.927  13.217   3.724  0.2361 -0.0606  0.0533
  417PEP     CB12974  25.042  12.986   3.355 -0.0183  0.0848 -0.1259
  417PEP     CB12975  25.041  12.745   3.000  0.4641 -0.1409  0.2790
  417PEP     CB12976  25.024  12.364   3.145 -0.5486  0.0394  0.2421
  417PEP     CB12977  25.125  12.027   3.415 -0.0286 -0.2371 -0.3376
  417PEP     CB12978  25.297  11.786   3.787 -0.0263 -0.2041  0.4241
  417PEP     CB12979  25.414  11.638   4.133 -0.0145  0.1431 -0.2753
  417PEP     CB12980  25.611  11.662   4.557  0.0514  0.2234  0.0128
  417PEP     CB12981  26.015  11.852   4.751 -0.2399 -0.3183  0.1807
  417PEP     CB12982  26.446  12.000   4.616 -0.3422 -0.2177  0.2427
  417PEP     CB12983  26.884  12.033   4.519 -0.0227  0.0771  0.2492
  417PEP     CB12984  27.247  12.228   4.626 -0.0551 -0.0899 -0.1217
  417PEP     CB12985  27.650  12.256   4.866 -0.2167 -0.2012 -0.0857
  417PEP     CB12986  27.703  12.206   5.342 -0.1644  0.2870  0.1910
  417PEP     CB12987  27.352  12.158   5.586  0.1927  0.1222  0.2077
  417PEP     CB12988  27.113  11.941   5.913 -0.4869  0.3094 -0.0780
  417PEP     CB12989  26.731  11.854   6.208 -0.1213  0.0896  0.1275
  417PEP     CB12990  26.314  11.613   6.459 -0.2916  0.1714  0.2146
  417PEP     CB12991  26.014  11.414   6.746 -0.0886 -0.2849 -0.2290
  417PEP     CB12992  25.649  11.361   6.978  0.2152 -0.2081  0.1579
  417PEP     CB12993  25.737  11.608   7.376  0.2132 -0.0132  0.1039
  417PEP     CB12994  26.103  11.754   7.583  0.1197  0.2272  0.0721
  417PEP     CB12995  26.519  11.978   7.585  0.0041 -0.0906 -0.1405
  417PEP     CB12996  26.592  12.338   7.549  0.1928 -0.2184 -0.4826
  417PEP     CB12997  26.804  12.665   7.448  0.0269 -0.2399  0.0474
  417PEP     CB12998  26.979  12.944   7.666 -0.1088 -0.2682 -0.0801
  417PEP     CB12999  27.279  13.064   7.855 -0.0694 -0.1009 -0.2952
  417PEP     CB13000  27.553  13.380   7.705  0.5707  0.0165  0.2201
  418PEP     CB13001   7.444   9.822   6.400 -0.2276 -0.2074 -0.2973
  418PEP     CB13002   7.482   9.710   6.036  0.0235  0.4575  0.0593
  418PEP     CB13003   7.237   9.642   5.669 -0.3536  0.2584  0.4092
  418PEP     CB13004   6.880   9.582   5.299  0.2229  0.0923 -0.0555
  418PEP     CB13005   6.502   9.745   5.027 -0.1918  0.1487  0.1526
  418PEP     CB13006   6.148   9.832   4.775  0.1136 -0.0645 -0.1270
  418PEP     CB13007   5.835   9.698   4.468  0.1359  0.2739  0.7518
  418PEP     CB13008   5.454   9.434   4.343 -0.0217 -0.2124 -0.1627
  418PEP     CB13009   5.106   9.227   4.235 -0.0417  0.0553 -0.0641
  418PEP     CB13010   4.632   9.028   4.244  0.1306 -0.3754 -0.0358
  418PEP     CB13011   4.218   9.203   4.113 -0.1527  0.3962  0.2447
  418PEP     CB13012   3.891   9.465   4.082 -0.4352 -0.1980  0.3030
  418PEP     CB13013   3.557   9.655   4.291 -0.1005  0.0159 -0.3834
  418PEP     CB13014   3.357  10.101   4.457 -0.2541 -0.2268  0.0925
  418PEP     CB13015   3.274  10.405   4.075  0.0604  0.0745  0.0759
  418PEP     CB13016   3.268  10.164   3.657  0.1633 -0.0137 -0.0310
  418PEP     CB13017   3.446   9.787   3.490 -0.0974 -0.3392 -0.1015
  418PEP     CB13018   3.567   9.436   3.589 -0.3010 -0.0932 -0.1258
  418PEP     CB13019   4.051   9.305   3.585  0.1654  0.0778  0.0542
  418PEP     CB13020   4.258   9.189   3.194 -0.0716  0.0302 -0.1397
  418PEP     CB13021   4.178   9.324   2.777 -0.1692  0.4063 -0.1049
  418PEP     CB13022   4.179   9.656   2.516  0.2339 -0.2608  0.3937
  418PEP     CB13023   4.239   9.686   2.129 -0.1453  0.0021 -0.3191
  418PEP     CB13024   4.569   9.524   1.895 -0.1091 -0.0218  0.0012
  418PEP     CB13025   4.903   9.390   1.644 -0.4117  0.3720  0.1417
  418PEP     CB13026   5.370   9.389   1.534  0.1644  0.0476 -0.2501
  418PEP     CB13027   5.554   9.652   1.264  0.2886 -0.1890 -0.0062
  418PEP     CB13028   5.775   9.934   0.870 -0.1988  0.0411  0.0086
  418PEP     CB13029   5.929  10.371   0.845  0.1721 -0.3278 -0.0433
  418PEP     CB13030   6.118  10.596   1.092  0.0833 -0.2720 -0.1022
  418PEP     CB13031   6.084  10.946   1.259 -0.1885 -0.3176  0.4604
  418PEP     CB13032   6.087  11.179   1.572 -0.7149  0.1665  0.1885
  418PEP     CB13033   5.754  11.369   1.882  0.1421  0.2484  0.0197
  418PEP     CB13034   5.313  11.223   2.038 -0.1475  0.3495 -0.0780
  418PEP     CB13035   4.869  11.189   2.382 -0.3138 -0.4056 -0.2785
  418PEP     CB13036   4.537  11.024   2.738 -0.2946 -0.0089 -0.1018
  418PEP     CB13037   4.468  11.208   3.127 -0.2539 -0.0466 -0.0238
  418PEP     CB13038   4.734  11.478   3.344 -0.0602  0.1850  0.4047
  418PEP     CB13039   5.166  11.457   3.252 -0.4340  0.1272 -0.0483
  418PEP     CB13040   5.488  11.402   2.842 -0.2550 -0.3077 -0.2200
  419PEP     CB13041  21.047   0.729  14.799  0.0101 -0.1758 -0.1178
  419PEP     CB13042  21.275   1.028  14.996  0.4116 -0.3108  0.0404
  419PEP     CB13043  21.408   1.286  15.342  0.0542 -0.0969  0.1171
  419PEP     CB13044  21.289   1.447  15.718  0.3023  0.1462 -0.1457
  419PEP     CB13045  20.887   1.438  15.887  0.1508 -0.0153 -0.2663
  419PEP     CB13046  20.397   1.323  16.018 -0.2797 -0.2466  0.0310
  419PEP     CB13047  19.922   1.338  15.897  0.2315 -0.4369 -0.2849
  419PEP     CB13048  19.569   1.551  15.761 -0.0190  0.0051 -0.2044
  419PEP     CB13049  19.350   1.659  15.401 -0.2499  0.1291 -0.0184
  419PEP     CB13050  18.969   1.960  15.256 -0.1302 -0.1504  0.3497
  419PEP     CB13051  19.025   2.447  15.114  0.0419 -0.4064  0.2072
  419PEP     CB13052  19.268   2.692  14.879  0.6112 -0.0521 -0.2553
  419PEP     CB13053  19.317   3.106  14.780 -0.0823  0.1692 -0.1913
  419PEP     CB13054  19.493   3.530  14.897 -0.1963  0.0889 -0.0079
  419PEP     CB13055  19.848   3.723  14.751 -0.2352  0.1778 -0.0509
  419PEP     CB13056  20.070   4.102  14.739  0.0776  0.1649 -0.0347
  419PEP     CB13057  19.880   4.527  14.589 -0.0599  0.1105  0.3321
  419PEP     CB13058  19.812   4.836  14.215  0.0597 -0.5477  0.0601
  419PEP     CB13059  19.751   4.676  13.824  0.0748  0.0368  0.2328
  419PEP     CB13060  19.929   4.800  13.478  0.2341  0.1675  0.1960
  419PEP     CB13061  20.061   5.110  13.163  0.1644 -0.1398 -0.3442
  419PEP     CB13062  20.372   5.498  12.971  0.2404 -0.1892  0.2697
  419PEP     CB13063  20.459   5.860  12.709 -0.1031 -0.0943 -0.0224
  419PEP     CB13064  20.297   5.852  12.238  0.1055  0.1257 -0.0154
  419PEP     CB13065  20.472   5.659  11.901  0.5672  0.0736 -0.3029
  419PEP     CB13066  20.817   5.201  11.671 -0.1996 -0.2091  0.1698
  419PEP     CB13067  21.221   5.090  11.605 -0.4725  0.2014  0.1964
  419PEP     CB13068  21.381   5.445  11.372  0.0607  0.2723 -0.0053
  419PEP     CB13069  21.234   5.804  11.266 -0.1940 -0.4551 -0.0772
  419PEP     CB13070  21.032   6.151  11.067  0.3168  0.1180 -0.0864
  419PEP     CB13071  20.930   6.423  10.702  0.1109 -0.2561 -0.1569
  419PEP     CB13072  20.662   6.414  10.267  0.2271 -0.0812 -0.0294
  419PEP     CB13073  20.289   6.530  10.239 -0.0331  0.0133  0.2748
  419PEP     CB13074  20.025   6.541  10.597 -0.2837 -0.7653 -0.1205
  419PEP     CB13075  19.781   6.209  10.765 -0.0326  0.0033  0.1903
  419PEP     CB13076  19.648   5.954  10.436 -0.3455  0.6040 -0.3802
  419PEP     CB13077  19.931   5.936  10.171 -0.3315 -0.0209 -0.2430
  419PEP     CB13078  20.347   5.935  10.235  0.2780 -0.1040  0.0621
  419PEP     CB13079  20.475   6.025  10.661  0.1279  0.1031  0.1309
  419PEP     CB13080  20.419   5.763  10.989 -0.3142  0.2972 -0.2345
  420PEP     CB13081  12.517  17.492  15.212 -0.2367 -0.2081 -0.2857
  420PEP     CB13082  12.808  17.768  15.399  0.3060  0.4439 -0.0421
  420PEP     CB13083  13.135  18.042  15.436 -0.0421  0.2060  0.1824
  420PEP     CB13084  13.523  18.265  15.531 -0.1592  0.2617 -0.0895
  420PEP     CB13085  13.811  18.406  15.779 -0.0876  0.0096  0.2189
  420PEP     CB13086  13.781  18.592  16.183 -0.1801  0.4498  0.1469
  420PEP     CB13087  13.452  18.484  16.483 -0.1199 -0.1650 -0.2771
  420PEP     CB13088  13.157  18.120  16.429 -0.4315 -0.2938  0.1344
  420PEP     CB13089  13.116  17.769  16.339 -0.4623 -0.0400 -0.3399
  420PEP     CB13090  13.263  17.434  16.018 -0.1883  0.1880  0.1665
  420PEP     CB13091  13.695  17.239  15.829  0.2925  0.2976  0.0207
  420PEP     CB13092  14.013  16.883  15.773  0.0562 -0.1583  0.3212
  420PEP     CB13093  14.366  16.767  15.658 -0.3727  0.1954 -0.1044
  420PEP     CB13094  14.777  16.975  15.644 -0.1835  0.0428 -0.5739
  420PEP     CB13095  15.037  17.362  15.743 -0.3038  0.1953 -0.0064
  420PEP     CB13096  15.248  17.685  15.712 -0.0095  0.2033 -0.2243
  420PEP     CB13097  15.724  17.802  15.719 -0.1600 -0.4917 -0.1169
  420PEP     CB13098  16.017  18.147  15.721 -0.1503 -0.3349  0.2755
  420PEP     CB13099  16.233  18.423  15.567 -0.0952 -0.3619 -0.0050
  420PEP     CB13100  16.258  18.742  15.428  0.1149  0.0699 -0.1355
  420PEP     CB13101  16.241  19.151  15.166 -0.0690  0.1960 -0.4548
  420PEP     CB13102  16.195  19.325  14.914 -0.4596  0.0446 -0.2920
  420PEP     CB13103  16.297  19.635  14.633  0.0324 -0.1322  0.0443
  420PEP     CB13104  16.034  19.775  14.328  0.0904  0.0823  0.1981
  420PEP     CB13105  15.561  19.631  14.168 -0.1642 -0.0408  0.0929
  420PEP     CB13106  15.088  19.576  14.218  0.3316  0.1771 -0.1993
  420PEP     CB13107  14.782  19.454  13.869 -0.0838  0.0654  0.0869
  420PEP     CB13108  14.368  19.405  13.740 -0.1822  0.4943  0.0407
  420PEP     CB13109  14.016  19.135  13.725  0.1447 -0.2084 -0.2398
  420PEP     CB13110  13.875  18.786  14.046  0.1856  0.1518 -0.0417
  420PEP     CB13111  13.793  18.684  14.454  0.0661 -0.1097  0.2226
  420PEP     CB13112  13.693  18.322  14.771 -0.2937 -0.0974  0.0811
  420PEP     CB13113  13.789  18.102  15.154  0.0376  0.0401  0.0023
  420PEP     CB13114  13.884  17.732  15.268 -0.0218 -0.0765 -0.3984
  420PEP     CB13115  14.221  17.612  15.403  0.3105  0.1287  0.2039
  420PEP     CB13116  14.568  17.431  15.428 -0.1475  0.1562 -0.0486
  420PEP     CB13117  14.957  17.469  15.276  0.2293  0.0184 -0.1783
  420PEP     CB13118  15.362  17.620  15.218 -0.1741 -0.4489 -0.1667
  420PEP     CB13119  15.749  17.697  14.930  0.4991 -0.0351 -0.1924
  420PEP     CB13120  16.039  17.671  14.557 -0.2872 -0.1776  0.3694
  421PEP     CB13121   2.496  17.953  10.989 -0.3526 -0.3152  0.2492
  421PEP     CB13122   2.718  17.656  11.140  0.3207  0.2153 -0.1018
  421PEP     CB13123   2.736  17.339  11.486  0.0426  0.1600  0.1004
  421PEP     CB13124   2.754  17.131  11.834  0.2040  0.2279  0.0708
  421PEP     CB13125   2.972  16.700  11.940 -0.0117  0.0073 -0.3628
  421PEP     CB13126   3.340  16.477  12.042  0.3772  0.1590  0.2308
  421PEP     CB13127   3.559  16.191  12.130 -0.3867  0.0743 -0.0399
  421PEP     CB13128   3.840  15.946  12.030 -0.4099 -0.3027 -0.0088
  421PEP     CB13129   4.230  15.813  11.980 -0.3229 -0.1131 -0.3568
  421PEP     CB13130   4.447  15.959  11.591 -0.3355  0.1307 -0.3937
  421PEP     CB13131   4.480  16.320  11.383  0.1794  0.1846 -0.1885
  421PEP     CB13132   4.162  16.652  11.463  0.2926 -0.4520 -0.1898
  421PEP     CB13133   3.929  17.052  11.319  0.2166  0.7586  0.0121
  421PEP     CB13134   3.538  17.100  11.065 -0.0281 -0.1502 -0.2517
  421PEP     CB13135   3.326  17.449  10.821 -0.2634  0.1825  0.0222
  421PEP     CB13136   3.339  17.720  10.455 -0.0955  0.3037  0.6301
  421PEP     CB13137   3.649  17.658  10.115  0.2148 -0.4085 -0.3368
  421PEP     CB13138   3.790  17.603   9.725 -0.2149 -0.5070 -0.1232
  421PEP     CB13139   3.478  17.450   9.395 -0.1495 -0.1602  0.0074
  421PEP     CB13140   3.025  17.376   9.528  0.0549  0.0270  0.5396
  421PEP     CB13141   2.804  17.242   9.997 -0.1809 -0.1245 -0.1591
  421PEP     CB13142   3.134  17.216  10.358  0.2146 -0.4899 -0.0209
  421PEP     CB13143   3.574  17.244  10.337  0.3895  0.0713 -0.1621
  421PEP     CB13144   3.921  17.244  10.140  0.1704  0.2797 -0.0877
  421PEP     CB13145   4.254  16.969   9.964 -0.0883 -0.2626  0.2456
  421PEP     CB13146   4.376  16.751   9.580 -0.1850  0.2733  0.0357
  421PEP     CB13147   4.621  16.473   9.468 -0.0660 -0.1449 -0.0913
  421PEP     CB13148   5.046  16.228   9.490 -0.1348  0.4251  0.0165
  421PEP     CB13149   5.368  16.316   9.778  0.1659  0.1919  0.0475
  421PEP     CB13150   5.329  16.558  10.164  0.0792 -0.1479 -0.0788
  421PEP     CB13151   5.153  16.835  10.324 -0.4276  0.0270  0.0510
  421PEP     CB13152   4.833  17.269  10.358 -0.5073  0.0297 -0.0533
  421PEP     CB13153   4.781  17.559  10.689 -0.2120  0.0855  0.0838
  421PEP     CB13154   4.905  17.417  11.118  0.1356 -0.1554  0.1723
  421PEP     CB13155   4.925  17.073  11.425 -0.0645  0.2758  0.1400
  421PEP     CB13156   4.758  16.681  11.616 -0.4210 -0.0646  0.2189
  421PEP     CB13157   4.780  16.309  11.857  0.1010 -0.0631 -0.0206
  421PEP     CB13158   4.653  16.095  12.237 -0.1167  0.3850  0.2078
  421PEP     CB13159   4.639  15.791  12.557 -0.0341 -0.2487  0.0129
  421PEP     CB13160   4.783  15.468  12.735  0.0314  0.0928 -0.2760
  422PEP     CB13161   2.397  15.185   7.435 -0.3905 -0.1932  0.0550
  422PEP     CB13162   2.293  15.346   7.055 -0.3702  0.3781 -0.2421
  422PEP     CB13163   2.334  15.428   6.677 -0.0170 -0.3369  0.2096
  422PEP     CB13164   2.505  15.641   6.305 -0.1203  0.1425 -0.1211
  422PEP     CB13165   2.443  15.630   5.836 -0.1436  0.1152  0.1689
  422PEP     CB13166   2.168  15.660   5.450  0.0113  0.0156  0.0526
  422PEP     CB13167   1.984  15.575   5.088 -0.2453  0.0829  0.0816
  422PEP     CB13168   1.831  15.944   4.823 -0.2487  0.1374 -0.1286
  422PEP     CB13169   1.403  16.087   4.923 -0.3126 -0.2575  0.7320
  422PEP     CB13170   1.008  15.938   5.131 -0.0368 -0.0192  0.0372
  422PEP     CB13171   0.614  15.916   5.098 -0.2573 -0.1953  0.1409
  422PEP     CB13172   0.174  16.066   4.937  0.1754 -0.0665 -0.3099
  422PEP     CB13173  -0.079  16.363   5.125 -0.1435 -0.1755 -0.2738
  422PEP     CB13174   0.055  16.733   5.332  0.2754 -0.0343 -0.3196
  422PEP     CB13175  -0.012  17.074   5.027  0.4379  0.0484 -0.1146
  422PEP     CB13176   0.058  17.481   4.851 -0.2159 -0.1410  0.2294
  422PEP     CB13177   0.060  17.832   4.482  0.1911 -0.1550  0.3167
  422PEP     CB13178   0.189  18.148   4.166  0.0248 -0.0298  0.1943
  422PEP     CB13179   0.393  18.390   3.732 -0.0151 -0.3567  0.0202
  422PEP     CB13180   0.498  18.296   3.377  0.2195  0.1775  0.1496
  422PEP     CB13181   0.529  17.844   3.247  0.1263 -0.2160  0.2701
  422PEP     CB13182   0.701  17.472   3.500 -0.1611  0.2681 -0.2189
  422PEP     CB13183   0.610  17.266   3.819 -0.0416 -0.2235  0.1740
  422PEP     CB13184   0.249  17.120   3.925  0.0851 -0.2183  0.1217
  422PEP     CB13185  -0.186  17.260   3.629  0.0667 -0.7513  0.0242
  422PEP     CB13186  -0.238  17.710   3.508 -0.2479 -0.2934 -0.0525
  422PEP     CB13187  -0.107  18.072   3.779 -0.0671 -0.0776  0.3412
  422PEP     CB13188  -0.298  18.248   4.188 -0.1100  0.1687 -0.2494
  422PEP     CB13189  -0.555  18.019   4.554  0.0313  0.3814  0.1239
  422PEP     CB13190  -0.702  17.504   4.585 -0.1560 -0.2756  0.0188
  422PEP     CB13191  -0.697  17.212   4.239  0.0008 -0.5257 -0.1153
  422PEP     CB13192  -0.636  17.364   3.811  0.2901  0.0102 -0.0946
  422PEP     CB13193  -0.638  17.362   3.325 -0.2074 -0.0887 -0.2261
  422PEP     CB13194  -0.260  17.160   3.102  0.1984  0.0255 -0.1519
  422PEP     CB13195  -0.120  16.777   3.030 -0.1612 -0.2051 -0.1014
  422PEP     CB13196   0.057  16.490   3.233 -0.2171 -0.2276 -0.0191
  422PEP     CB13197   0.031  16.136   3.403  0.2479  0.0766 -0.2805
  422PEP     CB13198  -0.180  15.741   3.546  0.0480 -0.0928  0.1808
  422PEP     CB13199  -0.675  15.564   3.451 -0.2129 -0.0404  0.2345
  422PEP     CB13200  -0.998  15.342   3.306 -0.1508  0.2083 -0.0285
  423PEP     CB13201  13.006   7.060  21.301  0.1487 -0.1459  0.3065
  423PEP     CB13202  13.310   6.866  21.489 -0.1828  0.0010 -0.1166
  423PEP     CB13203  13.609   6.684  21.749  0.1902 -0.0917  0.2337
  423PEP     CB13204  13.864   6.425  22.013 -0.0551  0.2929 -0.0928
  423PEP     CB13205  14.347   6.383  22.212 -0.5426 -0.2324 -0.2073
  423PEP     CB13206  14.869   6.245  22.160  0.3276 -0.1650 -0.4940
  423PEP     CB13207  15.294   5.965  22.354 -0.1447 -0.3048 -0.0904
  423PEP     CB13208  15.386   5.853  22.747 -0.3359  0.1946 -0.1770
  423PEP     CB13209  15.479   6.229  23.068 -0.2103  0.0210 -0.0571
  423PEP     CB13210  15.675   6.700  23.004 -0.0793 -0.0061 -0.2867
  423PEP     CB13211  15.902   7.039  22.776 -0.1414  0.1534 -0.0891
  423PEP     CB13212  16.085   7.452  22.502  0.4542  0.1139  0.2268
  423PEP     CB13213  16.024   7.825  22.428  0.1755  0.0254 -0.1243
  423PEP     CB13214  15.824   8.091  22.517  0.2776 -0.0053 -0.3796
  423PEP     CB13215  15.657   8.291  22.828  0.2575 -0.2542  0.1454
  423PEP     CB13216  15.208   8.369  22.930  0.0533 -0.0509 -0.3143
  423PEP     CB13217  14.812   8.466  22.762  0.4325  0.0063 -0.2697
  423PEP     CB13218  14.669   8.820  22.702  0.1693  0.2257  0.4524
  423PEP     CB13219  14.909   9.036  22.361 -0.2565  0.2201  0.3691
  423PEP     CB13220  15.086   9.288  22.055  0.0069 -0.6537 -0.1654
  423PEP     CB13221  15.372   9.518  21.898 -0.1432  0.2231  0.2700
  423PEP     CB13222  15.639   9.713  21.580 -0.0591  0.0061 -0.3271
  423PEP     CB13223  16.047   9.968  21.519 -0.0726  0.0948 -0.1862
  423PEP     CB13224  16.448  10.173  21.432 -0.0401  0.0771  0.1473
  423PEP     CB13225  16.775  10.496  21.543 -0.0366  0.1103 -0.1655
  423PEP     CB13226  16.950  10.537  21.973  0.1365 -0.2968 -0.0071
  423PEP     CB13227  16.886  10.601  22.373  0.0425 -0.3732 -0.1390
  423PEP     CB13228  16.747  10.481  22.672  0.1615 -0.4166  0.3712
  423PEP     CB13229  16.358  10.504  22.996  0.1938 -0.0366  0.1442
  423PEP     CB13230  16.149  10.490  23.266 -0.4915  0.4113  0.0553
  423PEP     CB13231  15.834  10.380  23.569 -0.2832  0.1267 -0.0962
  423PEP     CB13232  16.002  10.335  24.003 -0.2835  0.0835 -0.2685
  423PEP     CB13233  16.281  10.132  24.223  0.2376  0.1028 -0.1746
  423PEP     CB13234  16.388   9.766  24.351 -0.3696 -0.2270 -0.1669
  423PEP     CB13235  16.655   9.482  24.661  0.1538  0.4380  0.0028
  423PEP     CB13236  16.885   9.251  25.001 -0.1930 -0.2916 -0.4279
  423PEP     CB13237  17.169   9.035  25.282  0.1760  0.1038 -0.2416
  423PEP     CB13238  17.508   8.672  25.431  0.3157 -0.0989  0.0091
  423PEP     CB13239  17.826   8.320  25.257 -0.0756  0.4107 -0.0460
  423PEP     CB13240  18.222   8.374  25.170 -0.1905  0.0410  0.2601
  424PEP     CB13241  19.721  11.909  11.120  0.0381  0.0533 -0.2622
  424PEP     CB13242  19.796  12.403  11.065 -0.2962 -0.0786  0.2068
  424PEP     CB13243  19.859  12.722  10.784  0.2262 -0.0008  0.5812
  424PEP     CB13244  19.576  13.038  10.543  0.1584 -0.0082  0.2156
  424PEP     CB13245  19.425  13.476  10.593 -0.0541  0.0671 -0.0964
  424PEP     CB13246  19.576  13.849  10.741 -0.0277  0.1535 -0.0485
  424PEP     CB13247  19.757  14.069  11.083  0.0073  0.3435  0.2553
  424PEP     CB13248  20.041  14.113  11.388 -0.4048 -0.3472 -0.4799
  424PEP     CB13249  20.430  14.256  11.695 -0.1815 -0.2193 -0.2460
  424PEP     CB13250  20.836  14.565  11.892 -0.0930 -0.0751  0.2346
  424PEP     CB13251  21.091  14.729  12.212 -0.1659 -0.0801  0.5693
  424PEP     CB13252  21.461  14.667  12.418 -0.4891 -0.1291 -0.2359
  424PEP     CB13253  21.678  14.795  12.768 -0.0143  0.1248 -0.1312
  424PEP     CB13254  21.825  14.646  13.235  0.0979 -0.1283  0.2223
  424PEP     CB13255  22.090  14.528  13.618 -0.0348  0.0242  0.2252
  424PEP     CB13256  22.515  14.559  13.780  0.2618 -0.1998 -0.0261
  424PEP     CB13257  22.918  14.376  13.525  0.0250  0.1198 -0.3735
  424PEP     CB13258  23.099  14.649  13.101 -0.2987 -0.2634 -0.0243
  424PEP     CB13259  22.857  14.686  12.708 -0.2796  0.1997 -0.2014
  424PEP     CB13260  22.410  14.495  12.467  0.1832  0.1167  0.0029
  424PEP     CB13261  21.969  14.655  12.345 -0.2444  0.1706 -0.2342
  424PEP     CB13262  21.765  15.002  12.200 -0.1995 -0.3859  0.0234
  424PEP     CB13263  21.969  15.467  12.242  0.3899  0.2619 -0.0051
  424PEP     CB13264  22.368  15.496  12.451  0.3932 -0.6827  0.0658
  424PEP     CB13265  22.531  15.250  12.828  0.2534 -0.0310  0.2816
  424PEP     CB13266  22.289  14.764  12.901  0.0117  0.0183  0.1047
  424PEP     CB13267  21.998  14.399  12.777  0.6525  0.3473  0.1351
  424PEP     CB13268  21.686  14.158  12.917 -0.0039 -0.1195  0.0396
  424PEP     CB13269  21.475  13.844  12.750  0.3706 -0.0120 -0.0681
  424PEP     CB13270  21.379  13.784  12.294  0.4127  0.3519 -0.0096
  424PEP     CB13271  21.218  13.556  11.900  0.0773  0.0946 -0.3288
  424PEP     CB13272  20.998  13.525  11.487 -0.2347  0.1826  0.1051
  424PEP     CB13273  20.772  13.391  11.143  0.0884 -0.4477 -0.1097
  424PEP     CB13274  20.632  13.383  10.750  0.0144  0.1474 -0.0136
  424PEP     CB13275  20.310  13.404  10.397  0.1380  0.0509  0.2473
  424PEP     CB13276  19.848  13.517  10.252  0.0811 -0.2230 -0.1321
  424PEP     CB13277  19.516  13.823  10.208  0.2354  0.0763  0.1242
  424PEP     CB13278  19.558  14.257  10.304  0.1822  0.0039  0.0443
  424PEP     CB13279  19.866  14.633  10.433  0.2910 -0.1425  0.2080
  424PEP     CB13280  20.041  14.982  10.240 -0.1408  0.0888 -0.2974
  425PEP     CB13281   7.031   8.777  20.993 -0.0342  0.0629 -0.3053
  425PEP     CB13282   7.198   8.585  21.377 -0.0629 -0.1346 -0.2307
  425PEP     CB13283   7.577   8.663  21.590  0.1229 -0.0766 -0.1548
  425PEP     CB13284   7.787   8.976  21.733 -0.1113 -0.0558 -0.3149
  425PEP     CB13285   7.909   9.141  22.125 -0.2260  0.1503 -0.1118
  425PEP     CB13286   8.232   8.937  22.424 -0.2135  0.0976 -0.1930
  425PEP     CB13287   8.352   8.549  22.548 -0.2006 -0.2793 -0.0026
  425PEP     CB13288   8.078   8.263  22.444 -0.0161  0.0605  0.1276
  425PEP     CB13289   7.666   8.247  22.642 -0.0739  0.4424 -0.2136
  425PEP     CB13290   7.341   8.435  22.848 -0.2230  0.1882 -0.1457
  425PEP     CB13291   7.181   8.641  23.241 -0.0179 -0.4218  0.0670
  425PEP     CB13292   7.021   9.068  23.327 -0.3045 -0.1300  0.0289
  425PEP     CB13293   6.997   9.430  23.025 -0.1332 -0.0039  0.1917
  425PEP     CB13294   6.933   9.833  22.752  0.4461  0.0980 -0.0742
  425PEP     CB13295   6.990  10.252  22.663 -0.3600  0.0338  0.0184
  425PEP     CB13296   6.792  10.571  22.511 -0.2042  0.2580 -0.2986
  425PEP     CB13297   6.442  10.885  22.597 -0.3203 -0.1364  0.0658
  425PEP     CB13298   6.012  10.943  22.686 -0.5187  0.0190 -0.6284
  425PEP     CB13299   5.656  10.817  22.619  0.1626 -0.1031 -0.1099
  425PEP     CB13300   5.305  11.025  22.743 -0.2171  0.0279  0.1572
  425PEP     CB13301   5.052  11.345  22.708 -0.1929  0.2354 -0.4479
  425PEP     CB13302   4.859  11.662  22.387  0.0332 -0.0935  0.1288
  425PEP     CB13303   4.858  11.918  22.017  0.1750  0.0711  0.4071
  425PEP     CB13304   4.905  11.968  21.643 -0.0024 -0.1034  0.0701
  425PEP     CB13305   5.043  11.886  21.281  0.1396 -0.1145 -0.0389
  425PEP     CB13306   5.192  11.581  20.940 -0.1521  0.1401  0.0547
  425PEP     CB13307   5.562  11.556  20.774  0.0099 -0.1998  0.3922
  425PEP     CB13308   5.923  11.627  21.063 -0.1231  0.0487 -0.1302
  425PEP     CB13309   6.099  11.969  21.326  0.1719  0.3148 -0.3390
  425PEP     CB13310   6.021  12.219  21.633  0.1874 -0.0208  0.3419
  425PEP     CB13311   6.112  12.618  21.654  0.1412  0.2072 -0.1827
  425PEP     CB13312   6.088  12.862  21.359  0.1392  0.4370  0.0793
  425PEP     CB13313   6.057  12.897  21.028 -0.0363  0.3105 -0.1216
  425PEP     CB13314   5.866  13.154  20.692 -0.0611 -0.0336  0.1843
  425PEP     CB13315   5.560  13.535  20.744 -0.0899 -0.1022  0.0409
  425PEP     CB13316   5.598  13.846  20.983 -0.0066  0.2782  0.2850
  425PEP     CB13317   6.055  13.872  21.214  0.1058  0.0402 -0.2391
  425PEP     CB13318   6.469  13.632  21.389 -0.1061 -0.5661  0.1328
  425PEP     CB13319   6.639  13.222  21.490 -0.1379 -0.1943  0.2014
  425PEP     CB13320   6.519  12.881  21.611  0.2504  0.0198  0.2189
  426PEP     CB13321   2.664   0.442   1.751 -0.1180 -0.2880 -0.1956
  426PEP     CB13322   2.532   0.266   1.406 -0.0617  0.1599 -0.1786
  426PEP     CB13323   2.526   0.229   0.963 -0.1050 -0.0089  0.2434
  426PEP     CB13324   2.286   0.171   0.519  0.0892 -0.2405  0.2384
  426PEP     CB13325   2.027  -0.148   0.273 -0.2322  0.5901 -0.0654
  426PEP     CB13326   2.035  -0.199  -0.151 -0.2623  0.5225  0.2166
  426PEP     CB13327   2.249  -0.383  -0.531  0.1043  0.2254  0.0739
  426PEP     CB13328   2.210  -0.582  -0.814  0.0746 -0.0279 -0.0484
  426PEP     CB13329   2.165  -0.898  -1.050 -0.0531 -0.5051 -0.0027
  426PEP     CB13330   2.173  -1.331  -1.214  0.0388  0.0958 -0.0704
  426PEP     CB13331   1.808  -1.478  -1.275 -0.2505  0.1157 -0.2094
  426PEP     CB13332   1.349  -1.263  -1.299 -0.4702  0.1438  0.2962
  426PEP     CB13333   1.113  -0.823  -1.187 -0.4632  0.2067  0.0687
  426PEP     CB13334   0.987  -0.422  -1.262 -0.0350  0.1804 -0.2879
  426PEP     CB13335   1.064   0.061  -1.366 -0.1771  0.0225 -0.1585
  426PEP     CB13336   1.019   0.479  -1.410 -0.0673  0.0257 -0.3652
  426PEP     CB13337   1.077   0.908  -1.561  0.2047 -0.2598 -0.0879
  426PEP     CB13338   0.868   1.160  -1.804  0.0242 -0.2811 -0.2743
  426PEP     CB13339   0.684   1.561  -2.096 -0.0840  0.0533  0.0327
  426PEP     CB13340   0.664   1.925  -2.191  0.1575  0.3343 -0.2027
  426PEP     CB13341   0.818   2.235  -2.504 -0.2666 -0.3274 -0.3084
  426PEP     CB13342   1.227   2.415  -2.596  0.2498 -0.0559  0.0110
  426PEP     CB13343   1.595   2.261  -2.573 -0.1101 -0.0105  0.0761
  426PEP     CB13344   1.793   1.895  -2.334 -0.3103  0.1612 -0.3189
  426PEP     CB13345   1.587   1.429  -2.342  0.1316 -0.2038 -0.1213
  426PEP     CB13346   1.241   1.278  -2.364 -0.5111 -0.1148 -0.0547
  426PEP     CB13347   0.791   1.148  -2.299  0.2915  0.2173 -0.1279
  426PEP     CB13348   0.542   1.160  -2.622  0.0928  0.1962 -0.3163
  426PEP     CB13349   0.446   1.534  -2.854 -0.1267  0.1925  0.1195
  426PEP     CB13350   0.637   1.919  -2.874 -0.1297  0.0698  0.0260
  426PEP     CB13351   1.083   2.015  -2.868 -0.2196  0.4476 -0.1018
  426PEP     CB13352   1.345   1.969  -3.242  0.1182 -0.0860 -0.4072
  426PEP     CB13353   1.241   1.818  -3.614  0.0643 -0.0263  0.3531
  426PEP     CB13354   0.871   1.593  -3.751  0.3479 -0.1307  0.1114
  426PEP     CB13355   0.566   1.271  -3.882 -0.1877 -0.1079 -0.2349
  426PEP     CB13356   0.585   0.975  -4.221  0.3372 -0.0030 -0.1408
  426PEP     CB13357   0.619   0.614  -4.500 -0.0779 -0.0257 -0.0420
  426PEP     CB13358   0.799   0.251  -4.573  0.3228  0.1707 -0.0211
  426PEP     CB13359   1.128  -0.034  -4.710 -0.1684 -0.1944  0.1348
  426PEP     CB13360   1.209  -0.239  -5.068 -0.4343 -0.3111 -0.4347
  427PEP     CB13361   5.241  15.655  13.990 -0.3274  0.0053  0.0289
  427PEP     CB13362   4.873  15.997  14.137  0.0868  0.3034  0.0291
  427PEP     CB13363   4.477  16.022  14.185  0.0751 -0.0360 -0.3871
  427PEP     CB13364   4.084  16.192  13.916 -0.1475 -0.4773  0.1046
  427PEP     CB13365   3.795  16.184  13.514  0.0606  0.0842  0.0186
  427PEP     CB13366   3.567  16.364  13.080  0.3682  0.1279 -0.1349
  427PEP     CB13367   3.262  16.562  12.789  0.2367 -0.1042 -0.1828
  427PEP     CB13368   3.063  16.708  12.454 -0.0794 -0.1332  0.1228
  427PEP     CB13369   2.882  17.107  12.297 -0.0814  0.3736 -0.5348
  427PEP     CB13370   2.858  17.539  12.434  0.1028 -0.2853 -0.1853
  427PEP     CB13371   2.750  18.051  12.382 -0.0071  0.2872  0.1177
  427PEP     CB13372   2.461  18.341  12.542 -0.0978 -0.3153 -0.0834
  427PEP     CB13373   2.063  18.507  12.374 -0.1345  0.0155  0.2769
  427PEP     CB13374   2.042  18.580  12.034 -0.2719 -0.2649  0.2398
  427PEP     CB13375   2.125  18.362  11.694  0.1205 -0.4420 -0.2483
  427PEP     CB13376   2.346  17.987  11.654  0.1350 -0.1352 -0.2828
  427PEP     CB13377   2.728  17.722  11.912  0.0461  0.0117  0.0599
  427PEP     CB13378   3.189  17.762  11.668  0.1993  0.1680 -0.0582
  427PEP     CB13379   3.199  17.788  11.260  0.4461 -0.0246 -0.0128
  427PEP     CB13380   3.179  17.922  10.877 -0.0276 -0.4582  0.1820
  427PEP     CB13381   2.917  17.695  10.650 -0.2638 -0.0415 -0.2684
  427PEP     CB13382   2.814  17.166  10.726 -0.0040  0.3319 -0.0671
  427PEP     CB13383   2.789  16.952  11.086  0.0345 -0.2341 -0.0380
  427PEP     CB13384   3.102  17.060  11.468  0.2725 -0.0987  0.2464
  427PEP     CB13385   3.341  17.337  11.539 -0.2052 -0.0398  0.0580
  427PEP     CB13386   3.650  17.537  11.322  0.0938  0.2128  0.0023
  427PEP     CB13387   4.021  17.452  11.022 -0.1831  0.2411  0.5196
  427PEP     CB13388   4.383  17.667  10.936 -0.1762 -0.0750 -0.2539
  427PEP     CB13389   4.401  18.092  10.919  0.2759 -0.6496  0.0560
  427PEP     CB13390   4.576  18.513  10.913 -0.5867  0.0845  0.0855
  427PEP     CB13391   4.571  18.876  11.084 -0.1627  0.0437 -0.2015
  427PEP     CB13392   4.678  19.344  11.173 -0.0855 -0.0180 -0.2207
  427PEP     CB13393   4.625  19.849  11.116  0.1777  0.2727  0.2316
  427PEP     CB13394   4.620  20.252  10.956 -0.0667  0.1198 -0.3876
  427PEP     CB13395   4.753  20.716  10.815  0.1618  0.1910  0.1539
  427PEP     CB13396   4.946  20.991  10.529  0.3629  0.0072 -0.2283
  427PEP     CB13397   5.186  20.907  10.180 -0.3684 -0.0392 -0.1866
  427PEP     CB13398   5.275  20.625   9.754  0.4110 -0.0097 -0.3064
  427PEP     CB13399   5.410  20.400   9.385 -0.0583 -0.3923 -0.0098
  427PEP     CB13400   5.500  20.055   9.158 -0.0003  0.0747 -0.1192
  428PEP     CB13401  18.396   9.614   7.467  0.2081 -0.2276  0.4704
  428PEP     CB13402  18.693   9.515   7.572  0.1396  0.0156 -0.1336
  428PEP     CB13403  19.052   9.609   7.446 -0.5262 -0.0459  0.0230
  428PEP     CB13404  19.429   9.408   7.515  0.4034 -0.0120 -0.1326
  428PEP     CB13405  19.610   9.158   7.952 -0.2162 -0.1269  0.0272
  428PEP     CB13406  19.420   9.220   8.380 -0.0824 -0.0506  0.0204
  428PEP     CB13407  19.163   9.528   8.655 -0.1735  0.2541 -0.2023
  428PEP     CB13408  19.286   9.621   9.148  0.0109  0.0750  0.2225
  428PEP     CB13409  19.618   9.627   9.274 -0.0145  0.0639 -0.1392
  428PEP     CB13410  19.842   9.704   9.707 -0.2182  0.1898  0.2911
  428PEP     CB13411  20.041   9.380   9.882 -0.3065  0.0840 -0.0278
  428PEP     CB13412  19.992   9.028  10.141  0.0961 -0.1559 -0.2608
  428PEP     CB13413  19.692   8.857  10.444  0.0319 -0.2171 -0.1053
  428PEP     CB13414  19.400   8.983  10.798  0.0048 -0.1139  0.1098
  428PEP     CB13415  19.065   8.887  11.130  0.4103 -0.3948  0.2100
  428PEP     CB13416  18.708   8.829  11.104  0.0390  0.3361 -0.1174
  428PEP     CB13417  18.309   8.876  10.942  0.0543  0.1223  0.2671
  428PEP     CB13418  17.887   8.801  10.765 -0.1961 -0.2371  0.0280
  428PEP     CB13419  17.604   8.435  10.843  0.2171  0.2041  0.3518
  428PEP     CB13420  17.650   8.044  10.936 -0.0124  0.0945  0.0914
  428PEP     CB13421  17.787   7.721  11.277 -0.1453  0.0418 -0.1736
  428PEP     CB13422  17.741   7.301  11.179  0.1848  0.0817 -0.1100
  428PEP     CB13423  17.712   6.919  11.299  0.0593 -0.2498  0.5527
  428PEP     CB13424  18.046   6.786  11.606 -0.3149 -0.2990  0.0633
  428PEP     CB13425  18.279   6.920  11.969  0.2282  0.2755  0.2579
  428PEP     CB13426  18.590   7.156  12.209 -0.0997  0.0812 -0.1837
  428PEP     CB13427  19.029   7.154  12.469 -0.0861 -0.6683  0.1921
  428PEP     CB13428  19.242   7.119  12.932 -0.3186 -0.1828  0.1658
  428PEP     CB13429  19.551   7.006  13.186  0.1521  0.2061  0.1423
  428PEP     CB13430  19.801   7.027  13.586  0.2835  0.0377 -0.2909
  428PEP     CB13431  20.004   7.178  14.017 -0.1077 -0.1916 -0.2300
  428PEP     CB13432  20.405   7.289  14.182  0.0358  0.2676 -0.0396
  428PEP     CB13433  20.593   7.386  14.552 -0.1093  0.0403  0.0002
  428PEP     CB13434  20.913   7.214  14.709 -0.4712 -0.0586 -0.2879
  428PEP     CB13435  21.048   6.795  14.634 -0.0226 -0.2367  0.2992
  428PEP     CB13436  21.255   6.493  14.741  0.3158  0.1115 -0.3878
  428PEP     CB13437  21.287   6.040  14.809  0.4286  0.1364 -0.0888
  428PEP     CB13438  20.968   5.761  14.960  0.2828 -0.5045  0.0344
  428PEP     CB13439  20.484   5.657  14.931  0.1854  0.0955 -0.4216
  428PEP     CB13440  20.049   5.888  14.807 -0.0461  0.1051 -0.3830
  429PEP     CB13441   9.111  19.411   4.124 -0.2819  0.2563 -0.1294
  429PEP     CB13442   9.461  19.514   4.148 -0.3943 -0.1672 -0.1816
  429PEP     CB13443   9.857  19.745   4.291 -0.3734  0.2609 -0.1152
  429PEP     CB13444   9.924  20.205   4.119 -0.3338  0.0428 -0.1908
  429PEP     CB13445   9.890  20.261   3.667 -0.0534 -0.2160 -0.0075
  429PEP     CB13446   9.663  20.069   3.329 -0.1345 -0.1410  0.3111
  429PEP     CB13447   9.386  20.173   2.982  0.1597  0.2320 -0.0440
  429PEP     CB13448   9.247  20.329   2.669  0.0369 -0.2308 -0.1466
  429PEP     CB13449   9.211  20.743   2.516 -0.0148 -0.3360  0.1507
  429PEP     CB13450   9.435  21.080   2.404  0.0313 -0.3237 -0.0861
  429PEP     CB13451   9.625  21.316   2.686 -0.1121  0.2214 -0.0865
  429PEP     CB13452   9.585  21.278   3.161 -0.1026 -0.0783 -0.4462
  429PEP     CB13453   9.617  20.956   3.412 -0.2591 -0.2125 -0.2251
  429PEP     CB13454   9.956  20.706   3.314  0.2501  0.1512  0.5474
  429PEP     CB13455  10.065  20.214   3.130 -0.3387 -0.3185 -0.3041
  429PEP     CB13456   9.944  19.856   2.875 -0.0228  0.0252 -0.1616
  429PEP     CB13457   9.496  19.819   2.644  0.0115  0.0288 -0.1895
  429PEP     CB13458   9.159  19.661   2.343 -0.0012 -0.0395  0.1247
  429PEP     CB13459   8.995  19.356   2.105  0.1144  0.2280  0.1090
  429PEP     CB13460   9.062  18.864   2.157  0.0684  0.1224  0.2206
  429PEP     CB13461   9.406  18.568   2.263  0.0997 -0.5438 -0.0071
  429PEP     CB13462   9.728  18.377   2.239 -0.0201 -0.0919  0.0676
  429PEP     CB13463  10.161  18.195   2.373  0.2226  0.3043 -0.1636
  429PEP     CB13464  10.550  18.131   2.634  0.1234  0.0748 -0.2068
  429PEP     CB13465  10.700  18.219   3.046  0.2022  0.1470  0.0538
  429PEP     CB13466  10.885  18.368   3.427 -0.4472  0.2765 -0.1147
  429PEP     CB13467  10.794  18.270   3.931 -0.0222  0.0156  0.1420
  429PEP     CB13468  10.847  18.433   4.362  0.0233  0.3262  0.3251
  429PEP     CB13469  10.682  18.620   4.765 -0.1592  0.3112  0.2276
  429PEP     CB13470  10.759  18.913   5.154  0.2508  0.1412  0.0349
  429PEP     CB13471  11.150  19.169   5.215  0.0113 -0.2611  0.0089
  429PEP     CB13472  11.485  19.019   4.895 -0.0062 -0.2109  0.1742
  429PEP     CB13473  11.575  18.939   4.416 -0.1730  0.0216  0.2478
  429PEP     CB13474  11.655  18.965   4.000  0.2483 -0.0569 -0.3042
  429PEP     CB13475  11.930  18.875   3.586  0.1941  0.1463  0.0476
  429PEP     CB13476  12.292  18.906   3.305 -0.1598 -0.3663  0.1029
  429PEP     CB13477  12.538  18.769   3.045  0.0745  0.2343 -0.2332
  429PEP     CB13478  13.026  18.610   2.917 -0.2591 -0.3546 -0.0845
  429PEP     CB13479  13.461  18.658   3.023 -0.1405 -0.0264 -0.4477
  429PEP     CB13480  13.763  18.810   3.201 -0.0774 -0.0533  0.2934
  430PEP     CB13481  13.204  13.448   0.175 -0.2635  0.0338 -0.2660
  430PEP     CB13482  13.152  13.505  -0.267  0.1095 -0.2470  0.0187
  430PEP     CB13483  12.909  13.589  -0.662  0.0687  0.1562 -0.0039
  430PEP     CB13484  12.476  13.778  -0.827  0.0153 -0.1932 -0.2366
  430PEP     CB13485  12.002  13.704  -0.997 -0.4299 -0.3027  0.2938
  430PEP     CB13486  11.830  13.447  -1.327 -0.1009  0.1565 -0.0609
  430PEP     CB13487  11.708  13.305  -1.618 -0.1203  0.1535  0.0199
  430PEP     CB13488  11.691  12.941  -1.863 -0.2837  0.1626  0.0293
  430PEP     CB13489  11.584  12.638  -2.247 -0.0567 -0.5541 -0.3908
  430PEP     CB13490  11.398  12.276  -2.415 -0.2732  0.1500  0.3351
  430PEP     CB13491  11.390  11.940  -2.694 -0.0445  0.0805  0.3621
  430PEP     CB13492  11.756  11.654  -2.887  0.0721 -0.1923 -0.0371
  430PEP     CB13493  12.077  11.389  -2.688 -0.1577  0.1939  0.1714
  430PEP     CB13494  12.428  11.339  -2.589 -0.0259  0.1542  0.0164
  430PEP     CB13495  12.776  11.619  -2.471  0.0315  0.3159  0.0253
  430PEP     CB13496  12.770  11.925  -2.409 -0.1649 -0.0378 -0.0445
  430PEP     CB13497  12.491  12.207  -2.096 -0.1505  0.0165  0.4041
  430PEP     CB13498  12.275  12.221  -1.700  0.2487  0.2839  0.2353
  430PEP     CB13499  12.284  12.481  -1.293 -0.0179 -0.3030 -0.2147
  430PEP     CB13500  12.023  12.765  -1.096 -0.2655  0.1683 -0.1091
  430PEP     CB13501  11.671  12.989  -1.217 -0.3028 -0.3324 -0.0644
  430PEP     CB13502  11.276  13.262  -1.342 -0.0649  0.1931 -0.1667
  430PEP     CB13503  10.935  13.237  -1.698 -0.0869  0.1629  0.3589
  430PEP     CB13504  10.914  13.229  -2.169 -0.0900 -0.1949  0.1274
  430PEP     CB13505  10.481  13.139  -2.500 -0.0054 -0.4156 -0.3051
  430PEP     CB13506  10.157  12.819  -2.540 -0.3018 -0.0577  0.0997
  430PEP     CB13507   9.833  12.532  -2.375 -0.1949 -0.1284 -0.1111
  430PEP     CB13508   9.640  12.436  -2.007  0.0364  0.1478 -0.0719
  430PEP     CB13509   9.846  12.182  -1.724  0.5031 -0.0990  0.2415
  430PEP     CB13510  10.015  11.864  -1.893 -0.5110 -0.1812 -0.0444
  430PEP     CB13511  10.373  11.463  -2.019  0.1086  0.2625  0.0019
  430PEP     CB13512  10.701  11.265  -2.040 -0.5183  0.1370  0.3565
  430PEP     CB13513  11.117  11.406  -1.993  0.0650  0.0801 -0.2041
  430PEP     CB13514  11.420  11.597  -1.831 -0.2452  0.1780 -0.1247
  430PEP     CB13515  11.773  11.693  -1.867 -0.1268  0.3933 -0.0160
  430PEP     CB13516  12.099  11.725  -1.595 -0.1559  0.0641  0.2748
  430PEP     CB13517  12.326  11.716  -1.319 -0.3498  0.2821 -0.0707
  430PEP     CB13518  12.327  11.955  -0.928 -0.0054  0.4971  0.1804
  430PEP     CB13519  12.320  12.305  -0.784  0.2788 -0.4692 -0.1624
  430PEP     CB13520  12.245  12.740  -0.597  0.0330 -0.0575 -0.2297
  431PEP     CB13521   9.270   7.083  18.803  0.1373 -0.1212 -0.1342
  431PEP     CB13522   8.911   6.884  18.778  0.3130 -0.0563 -0.0132
  431PEP     CB13523   8.485   6.685  18.675 -0.1411  0.0279  0.1742
  431PEP     CB13524   7.985   6.719  18.665  0.1286  0.1818 -0.4150
  431PEP     CB13525   7.629   6.515  18.839  0.0306  0.2861 -0.0296
  431PEP     CB13526   7.468   6.335  19.228  0.2267  0.1079 -0.2379
  431PEP     CB13527   7.357   6.261  19.638  0.2402  0.2611  0.3775
  431PEP     CB13528   7.129   6.178  19.996  0.4888  0.2291 -0.0266
  431PEP     CB13529   6.758   6.302  20.170  0.0679 -0.2117 -0.3302
  431PEP     CB13530   6.316   6.311  20.232  0.1399 -0.0878 -0.0677
  431PEP     CB13531   5.887   6.365  20.088 -0.0610 -0.1101 -0.0830
  431PEP     CB13532   5.420   6.354  20.170 -0.0286  0.0194  0.2424
  431PEP     CB13533   5.020   6.372  20.311  0.0574  0.1913  0.0239
  431PEP     CB13534   4.590   6.434  20.326 -0.0524  0.3644 -0.1967
  431PEP     CB13535   4.255   6.514  20.450  0.0952  0.2164  0.4355
  431PEP     CB13536   3.975   6.648  20.750  0.0557 -0.1937 -0.3853
  431PEP     CB13537   3.636   6.439  20.878 -0.0323 -0.0812  0.3941
  431PEP     CB13538   3.212   6.441  20.978  0.1558  0.1342  0.3234
  431PEP     CB13539   2.953   6.124  21.168 -0.0984 -0.1506 -0.0522
  431PEP     CB13540   2.901   6.015  21.648  0.1684  0.0631 -0.0682
  431PEP     CB13541   3.078   5.803  21.919  0.0976 -0.1031 -0.0957
  431PEP     CB13542   3.174   5.667  22.329  0.0043  0.0287  0.2087
  431PEP     CB13543   3.083   5.413  22.693  0.1693  0.0690 -0.1043
  431PEP     CB13544   2.986   5.058  22.854  0.3945 -0.1390  0.0517
  431PEP     CB13545   3.091   4.619  22.796 -0.2262  0.1094  0.1759
  431PEP     CB13546   3.197   4.306  22.525  0.1984  0.0049 -0.0867
  431PEP     CB13547   3.313   4.156  22.182  0.1070  0.2580  0.4465
  431PEP     CB13548   3.775   3.975  22.152 -0.0821  0.1212 -0.4370
  431PEP     CB13549   4.172   4.142  22.320  0.2595  0.0656 -0.0181
  431PEP     CB13550   4.442   4.296  22.550 -0.1638 -0.3692 -0.2039
  431PEP     CB13551   4.471   4.534  22.923  0.2876  0.0260  0.0588
  431PEP     CB13552   4.203   4.775  23.247 -0.0034  0.1549 -0.1896
  431PEP     CB13553   4.032   4.821  23.767 -0.1208  0.0299 -0.1331
  431PEP     CB13554   3.911   4.614  24.162  0.0307 -0.0583  0.1388
  431PEP     CB13555   3.798   4.407  24.655  0.1777 -0.4360  0.1685
  431PEP     CB13556   3.604   4.267  24.989  0.0692  0.4265 -0.2033
  431PEP     CB13557   3.280   3.876  25.189 -0.0988  0.5159 -0.1788
  431PEP     CB13558   2.947   3.718  25.135  0.3569  0.1796  0.2039
  431PEP     CB13559   2.599   3.680  24.895 -0.1467 -0.1195 -0.0056
  431PEP     CB13560   2.461   3.478  24.564 -0.0627 -0.0212 -0.0655
  432PEP     CB13561   0.714  17.421  19.549 -0.0712  0.2078  0.0120
  432PEP     CB13562   0.706  17.005  19.354 -0.1316  0.5659 -0.2516
  432PEP     CB13563   0.544  16.598  19.285 -0.0719 -0.0488 -0.4342
  432PEP     CB13564   0.545  16.198  19.197 -0.2696  0.3141 -0.1356
  432PEP     CB13565   0.817  15.844  19.163 -0.1021 -0.0007 -0.1719
  432PEP     CB13566   1.014  15.530  18.886 -0.0070 -0.0805  0.1487
  432PEP     CB13567   1.130  14.979  18.827 -0.0202  0.0389 -0.1557
  432PEP     CB13568   1.166  14.621  19.060  0.0981 -0.2491 -0.2199
  432PEP     CB13569   1.030  14.447  19.457 -0.3709 -0.2030 -0.1165
  432PEP     CB13570   1.060  14.406  19.924 -0.1314 -0.2231 -0.2867
  432PEP     CB13571   0.746  14.219  20.241 -0.1682  0.0340 -0.0415
  432PEP     CB13572   0.223  14.223  20.096  0.1841  0.0113  0.2988
  432PEP     CB13573   0.021  14.577  19.867  0.0205  0.5164  0.2022
  432PEP     CB13574   0.021  15.011  19.732  0.1953  0.0297  0.0629
  432PEP     CB13575   0.286  15.312  19.613 -0.0417  0.3164 -0.1935
  432PEP     CB13576   0.459  15.807  19.599  0.0225  0.2672 -0.0076
  432PEP     CB13577   0.734  16.151  19.684 -0.1786 -0.1995  0.1193
  432PEP     CB13578   1.136  16.150  19.880 -0.0291 -0.0252 -0.0392
  432PEP     CB13579   1.198  15.745  20.127 -0.1151  0.2479  0.0296
  432PEP     CB13580   0.882  15.436  20.141  0.1186 -0.0018  0.4168
  432PEP     CB13581   0.507  15.603  20.105 -0.0442  0.2721  0.4067
  432PEP     CB13582   0.124  15.530  19.993  0.0367  0.3272 -0.1650
  432PEP     CB13583  -0.290  15.419  19.876 -0.1211 -0.2509 -0.1038
  432PEP     CB13584  -0.519  15.069  19.621  0.2189 -0.2154 -0.2103
  432PEP     CB13585  -0.640  14.819  19.282 -0.0793  0.1875 -0.1909
  432PEP     CB13586  -1.181  14.804  19.210 -0.3016  0.1777  0.2370
  432PEP     CB13587  -1.415  14.763  19.563 -0.0457  0.0755  0.2690
  432PEP     CB13588  -1.744  14.781  19.926  0.1285  0.0896  0.2861
  432PEP     CB13589  -2.010  15.060  20.099  0.1641 -0.1645 -0.0390
  432PEP     CB13590  -2.370  15.420  20.221  0.4596  0.0072 -0.2295
  432PEP     CB13591  -2.437  15.626  20.594  0.0861  0.0938 -0.0442
  432PEP     CB13592  -2.826  15.659  20.824 -0.1859 -0.2748  0.3114
  432PEP     CB13593  -3.243  15.473  20.660 -0.0802  0.1748 -0.2819
  432PEP     CB13594  -3.701  15.248  20.590  0.2616  0.1517  0.0224
  432PEP     CB13595  -3.858  14.854  20.339  0.1005 -0.0869  0.0010
  432PEP     CB13596  -3.743  14.452  20.031  0.1173 -0.0909 -0.5600
  432PEP     CB13597  -4.012  14.240  19.654 -0.2677  0.4738 -0.0580
  432PEP     CB13598  -4.002  14.310  19.245 -0.2587 -0.1951  0.2000
  432PEP     CB13599  -3.663  14.292  18.982  0.1353  0.4470 -0.1950
  432PEP     CB13600  -3.467  14.325  18.513  0.0829  0.0266  0.1604
  433PEP     CB13601   4.434   5.076  17.480 -0.2309  0.0013  0.1913
  433PEP     CB13602   4.299   4.690  17.627  0.2588  0.1688  0.0560
  433PEP     CB13603   4.203   4.240  17.759 -0.2486 -0.1451 -0.1943
  433PEP     CB13604   4.187   3.809  17.872 -0.0076 -0.0905  0.1435
  433PEP     CB13605   3.873   3.516  18.001  0.0342 -0.0856  0.0045
  433PEP     CB13606   3.508   3.125  17.727  0.4868  0.3452  0.2861
  433PEP     CB13607   3.238   3.140  17.378  0.2096  0.4201 -0.1422
  433PEP     CB13608   3.250   3.051  16.908  0.3270 -0.1537  0.1107
  433PEP     CB13609   3.161   3.261  16.459  0.0255  0.1537  0.3066
  433PEP     CB13610   2.817   3.388  16.218  0.1374  0.0510  0.3106
  433PEP     CB13611   2.331   3.300  16.071 -0.0446  0.1259 -0.3765
  433PEP     CB13612   2.074   3.463  15.747 -0.0730 -0.0023 -0.1888
  433PEP     CB13613   2.080   3.886  15.677  0.1390  0.1063 -0.0360
  433PEP     CB13614   2.149   4.335  15.829  0.2144 -0.0933 -0.1293
  433PEP     CB13615   2.250   4.513  16.199 -0.3595 -0.2900  0.4719
  433PEP     CB13616   2.144   4.534  16.615 -0.1776  0.0902 -0.0246
  433PEP     CB13617   1.808   4.309  16.807  0.0811  0.2492 -0.0775
  433PEP     CB13618   1.423   4.264  17.086 -0.1724  0.1269 -0.1376
  433PEP     CB13619   0.957   4.220  17.062 -0.2773 -0.3458 -0.1514
  433PEP     CB13620   0.614   4.409  16.716  0.1303  0.0841  0.0249
  433PEP     CB13621   0.441   4.356  16.312 -0.0175  0.0829  0.1277
  433PEP     CB13622   0.041   4.485  16.067  0.0218 -0.5709  0.1411
  433PEP     CB13623  -0.163   4.556  15.745  0.2348  0.1337  0.2321
  433PEP     CB13624  -0.141   4.584  15.341  0.0154  0.3159  0.1228
  433PEP     CB13625  -0.163   4.410  14.919 -0.2538  0.2781  0.1416
  433PEP     CB13626   0.047   4.024  14.737 -0.1448  0.1665  0.0589
  433PEP     CB13627   0.547   3.915  14.774  0.0313 -0.2865 -0.1589
  433PEP     CB13628   0.969   3.758  14.849 -0.2899  0.1865  0.2431
  433PEP     CB13629   1.298   3.552  14.853 -0.1324 -0.1463 -0.0483
  433PEP     CB13630   1.439   3.255  14.586 -0.1343  0.1195  0.6246
  433PEP     CB13631   1.215   2.868  14.396 -0.0184  0.2152 -0.1724
  433PEP     CB13632   0.764   2.858  14.513  0.1960  0.0905 -0.2877
  433PEP     CB13633   0.396   3.199  14.266 -0.4457  0.0448  0.1735
  433PEP     CB13634   0.451   3.561  14.003 -0.0646 -0.0200 -0.3994
  433PEP     CB13635   0.834   3.736  13.974 -0.1471 -0.0871  0.2732
  433PEP     CB13636   1.218   3.856  13.839 -0.1750 -0.2830  0.2206
  433PEP     CB13637   1.542   3.635  13.687  0.3647  0.2720  0.0444
  433PEP     CB13638   1.929   3.429  13.561 -0.1864  0.2110  0.0790
  433PEP     CB13639   2.050   3.116  13.225  0.1086  0.1838 -0.3403
  433PEP     CB13640   1.754   2.828  12.993 -0.3199 -0.0213  0.4305
  434PEP     CB13641   0.459  11.935   6.237 -0.2825 -0.1016 -0.0886
  434PEP     CB13642   0.391  11.541   6.450  0.1395 -0.2158 -0.3687
  434PEP     CB13643   0.501  11.055   6.482 -0.3130 -0.0308  0.1375
  434PEP     CB13644   0.823  10.803   6.659 -0.2608  0.2174  0.2523
  434PEP     CB13645   0.882  10.448   6.946  0.1733 -0.1027  0.0330
  434PEP     CB13646   0.876  10.076   7.098  0.1006  0.1678 -0.1112
  434PEP     CB13647   0.986   9.665   7.414 -0.0540 -0.1765 -0.1248
  434PEP     CB13648   0.907   9.414   7.820  0.1388 -0.5689 -0.1291
  434PEP     CB13649   1.261   9.172   8.075 -0.2337  0.3416 -0.1129
  434PEP     CB13650   1.343   8.794   7.973  0.1169  0.0754  0.2309
  434PEP     CB13651   1.144   8.516   7.657  0.2692 -0.0158  0.2575
  434PEP     CB13652   0.973   8.450   7.305 -0.2687  0.3348 -0.0730
  434PEP     CB13653   0.956   8.723   7.016 -0.1119 -0.1141  0.3236
  434PEP     CB13654   0.929   8.985   6.682  0.5433  0.2155  0.2415
  434PEP     CB13655   0.964   9.379   6.400 -0.4125  0.1534  0.5413
  434PEP     CB13656   0.940   9.580   5.888 -0.3659 -0.1440 -0.3015
  434PEP     CB13657   0.809   9.345   5.495 -0.1689  0.6442  0.3567
  434PEP     CB13658   1.029   8.934   5.272  0.0959 -0.3064 -0.0616
  434PEP     CB13659   1.380   8.895   5.026 -0.3871  0.4257 -0.2726
  434PEP     CB13660   1.872   8.864   5.023  0.2106 -0.1011 -0.2104
  434PEP     CB13661   2.288   8.742   5.068  0.4104 -0.0466 -0.3953
  434PEP     CB13662   2.658   8.761   5.293  0.0366  0.0408  0.1066
  434PEP     CB13663   2.879   8.934   5.694 -0.1754  0.4303 -0.1103
  434PEP     CB13664   2.902   9.379   5.752 -0.2110 -0.1466 -0.3939
  434PEP     CB13665   2.538   9.662   5.591 -0.1571 -0.2891 -0.5084
  434PEP     CB13666   2.131   9.536   5.700 -0.1694 -0.0189  0.2778
  434PEP     CB13667   1.950   9.266   5.782  0.0298 -0.2047 -0.1657
  434PEP     CB13668   1.777   8.982   5.925 -0.2061 -0.2144  0.0802
  434PEP     CB13669   1.671   8.684   5.836 -0.0001  0.1183 -0.0142
  434PEP     CB13670   1.417   8.546   5.445 -0.1230  0.1936 -0.2865
  434PEP     CB13671   1.033   8.440   5.258  0.0838 -0.0687 -0.0492
  434PEP     CB13672   0.826   8.136   5.038 -0.1499 -0.2079  0.2895
  434PEP     CB13673   0.731   7.768   4.803 -0.0319 -0.1060 -0.0353
  434PEP     CB13674   0.542   7.661   4.414  0.0318  0.2643 -0.0019
  434PEP     CB13675   0.326   7.725   4.064 -0.1790  0.3326  0.0221
  434PEP     CB13676  -0.094   8.070   4.102  0.1826 -0.0760 -0.2321
  434PEP     CB13677  -0.508   8.171   4.339 -0.1590  0.0003 -0.2211
  434PEP     CB13678  -0.874   8.007   4.617 -0.0653  0.2175 -0.2602
  434PEP     CB13679  -0.945   8.009   5.034  0.2615 -0.3967  0.2900
  434PEP     CB13680  -0.929   8.159   5.448  0.2412  0.1799 -0.1315
  435PEP     CB13681  18.538   5.554  15.605 -0.1002  0.2013  0.1641
  435PEP     CB13682  18.453   5.969  15.558  0.4106 -0.2892  0.1432
  435PEP     CB13683  18.225   6.289  15.731  0.2982  0.1586 -0.1710
  435PEP     CB13684  18.227   6.416  16.141 -0.1540 -0.0063  0.0198
  435PEP     CB13685  18.270   6.312  16.541  0.2012 -0.1354 -0.1813
  435PEP     CB13686  18.063   6.071  16.847  0.1103 -0.1365  0.1137
  435PEP     CB13687  17.970   5.724  17.128 -0.4057 -0.0804 -0.1986
  435PEP     CB13688  18.173   5.379  17.344  0.1819  0.0632  0.2841
  435PEP     CB13689  18.251   5.158  17.673 -0.0210  0.2437  0.1347
  435PEP     CB13690  18.187   4.738  17.642  0.1679 -0.2302 -0.1160
  435PEP     CB13691  17.976   4.459  17.386  0.1781 -0.3284  0.4125
  435PEP     CB13692  17.875   4.117  17.184 -0.0733  0.4353  0.0834
  435PEP     CB13693  17.832   3.711  17.323 -0.0988 -0.1540 -0.2750
  435PEP     CB13694  18.031   3.298  17.320 -0.1961  0.3922 -0.4290
  435PEP     CB13695  18.448   3.120  17.109  0.2091 -0.3691 -0.3072
  435PEP     CB13696  18.899   2.951  16.960 -0.2959  0.1966  0.1011
  435PEP     CB13697  19.315   2.874  16.753  0.2103 -0.4578  0.0478
  435PEP     CB13698  19.611   3.280  16.639 -0.1554 -0.2871  0.5228
  435PEP     CB13699  19.581   3.664  16.847  0.0991 -0.2824 -0.2413
  435PEP     CB13700  19.265   3.941  16.984 -0.0190 -0.1045 -0.0627
  435PEP     CB13701  18.875   4.074  16.861  0.0271 -0.1661 -0.2195
  435PEP     CB13702  18.744   4.237  16.459  0.2344  0.2486 -0.0864
  435PEP     CB13703  18.997   4.144  16.148  0.0916 -0.3853  0.3371
  435PEP     CB13704  19.388   4.359  16.155 -0.4284 -0.0573  0.0208
  435PEP     CB13705  19.679   4.587  16.375 -0.1945 -0.1532 -0.0390
  435PEP     CB13706  19.910   4.897  16.264  0.1414  0.0208  0.4942
  435PEP     CB13707  20.325   5.138  16.254 -0.0488  0.3546 -0.2425
  435PEP     CB13708  20.720   5.135  16.069  0.4708 -0.3581  0.1468
  435PEP     CB13709  20.998   4.906  15.842 -0.1151 -0.3359 -0.0465
  435PEP     CB13710  21.426   4.837  15.867 -0.1609  0.1412 -0.3917
  435PEP     CB13711  21.846   4.947  16.124 -0.0449  0.2519  0.0427
  435PEP     CB13712  21.753   5.278  16.438  0.3657 -0.0495  0.2576
  435PEP     CB13713  21.548   5.521  16.569 -0.1355  0.0367 -0.0081
  435PEP     CB13714  21.185   5.661  16.433  0.0477 -0.0986  0.1704
  435PEP     CB13715  20.879   5.722  16.138 -0.3249  0.3418  0.1687
  435PEP     CB13716  20.439   5.631  15.972  0.2351  0.0075 -0.2366
  435PEP     CB13717  20.065   5.822  15.836  0.1153  0.3285  0.0714
  435PEP     CB13718  19.780   6.106  15.630 -0.1574  0.1729  0.2444
  435PEP     CB13719  19.388   6.184  15.481  0.1541  0.2293  0.1347
  435PEP     CB13720  18.973   6.355  15.664  0.7094  0.2001  0.1920
  436PEP     CB13721   5.941  21.553   0.774  0.0455 -0.1608  0.2417
  436PEP     CB13722   5.772  21.832   0.400 -0.0504 -0.2056 -0.2952
  436PEP     CB13723   5.460  21.941   0.178 -0.3390  0.0194  0.0693
  436PEP     CB13724   5.120  22.118  -0.058 -0.1419 -0.2696 -0.0376
  436PEP     CB13725   4.741  22.198  -0.275 -0.1724  0.3227 -0.2802
  436PEP     CB13726   4.429  22.027  -0.464  0.0559  0.2933  0.0291
  436PEP     CB13727   4.063  22.163  -0.444  0.0531 -0.1368  0.0306
  436PEP     CB13728   3.829  22.521  -0.451  0.3053  0.1121 -0.1464
  436PEP     CB13729   3.603  22.819  -0.648 -0.1212 -0.2369  0.1905
  436PEP     CB13730   3.342  23.037  -1.020 -0.0410  0.1114 -0.0815
  436PEP     CB13731   2.863  23.193  -1.160  0.0099  0.0643  0.1564
  436PEP     CB13732   2.475  23.115  -1.391 -0.0109 -0.1933  0.5287
  436PEP     CB13733   2.082  22.885  -1.479  0.0049 -0.0477  0.2255
  436PEP     CB13734   1.703  22.870  -1.447 -0.1627 -0.2409 -0.2083
  436PEP     CB13735   1.414  22.883  -1.202  0.0266 -0.3973 -0.0811
  436PEP     CB13736   1.085  23.137  -1.105  0.0048  0.2307  0.0713
  436PEP     CB13737   0.946  23.121  -0.694 -0.2268  0.1046  0.0057
  436PEP     CB13738   1.067  22.780  -0.414 -0.1940 -0.1934  0.1618
  436PEP     CB13739   1.419  22.539  -0.399  0.1035 -0.0229  0.1318
  436PEP     CB13740   1.885  22.504  -0.392 -0.1090 -0.1734 -0.0648
  436PEP     CB13741   2.304  22.404  -0.150  0.3547  0.1721  0.6138
  436PEP     CB13742   2.674  22.305   0.065 -0.3093  0.0623  0.0288
  436PEP     CB13743   2.794  22.104   0.457 -0.2457  0.1908 -0.0485
  436PEP     CB13744   2.849  21.842   0.830  0.2859  0.0720 -0.1382
  436PEP     CB13745   2.965  21.501   1.148  0.0995  0.3528  0.2510
  436PEP     CB13746   2.966  21.350   1.501 -0.1690  0.0756  0.1515
  436PEP     CB13747   2.660  21.007   1.738  0.1999  0.0153 -0.0762
  436PEP     CB13748   2.164  20.973   1.627  0.2764  0.2364  0.2966
  436PEP     CB13749   1.969  20.855   1.378 -0.0984 -0.1239 -0.1658
  436PEP     CB13750   2.215  20.775   0.958  0.2425  0.1541  0.1504
  436PEP     CB13751   2.708  20.746   1.004 -0.4571  0.0865  0.0202
  436PEP     CB13752   2.905  20.919   1.316 -0.0647 -0.0043  0.0857
  436PEP     CB13753   3.183  20.968   1.677  0.0024 -0.3386 -0.2289
  436PEP     CB13754   3.310  21.063   2.069 -0.0149  0.2567  0.0223
  436PEP     CB13755   3.236  21.393   2.368 -0.0584  0.1583 -0.3869
  436PEP     CB13756   3.331  21.606   2.777 -0.3178 -0.1055 -0.2955
  436PEP     CB13757   3.379  22.122   2.887  0.1985 -0.3671  0.2358
  436PEP     CB13758   3.750  22.384   2.924 -0.2636 -0.3722  0.1374
  436PEP     CB13759   4.241  22.390   3.075 -0.1704 -0.2878 -0.2189
  436PEP     CB13760   4.701  22.122   3.064 -0.1466 -0.0947 -0.1701
  437PEP     CB13761   5.408  18.909  15.845  0.1100  0.2511 -0.1350
  437PEP     CB13762   5.109  19.165  16.024 -0.3315  0.3856  0.2038
  437PEP     CB13763   4.735  19.420  16.060 -0.0369 -0.0353 -0.1226
  437PEP     CB13764   4.321  19.348  16.329 -0.2484 -0.2331  0.2643
  437PEP     CB13765   3.898  19.361  16.191  0.1247 -0.0093 -0.2135
  437PEP     CB13766   3.550  19.656  16.309 -0.0201  0.1043 -0.0407
  437PEP     CB13767   3.359  19.983  16.229 -0.0433  0.0377 -0.3824
  437PEP     CB13768   3.691  20.241  16.172 -0.0003  0.2752  0.3704
  437PEP     CB13769   4.027  20.060  16.397 -0.2830  0.2905 -0.1176
  437PEP     CB13770   3.969  19.698  16.580 -0.0522  0.0136  0.3353
  437PEP     CB13771   3.659  19.445  16.784  0.0002 -0.3087 -0.0764
  437PEP     CB13772   3.199  19.435  16.931 -0.0619 -0.3579  0.0034
  437PEP     CB13773   2.768  19.527  16.977  0.5050  0.3214 -0.4521
  437PEP     CB13774   2.425  19.804  16.945 -0.2947  0.0614 -0.0943
  437PEP     CB13775   2.301  20.236  16.900 -0.2539 -0.1485  0.1839
  437PEP     CB13776   2.161  20.643  16.948  0.2091 -0.2399 -0.0440
  437PEP     CB13777   1.945  20.962  16.751 -0.1723  0.4586 -0.0823
  437PEP     CB13778   1.719  21.382  16.516 -0.1484 -0.2163 -0.1237
  437PEP     CB13779   1.522  21.752  16.486 -0.0048  0.0774 -0.0387
  437PEP     CB13780   1.563  22.129  16.187  0.0020  0.1158 -0.0334
  437PEP     CB13781   1.853  22.142  15.801  0.1267 -0.6030  0.1747
  437PEP     CB13782   1.858  22.005  15.306  0.3584  0.0864  0.0315
  437PEP     CB13783   1.960  21.593  15.030 -0.3391 -0.0700  0.1715
  437PEP     CB13784   2.350  21.455  14.981  0.0381 -0.0468  0.1159
  437PEP     CB13785   2.683  21.317  15.225  0.1092 -0.3761 -0.4024
  437PEP     CB13786   2.864  20.836  15.350 -0.1611 -0.0404 -0.1892
  437PEP     CB13787   2.947  20.398  15.472 -0.1758 -0.0046 -0.1454
  437PEP     CB13788   2.681  20.042  15.693  0.0030  0.2775 -0.0880
  437PEP     CB13789   2.339  19.771  15.864 -0.1707  0.0952  0.0513
  437PEP     CB13790   1.867  19.776  15.919  0.3757 -0.1830  0.0815
  437PEP     CB13791   1.444  19.644  15.689  0.1091  0.0904 -0.1121
  437PEP     CB13792   1.100  19.860  15.591  0.1070  0.1764  0.1803
  437PEP     CB13793   0.989  20.081  15.212  0.4352 -0.3008 -0.1106
  437PEP     CB13794   0.674  20.150  14.971 -0.2430  0.2013 -0.1062
  437PEP     CB13795   0.468  20.415  14.733 -0.1011 -0.1312  0.2169
  437PEP     CB13796   0.285  20.750  14.505 -0.0067  0.0134 -0.1339
  437PEP     CB13797   0.096  21.112  14.581  0.0413 -0.2122 -0.1688
  437PEP     CB13798   0.154  21.261  14.977 -0.4372 -0.1822  0.2812
  437PEP     CB13799  -0.102  21.383  15.351 -0.2473  0.1735 -0.1401
  437PEP     CB13800  -0.216  21.557  15.736  0.0022 -0.2401  0.0423
  438PEP     CB13801  18.937   2.184   5.025  0.2927  0.2701 -0.0763
  438PEP     CB13802  18.939   2.644   5.081 -0.1749 -0.1017  0.0089
  438PEP     CB13803  18.772   2.954   5.320 -0.1818  0.0012 -0.1776
  438PEP     CB13804  18.772   3.432   5.359  0.1146  0.0353 -0.4881
  438PEP     CB13805  19.074   3.749   5.546  0.3602 -0.2102 -0.1427
  438PEP     CB13806  19.075   4.169   5.731  0.0938  0.0632 -0.1579
  438PEP     CB13807  18.827   4.394   5.962  0.2446  0.2120  0.0072
  438PEP     CB13808  18.376   4.218   6.130  0.2006 -0.2565 -0.3797
  438PEP     CB13809  18.190   3.938   6.156 -0.0633  0.4992 -0.2194
  438PEP     CB13810  17.803   3.713   5.924 -0.0175  0.4222 -0.5142
  438PEP     CB13811  17.460   3.778   5.651 -0.0209  0.0313  0.3597
  438PEP     CB13812  17.416   4.110   5.412 -0.1356  0.2667  0.1589
  438PEP     CB13813  17.615   4.452   5.477  0.2828 -0.1460 -0.0342
  438PEP     CB13814  17.848   4.640   5.929 -0.3178 -0.2822  0.1602
  438PEP     CB13815  17.785   4.498   6.373 -0.3077  0.1382 -0.1084
  438PEP     CB13816  17.876   4.247   6.713 -0.1414 -0.2161 -0.4031
  438PEP     CB13817  17.755   3.756   6.854  0.1904  0.0831  0.2188
  438PEP     CB13818  17.919   3.306   6.985  0.3644 -0.2007 -0.0637
  438PEP     CB13819  18.037   2.851   6.803 -0.1548  0.2464 -0.1641
  438PEP     CB13820  18.374   2.567   6.952  0.2322  0.0850 -0.1594
  438PEP     CB13821  18.548   2.576   7.375 -0.0959  0.3973  0.3207
  438PEP     CB13822  18.746   2.874   7.682 -0.2444 -0.0000  0.1873
  438PEP     CB13823  19.121   3.108   7.961 -0.2204 -0.3495  0.1344
  438PEP     CB13824  19.401   3.433   7.844  0.0390  0.3146 -0.4273
  438PEP     CB13825  19.169   3.756   7.838 -0.3278 -0.2606  0.2331
  438PEP     CB13826  18.833   3.828   7.614  0.0223 -0.3713  0.0897
  438PEP     CB13827  18.530   4.138   7.412 -0.1159  0.0686 -0.0262
  438PEP     CB13828  18.277   4.259   7.005 -0.0215  0.2070 -0.0204
  438PEP     CB13829  18.243   4.536   6.733 -0.0136 -0.2345  0.1681
  438PEP     CB13830  18.306   4.729   6.288 -0.0804  0.1527  0.2406
  438PEP     CB13831  18.351   4.620   5.817  0.0145  0.2326 -0.2130
  438PEP     CB13832  18.171   4.673   5.412  0.0735  0.3960  0.1338
  438PEP     CB13833  18.183   4.546   5.020  0.0205  0.0512  0.1149
  438PEP     CB13834  18.440   4.451   4.584  0.0784 -0.0466 -0.0864
  438PEP     CB13835  18.346   4.264   4.228  0.0947 -0.1272 -0.2010
  438PEP     CB13836  18.055   4.095   3.991  0.0103  0.1165 -0.2163
  438PEP     CB13837  17.871   3.830   3.690 -0.0121 -0.0408  0.3069
  438PEP     CB13838  17.803   3.458   3.359 -0.0735  0.2148 -0.2176
  438PEP     CB13839  17.912   3.157   3.033 -0.1812 -0.1120  0.2671
  438PEP     CB13840  17.861   2.885   2.643 -0.0454 -0.0550 -0.1339
  439PEP     CB13841   9.932  20.478  17.724 -0.3678  0.0098 -0.0102
  439PEP     CB13842   9.827  20.537  17.282 -0.4505 -0.5134 -0.0767
  439PEP     CB13843   9.535  20.631  16.947  0.0506 -0.0913 -0.0754
  439PEP     CB13844   9.130  20.901  16.975  0.1209 -0.1230 -0.2856
  439PEP     CB13845   8.975  21.098  17.482 -0.5653  0.0384  0.4740
  439PEP     CB13846   9.298  21.122  17.855 -0.2705  0.1696 -0.0075
  439PEP     CB13847   9.677  20.918  17.903 -0.0005 -0.1768  0.1586
  439PEP     CB13848  10.093  20.926  17.998 -0.1266  0.0828 -0.0429
  439PEP     CB13849  10.483  20.748  18.041 -0.4037  0.3531 -0.1486
  439PEP     CB13850  10.814  20.483  18.142 -0.0251 -0.1234  0.0765
  439PEP     CB13851  11.104  20.146  18.174  0.2031 -0.2362 -0.0550
  439PEP     CB13852  11.377  19.900  17.949 -0.3612  0.0559  0.1346
  439PEP     CB13853  11.401  19.910  17.562 -0.2404 -0.0733 -0.3578
  439PEP     CB13854  11.154  20.113  17.234  0.3298 -0.1932  0.1717
  439PEP     CB13855  10.835  20.315  17.088 -0.1819 -0.0706  0.1302
  439PEP     CB13856  10.549  20.366  16.839  0.0353 -0.1162  0.0040
  439PEP     CB13857  10.463  20.056  16.413  0.1389  0.3050 -0.1598
  439PEP     CB13858  10.765  19.768  16.296  0.4581  0.1866 -0.0148
  439PEP     CB13859  11.030  19.577  16.473  0.5374 -0.0861  0.0238
  439PEP     CB13860  11.166  19.728  16.957  0.2908  0.1867 -0.0425
  439PEP     CB13861  10.779  19.725  17.291  0.1863  0.3131  0.0962
  439PEP     CB13862  10.459  20.055  17.488  0.0226 -0.0982 -0.2140
  439PEP     CB13863  10.382  20.479  17.335 -0.0637 -0.1799 -0.1172
  439PEP     CB13864  10.616  20.797  17.103  0.1960  0.4969 -0.1938
  439PEP     CB13865  10.926  20.793  17.176  0.1437 -0.4674  0.3344
  439PEP     CB13866  11.010  20.476  17.489 -0.2263 -0.1693 -0.0511
  439PEP     CB13867  10.924  20.127  17.707 -0.1429 -0.1369  0.0755
  439PEP     CB13868  10.759  19.730  17.765  0.0778 -0.3076  0.1868
  439PEP     CB13869  10.677  19.345  18.029 -0.5035  0.5785 -0.4531
  439PEP     CB13870  10.528  18.946  18.372  0.2322 -0.1959 -0.0669
  439PEP     CB13871  10.686  18.630  18.666  0.2405 -0.2596 -0.1676
  439PEP     CB13872  10.713  18.247  18.802 -0.1624  0.0614 -0.3196
  439PEP     CB13873  10.527  17.890  19.125  0.2323 -0.4194  0.0231
  439PEP     CB13874  10.544  17.649  19.458  0.2115  0.4580 -0.0006
  439PEP     CB13875  10.913  17.511  19.664 -0.1233  0.0953  0.1048
  439PEP     CB13876  11.350  17.481  19.463  0.4868  0.0561 -0.0717
  439PEP     CB13877  11.527  17.202  19.301  0.0110  0.0903  0.3265
  439PEP     CB13878  11.303  16.709  19.281 -0.2913 -0.1445 -0.0470
  439PEP     CB13879  11.166  16.469  19.588  0.2170  0.0813 -0.1193
  439PEP     CB13880  11.204  16.497  20.054 -0.1215 -0.2303 -0.5469
  440PEP     CB13881  21.319  20.817   1.170  0.1971 -0.3788  0.3854
  440PEP     CB13882  21.090  20.802   1.523  0.1592 -0.3074 -0.2791
  440PEP     CB13883  20.973  20.677   1.961  0.0372  0.4231 -0.0554
  440PEP     CB13884  20.565  20.590   2.164  0.3100  0.0863 -0.4776
  440PEP     CB13885  20.451  20.570   2.475 -0.1352  0.2277 -0.3108
  440PEP     CB13886  20.648  20.468   2.876  0.0446 -0.0285  0.2305
  440PEP     CB13887  20.993  20.626   2.948 -0.0142  0.1326 -0.3439
  440PEP     CB13888  21.369  20.734   2.644 -0.1524 -0.1529  0.2115
  440PEP     CB13889  21.447  20.717   2.222  0.0735 -0.0062  0.2400
  440PEP     CB13890  21.379  20.351   2.017  0.0085  0.1478 -0.0794
  440PEP     CB13891  21.493  19.983   2.274  0.2993 -0.4056 -0.1750
  440PEP     CB13892  21.769  20.221   2.603 -0.0793  0.2873 -0.2502
  440PEP     CB13893  21.711  20.494   2.961 -0.0945 -0.2193  0.2565
  440PEP     CB13894  21.677  20.957   3.130  0.0910  0.3694 -0.2071
  440PEP     CB13895  21.897  21.217   3.305 -0.1794  0.0405  0.3571
  440PEP     CB13896  21.975  21.509   3.610  0.3740 -0.2167 -0.0078
  440PEP     CB13897  21.750  21.691   3.931  0.1392 -0.2319  0.3910
  440PEP     CB13898  21.735  22.038   4.052  0.1136  0.2385 -0.2190
  440PEP     CB13899  21.491  22.362   3.931  0.2654  0.0904  0.1399
  440PEP     CB13900  21.131  22.504   3.736  0.0382  0.1752  0.1681
  440PEP     CB13901  20.815  22.774   3.661 -0.1835  0.1264  0.2312
  440PEP     CB13902  20.534  22.861   3.414 -0.1925 -0.0884 -0.2636
  440PEP     CB13903  20.086  22.876   3.334 -0.2892  0.2482  0.2343
  440PEP     CB13904  19.661  22.681   3.508  0.3003 -0.4171  0.2757
  440PEP     CB13905  19.332  22.598   3.676 -0.4346 -0.0381 -0.2653
  440PEP     CB13906  19.229  22.361   4.066  0.1353  0.1105  0.0101
  440PEP     CB13907  19.174  22.127   4.374  0.0542  0.5779  0.1186
  440PEP     CB13908  18.816  22.142   4.629 -0.2620 -0.1685 -0.2020
  440PEP     CB13909  18.667  22.450   5.033  0.1583 -0.0844 -0.1009
  440PEP     CB13910  18.439  22.695   5.245  0.0334  0.0849 -0.1667
  440PEP     CB13911  18.287  23.029   5.110  0.2197 -0.2351 -0.4207
  440PEP     CB13912  18.030  23.205   4.806  0.2983 -0.1320  0.0696
  440PEP     CB13913  17.859  23.255   4.399 -0.0766 -0.0960  0.3210
  440PEP     CB13914  17.422  23.254   4.416 -0.3386 -0.5480  0.2261
  440PEP     CB13915  17.139  23.481   4.702 -0.2556 -0.3300 -0.2741
  440PEP     CB13916  16.973  23.835   4.944  0.4351  0.3132  0.2933
  440PEP     CB13917  17.138  24.272   5.134  0.5414  0.5507 -0.0120
  440PEP     CB13918  17.442  24.345   5.210 -0.0572  0.4183  0.0571
  440PEP     CB13919  17.822  24.460   5.333 -0.1156  0.2035 -0.0418
  440PEP     CB13920  18.336  24.462   5.435  0.0433 -0.2398  0.1167
  441PEP     CB13921  20.710  10.450  18.255 -0.1673  0.1887 -0.2731
  441PEP     CB13922  20.760  10.835  17.895  0.0314  0.0054 -0.2365
  441PEP     CB13923  20.559  11.005  17.528 -0.4389 -0.1619 -0.2764
  441PEP     CB13924  20.342  10.767  17.192 -0.1282  0.1411 -0.1831
  441PEP     CB13925  20.161  10.424  17.232 -0.0083 -0.3586  0.3710
  441PEP     CB13926  19.945  10.331  17.554 -0.1106 -0.1308  0.2089
  441PEP     CB13927  19.811  10.553  17.899  0.5097  0.0040  0.1546
  441PEP     CB13928  19.959  10.947  17.865 -0.3887 -0.2468  0.0440
  441PEP     CB13929  19.945  11.068  17.539  0.0041  0.0472 -0.0718
  441PEP     CB13930  19.949  11.340  17.189  0.0337 -0.0703  0.1653
  441PEP     CB13931  19.647  11.674  17.190 -0.1202 -0.2958 -0.2948
  441PEP     CB13932  19.232  11.828  17.209 -0.0983 -0.0994 -0.3507
  441PEP     CB13933  18.793  11.681  17.345 -0.0828 -0.0514  0.4502
  441PEP     CB13934  18.355  11.489  17.390  0.0467 -0.0409  0.1393
  441PEP     CB13935  18.055  11.246  17.105  0.1642 -0.0020  0.0560
  441PEP     CB13936  17.723  11.206  16.716  0.0145  0.3150  0.1079
  441PEP     CB13937  17.478  11.033  16.386 -0.0344  0.1645 -0.0472
  441PEP     CB13938  17.542  10.717  15.982  0.0514  0.1204  0.1670
  441PEP     CB13939  17.797  10.776  15.661  0.1399 -0.3487  0.4165
  441PEP     CB13940  18.190  11.062  15.652 -0.2652  0.0918  0.0780
  441PEP     CB13941  18.492  11.391  15.540  0.2360 -0.1324 -0.2844
  441PEP     CB13942  18.706  11.538  15.158 -0.1268  0.3787 -0.1066
  441PEP     CB13943  18.630  11.938  14.954  0.2484 -0.4497  0.0823
  441PEP     CB13944  18.685  12.393  14.990 -0.3624 -0.0581 -0.1456
  441PEP     CB13945  18.903  12.776  14.958 -0.1584  0.0048 -0.1511
  441PEP     CB13946  18.861  13.171  14.894  0.1658  0.1535 -0.0918
  441PEP     CB13947  18.780  13.477  14.524  0.2585  0.0906  0.0837
  441PEP     CB13948  18.673  13.389  14.101  0.0530 -0.3518  0.2121
  441PEP     CB13949  18.621  13.390  13.637  0.0512  0.1809  0.3452
  441PEP     CB13950  18.806  13.543  13.325  0.0030  0.1562  0.1194
  441PEP     CB13951  19.154  13.831  13.231 -0.4438 -0.1192  0.4079
  441PEP     CB13952  19.579  13.964  13.256 -0.1269 -0.0341 -0.4711
  441PEP     CB13953  19.912  14.231  13.057  0.3122  0.2312  0.1058
  441PEP     CB13954  20.077  14.190  12.703  0.0352 -0.3623 -0.0915
  441PEP     CB13955  19.757  14.193  12.350 -0.3833 -0.5073 -0.5521
  441PEP     CB13956  19.274  14.362  12.413 -0.3567 -0.1038 -0.0332
  441PEP     CB13957  18.866  14.357  12.611 -0.2727  0.0141 -0.0926
  441PEP     CB13958  18.763  14.099  12.949  0.2403 -0.0965 -0.3619
  441PEP     CB13959  18.746  14.077  13.350  0.1693 -0.2272  0.2861
  441PEP     CB13960  18.665  13.937  13.855  0.0694  0.3178  0.3920
  442PEP     CB13961  14.217   4.075  18.202  0.1520 -0.1048  0.0820
  442PEP     CB13962  13.932   4.200  18.482 -0.2417 -0.0498  0.2215
  442PEP     CB13963  13.843   4.666  18.439 -0.1873 -0.0502  0.2508
  442PEP     CB13964  13.802   5.026  18.089  0.5499 -0.2649  0.2294
  442PEP     CB13965  13.661   5.114  17.684  0.0775  0.1173  0.1070
  442PEP     CB13966  13.651   5.375  17.298 -0.3009  0.2341 -0.0184
  442PEP     CB13967  13.560   5.802  17.184 -0.2100 -0.2052 -0.1307
  442PEP     CB13968  13.606   6.162  17.383  0.1076 -0.1746  0.1888
  442PEP     CB13969  13.685   6.235  17.901  0.3922  0.0143 -0.1959
  442PEP     CB13970  13.656   5.960  18.253  0.4538 -0.1518  0.0503
  442PEP     CB13971  13.656   5.642  18.455 -0.0333 -0.2188  0.1903
  442PEP     CB13972  13.742   5.249  18.549  0.0712 -0.1004 -0.0924
  442PEP     CB13973  14.127   5.096  18.705 -0.2345 -0.2141 -0.2713
  442PEP     CB13974  14.312   5.211  19.078  0.3330 -0.0575  0.4113
  442PEP     CB13975  14.447   5.470  19.277  0.0358  0.3162  0.0829
  442PEP     CB13976  14.601   5.898  19.411 -0.2810 -0.2482 -0.1482
  442PEP     CB13977  14.564   6.286  19.654 -0.1936  0.0667  0.1775
  442PEP     CB13978  14.457   6.554  19.961 -0.2899 -0.1854  0.2818
  442PEP     CB13979  14.281   6.743  20.360  0.1513 -0.2731 -0.1726
  442PEP     CB13980  14.017   7.124  20.457 -0.0932  0.2713 -0.0056
  442PEP     CB13981  14.053   7.497  20.590  0.2576  0.3600  0.3829
  442PEP     CB13982  14.333   7.906  20.690  0.2061 -0.0001  0.3212
  442PEP     CB13983  14.448   8.326  20.567 -0.2752 -0.2828 -0.2200
  442PEP     CB13984  14.702   8.707  20.509 -0.2610 -0.2458 -0.5121
  442PEP     CB13985  14.809   9.145  20.778  0.0880 -0.1420 -0.0452
  442PEP     CB13986  15.059   9.470  20.948 -0.2147  0.2363  0.0603
  442PEP     CB13987  15.304   9.716  21.155 -0.6935 -0.0465 -0.0246
  442PEP     CB13988  15.756   9.879  21.126 -0.1391 -0.1543 -0.1740
  442PEP     CB13989  15.881  10.312  21.195  0.2293  0.4188  0.2885
  442PEP     CB13990  15.739  10.678  21.420 -0.0842 -0.2049  0.1273
  442PEP     CB13991  15.440  10.880  21.636 -0.0677  0.4621  0.0478
  442PEP     CB13992  15.134  11.097  21.865  0.1424 -0.0909 -0.0343
  442PEP     CB13993  14.920  11.512  21.954 -0.0318  0.2100  0.0811
  442PEP     CB13994  14.971  11.982  21.917 -0.3433 -0.3393  0.4699
  442PEP     CB13995  15.263  12.312  21.742  0.0669  0.2501 -0.3524
  442PEP     CB13996  15.457  12.368  21.387 -0.0694  0.1194  0.2692
  442PEP     CB13997  15.665  12.151  21.018  0.4696  0.1414 -0.3286
  442PEP     CB13998  16.053  12.345  20.786  0.0426  0.2729 -0.4731
  442PEP     CB13999  16.476  12.533  20.983 -0.0420  0.2284 -0.1789
  442PEP     CB14000  16.531  12.610  21.438  0.1864  0.1927  0.2086
  443PEP     CB14001   9.496  17.847  12.248 -0.4075  0.3114 -0.0588
  443PEP     CB14002   9.501  17.432  12.434  0.2671 -0.1506  0.0177
  443PEP     CB14003   9.189  17.175  12.724 -0.0707 -0.3050 -0.1996
  443PEP     CB14004   8.735  17.121  12.831  0.0754 -0.2564  0.4068
  443PEP     CB14005   8.606  17.359  13.163 -0.0211 -0.3334  0.1881
  443PEP     CB14006   8.952  17.519  13.374  0.2115  0.3875 -0.0329
  443PEP     CB14007   9.363  17.381  13.477 -0.1094 -0.0674 -0.0560
  443PEP     CB14008   9.836  17.172  13.544  0.1754 -0.2091  0.0848
  443PEP     CB14009  10.156  17.036  13.382  0.4457 -0.2074 -0.0388
  443PEP     CB14010  10.290  17.249  13.017 -0.4461 -0.0593 -0.1289
  443PEP     CB14011  10.673  17.500  12.928 -0.1021  0.0894  0.0059
  443PEP     CB14012  10.922  17.710  12.720  0.3446 -0.2837  0.5204
  443PEP     CB14013  11.307  17.613  12.465  0.3026 -0.2153  0.5685
  443PEP     CB14014  11.608  17.729  12.197  0.0591 -0.1395  0.0880
  443PEP     CB14015  11.987  17.993  12.122  0.2757  0.0592 -0.2913
  443PEP     CB14016  12.383  18.141  11.945  0.2804  0.0314 -0.2430
  443PEP     CB14017  12.549  18.465  11.626  0.0556  0.2850 -0.3330
  443PEP     CB14018  12.668  18.695  11.292 -0.0947 -0.1579  0.0859
  443PEP     CB14019  12.855  18.623  10.931 -0.0760 -0.0287 -0.0952
  443PEP     CB14020  13.137  18.481  10.722  0.0389 -0.3009  0.1744
  443PEP     CB14021  13.468  18.614  10.436  0.1876 -0.4247  0.0919
  443PEP     CB14022  13.766  18.751  10.043  0.4194  0.2944  0.1069
  443PEP     CB14023  13.954  19.057   9.969  0.1577  0.0600  0.2917
  443PEP     CB14024  14.318  19.233  10.132  0.0741 -0.2230  0.1216
  443PEP     CB14025  14.599  19.122  10.389 -0.0008  0.2080  0.1190
  443PEP     CB14026  14.868  18.983  10.679 -0.2047 -0.0616 -0.1035
  443PEP     CB14027  14.843  18.578  10.911 -0.0015 -0.2335 -0.0323
  443PEP     CB14028  14.484  18.319  11.011  0.1961  0.4051 -0.1026
  443PEP     CB14029  14.300  17.862  11.129  0.1776 -0.0116  0.2379
  443PEP     CB14030  14.420  17.487  11.016 -0.4290 -0.0362 -0.0927
  443PEP     CB14031  14.760  17.170  11.140 -0.0098 -0.1922 -0.1412
  443PEP     CB14032  15.098  17.066  11.179  0.0525  0.1942  0.1299
  443PEP     CB14033  15.307  16.703  10.978  0.0508 -0.4579  0.0842
  443PEP     CB14034  15.074  16.708  10.628  0.2197  0.0306 -0.1822
  443PEP     CB14035  15.045  16.908  10.272 -0.3035 -0.2707 -0.2983
  443PEP     CB14036  15.162  17.246   9.952 -0.0257  0.3131  0.1066
  443PEP     CB14037  15.249  17.598   9.771 -0.3522  0.1121 -0.0442
  443PEP     CB14038  15.036  18.004   9.618  0.5211 -0.0938 -0.2999
  443PEP     CB14039  14.867  18.328   9.351 -0.3706  0.1783  0.1129
  443PEP     CB14040  14.893  18.768   9.203  0.1462 -0.6092 -0.2943
  444PEP     CB14041  21.922   7.490  20.695 -0.2682 -0.3264 -0.0876
  444PEP     CB14042  21.481   7.692  20.479  0.0112  0.5165 -0.2498
  444PEP     CB14043  21.058   7.535  20.264  0.2062  0.1708 -0.3435
  444PEP     CB14044  20.677   7.388  20.152  0.0971  0.3644  0.1074
  444PEP     CB14045  20.153   7.444  20.215 -0.1175 -0.1220 -0.1745
  444PEP     CB14046  19.810   7.293  20.389 -0.0791 -0.0365  0.2895
  444PEP     CB14047  19.674   7.181  20.784 -0.1398  0.0269  0.1783
  444PEP     CB14048  19.363   6.894  20.781  0.5995 -0.3081  0.1860
  444PEP     CB14049  19.032   6.795  20.492  0.0401  0.0013 -0.0656
  444PEP     CB14050  18.879   6.454  20.207 -0.3104 -0.2814  0.0066
  444PEP     CB14051  18.986   6.204  19.830  0.1147  0.1733  0.2869
  444PEP     CB14052  18.997   6.086  19.481  0.2665 -0.3746  0.0918
  444PEP     CB14053  18.765   5.951  19.120 -0.1278  0.1783 -0.0997
  444PEP     CB14054  18.748   5.820  18.684 -0.0434  0.2531 -0.0017
  444PEP     CB14055  18.897   5.379  18.479 -0.1361 -0.0206  0.1218
  444PEP     CB14056  19.265   5.288  18.481 -0.1146 -0.0176  0.3398
  444PEP     CB14057  19.545   4.942  18.605 -0.1103  0.0568 -0.3171
  444PEP     CB14058  19.857   4.641  18.637  0.3337 -0.1339 -0.1060
  444PEP     CB14059  20.294   4.737  18.652 -0.0474  0.0572  0.1225
  444PEP     CB14060  20.486   4.565  19.022 -0.1459  0.2441 -0.1591
  444PEP     CB14061  20.303   4.131  19.229 -0.0334  0.1045  0.1529
  444PEP     CB14062  19.994   3.888  19.432 -0.2958  0.2199 -0.1650
  444PEP     CB14063  19.724   3.932  19.748  0.0978 -0.0412 -0.0313
  444PEP     CB14064  19.534   4.126  20.016  0.0462  0.1063 -0.0676
  444PEP     CB14065  19.708   4.182  20.384 -0.0395 -0.1271  0.1307
  444PEP     CB14066  20.152   4.257  20.544 -0.1734 -0.1492  0.0491
  444PEP     CB14067  20.471   4.144  20.778  0.1955 -0.2750 -0.1665
  444PEP     CB14068  20.638   4.096  21.177 -0.3145  0.1056 -0.2268
  444PEP     CB14069  20.627   4.169  21.581  0.1372  0.0070 -0.3470
  444PEP     CB14070  20.696   4.105  21.961 -0.0038  0.4799 -0.0522
  444PEP     CB14071  20.939   3.795  22.103 -0.2541 -0.6811 -0.0639
  444PEP     CB14072  21.194   3.631  22.453 -0.3263  0.1596  0.3500
  444PEP     CB14073  21.703   3.581  22.373  0.0056  0.4865 -0.4393
  444PEP     CB14074  22.135   3.674  22.260 -0.0491  0.0251  0.0612
  444PEP     CB14075  22.517   3.628  22.052 -0.3003 -0.2195  0.0172
  444PEP     CB14076  22.792   3.250  21.982 -0.1014  0.0375  0.1268
  444PEP     CB14077  22.874   2.805  22.047  0.0350  0.3108 -0.0879
  444PEP     CB14078  23.358   2.646  21.873 -0.1457  0.3647  0.1277
  444PEP     CB14079  23.595   2.927  21.661 -0.1800  0.1208  0.1991
  444PEP     CB14080  23.945   3.156  21.572 -0.0880 -0.0365 -0.0462
  445PEP     CB14081  10.901   8.692   2.985 -0.3199  0.0722  0.2085
  445PEP     CB14082  10.673   8.686   2.580  0.2769  0.2440 -0.1072
  445PEP     CB14083  10.517   8.507   2.214  0.1244  0.0576  0.2439
  445PEP     CB14084  10.288   8.420   1.909 -0.0927  0.3394 -0.0092
  445PEP     CB14085  10.162   8.318   1.482 -0.5321 -0.0304  0.0242
  445PEP     CB14086   9.870   8.147   1.159  0.5109  0.0416  0.0410
  445PEP     CB14087   9.659   8.376   0.783  0.0225  0.0946  0.0313
  445PEP     CB14088   9.254   8.454   0.595  0.0803  0.0937 -0.1761
  445PEP     CB14089   8.905   8.471   0.751 -0.1909  0.3676  0.0021
  445PEP     CB14090   8.469   8.283   0.943  0.2955  0.3954  0.2890
  445PEP     CB14091   8.066   8.173   0.924 -0.2879  0.3583 -0.1724
  445PEP     CB14092   7.663   8.050   1.158  0.1558  0.4681 -0.0724
  445PEP     CB14093   7.165   8.075   1.132 -0.1081  0.0536 -0.2018
  445PEP     CB14094   6.806   7.963   1.398  0.2045  0.0042 -0.0617
  445PEP     CB14095   6.606   7.548   1.528 -0.0612  0.0333 -0.1524
  445PEP     CB14096   6.640   7.414   1.967 -0.0844  0.2249  0.3053
  445PEP     CB14097   6.930   7.484   2.203  0.1281 -0.4873 -0.1261
  445PEP     CB14098   7.166   7.874   2.211  0.1724  0.1600 -0.1334
  445PEP     CB14099   7.313   8.306   2.214  0.0951  0.5021 -0.1531
  445PEP     CB14100   7.377   8.686   2.409  0.1040  0.2315  0.0909
  445PEP     CB14101   7.254   9.015   2.690 -0.0204  0.0188 -0.0304
  445PEP     CB14102   7.026   9.335   2.908  0.1012  0.1651  0.4364
  445PEP     CB14103   6.677   9.377   3.027  0.5493 -0.1819 -0.1258
  445PEP     CB14104   6.315   9.386   3.207 -0.1876  0.0344 -0.1910
  445PEP     CB14105   6.163   9.138   3.537  0.0504 -0.0255 -0.1702
  445PEP     CB14106   5.800   8.881   3.756  0.1015  0.1784  0.1354
  445PEP     CB14107   5.656   8.491   3.910 -0.0789 -0.4591  0.5284
  445PEP     CB14108   5.367   8.275   4.203 -0.1669  0.2507  0.0660
  445PEP     CB14109   5.103   8.307   4.577  0.1679  0.0288 -0.7306
  445PEP     CB14110   4.787   8.341   4.977  0.0971 -0.2095  0.4806
  445PEP     CB14111   4.775   7.905   5.225 -0.0056  0.3400 -0.0029
  445PEP     CB14112   4.952   7.416   5.054  0.1400 -0.1115 -0.0289
  445PEP     CB14113   5.306   7.274   4.858 -0.2824  0.0578 -0.2537
  445PEP     CB14114   5.334   7.165   4.517 -0.3244 -0.0453  0.0986
  445PEP     CB14115   5.243   6.855   4.251  0.2024  0.5089  0.2361
  445PEP     CB14116   5.210   6.785   3.769  0.1737 -0.0879 -0.1201
  445PEP     CB14117   5.074   7.125   3.457  0.0778 -0.0185  0.0127
  445PEP     CB14118   4.712   7.403   3.543 -0.1578  0.0898  0.3299
  445PEP     CB14119   4.361   7.332   3.900 -0.1062 -0.3495  0.0212
  445PEP     CB14120   4.528   7.319   4.294 -0.3122 -0.2296 -0.0937
  446PEP     CB14121  13.892   0.809   0.762  0.5240  0.0211  0.0969
  446PEP     CB14122  13.738   0.836   0.321  0.0035 -0.2465 -0.3536
  446PEP     CB14123  13.385   0.795   0.128 -0.0498  0.0425  0.2442
  446PEP     CB14124  13.000   0.770   0.002  0.1749 -0.0424 -0.1355
  446PEP     CB14125  12.785   0.598  -0.415  0.0785 -0.0838  0.1277
  446PEP     CB14126  12.951   0.631  -0.852 -0.3390  0.1451 -0.6720
  446PEP     CB14127  13.379   0.849  -0.936 -0.1952  0.0754 -0.0126
  446PEP     CB14128  13.799   0.810  -1.309  0.0610  0.0474 -0.1731
  446PEP     CB14129  13.874   0.862  -1.762 -0.4099 -0.3488  0.1422
  446PEP     CB14130  13.568   0.838  -2.119  0.0732  0.1691  0.2054
  446PEP     CB14131  13.264   1.021  -2.403  0.2374  0.0517  0.2049
  446PEP     CB14132  13.418   1.245  -2.778 -0.3644  0.0852 -0.0137
  446PEP     CB14133  13.635   1.524  -3.001 -0.4195 -0.4200  0.4140
  446PEP     CB14134  13.450   1.944  -3.217  0.0955 -0.1995  0.2749
  446PEP     CB14135  13.045   2.154  -3.110 -0.0334 -0.0150  0.1971
  446PEP     CB14136  12.675   2.294  -3.073  0.0806  0.1412  0.2546
  446PEP     CB14137  12.279   2.561  -3.106 -0.1819  0.3857  0.0292
  446PEP     CB14138  12.021   2.891  -3.145  0.3367  0.0244 -0.1395
  446PEP     CB14139  12.096   3.237  -3.475  0.4162 -0.1613 -0.1837
  446PEP     CB14140  12.278   3.270  -3.833  0.0807  0.0238 -0.0310
  446PEP     CB14141  12.568   3.427  -4.098  0.1012  0.2936  0.0486
  446PEP     CB14142  12.908   3.423  -4.425 -0.0925  0.0750  0.3035
  446PEP     CB14143  13.278   3.573  -4.671  0.2218  0.4188 -0.2170
  446PEP     CB14144  13.630   3.825  -4.537  0.3344  0.0746  0.2647
  446PEP     CB14145  14.032   3.735  -4.604 -0.4430  0.0435  0.2156
  446PEP     CB14146  14.266   3.433  -4.643 -0.0861 -0.1958  0.2320
  446PEP     CB14147  14.433   2.999  -4.775  0.2404 -0.0867  0.0569
  446PEP     CB14148  14.395   2.719  -5.117 -0.2902  0.2951  0.2101
  446PEP     CB14149  14.033   2.812  -5.410 -0.2253 -0.1243 -0.3245
  446PEP     CB14150  13.785   3.109  -5.311 -0.0635 -0.0141 -0.5315
  446PEP     CB14151  14.012   3.348  -5.066 -0.0826 -0.1921  0.1942
  446PEP     CB14152  14.382   3.619  -5.130  0.2854  0.0932 -0.0014
  446PEP     CB14153  14.777   3.678  -5.066  0.1617 -0.3355 -0.0661
  446PEP     CB14154  15.134   3.577  -4.882  0.1494 -0.3248 -0.2971
  446PEP     CB14155  15.605   3.409  -4.660  0.3937 -0.2165  0.2225
  446PEP     CB14156  15.955   3.180  -4.582  0.1901  0.2290 -0.1970
  446PEP     CB14157  16.194   3.006  -4.389  0.0309  0.1962  0.2900
  446PEP     CB14158  16.422   2.979  -4.149  0.0298 -0.3798 -0.1223
  446PEP     CB14159  16.428   2.857  -3.688  0.4083 -0.1274 -0.2334
  446PEP     CB14160  16.430   2.881  -3.299 -0.4515 -0.1583  0.4804
  447PEP     CB14161  16.263   9.768  17.407 -0.0145  0.0571  0.1392
  447PEP     CB14162  16.697   9.574  17.383  0.0628 -0.0154  0.0122
  447PEP     CB14163  17.002   9.478  17.060  0.0543  0.1364  0.2276
  447PEP     CB14164  17.177   9.197  16.786  0.2442 -0.0470 -0.1545
  447PEP     CB14165  17.280   8.886  16.553  0.1131 -0.4102 -0.3055
  447PEP     CB14166  17.275   8.490  16.359  0.2110 -0.0470  0.1666
  447PEP     CB14167  17.362   8.058  16.462 -0.0887 -0.0177 -0.1264
  447PEP     CB14168  17.676   7.733  16.444 -0.0765  0.3594  0.2166
  447PEP     CB14169  17.989   7.380  16.636  0.0388  0.2544 -0.3372
  447PEP     CB14170  18.255   7.265  16.820  0.1926 -0.0784  0.1080
  447PEP     CB14171  18.520   7.351  17.158 -0.0135  0.0178  0.0369
  447PEP     CB14172  18.694   7.181  17.499 -0.4065 -0.0944 -0.0733
  447PEP     CB14173  18.876   6.702  17.658 -0.2406 -0.1561  0.1729
  447PEP     CB14174  18.645   6.326  17.593  0.0340 -0.4315  0.0906
  447PEP     CB14175  18.506   5.972  17.258  0.1054  0.4813  0.2436
  447PEP     CB14176  18.467   5.615  16.982 -0.5198 -0.2944 -0.2714
  447PEP     CB14177  18.589   5.489  16.506  0.2502  0.3579 -0.0540
  447PEP     CB14178  18.770   5.137  16.233 -0.1016  0.1111  0.0659
  447PEP     CB14179  18.639   4.716  16.064 -0.1339  0.2217 -0.0974
  447PEP     CB14180  18.558   4.319  16.016  0.6451 -0.2287  0.0806
  447PEP     CB14181  18.323   3.996  16.116 -0.2163 -0.3051  0.3132
  447PEP     CB14182  17.980   3.769  16.183 -0.2780 -0.1421 -0.1390
  447PEP     CB14183  17.729   3.737  16.352  0.3313 -0.0388 -0.1554
  447PEP     CB14184  17.320   3.584  16.561 -0.2563  0.1614 -0.0505
  447PEP     CB14185  17.038   3.429  16.735 -0.3013  0.0351  0.4459
  447PEP     CB14186  16.836   3.182  17.024 -0.0985  0.0328 -0.0035
  447PEP     CB14187  16.424   3.294  17.343  0.1000  0.1203  0.0194
  447PEP     CB14188  16.321   3.650  17.670 -0.0982 -0.3637 -0.1164
  447PEP     CB14189  16.266   4.161  17.839 -0.6645  0.0400 -0.0963
  447PEP     CB14190  16.325   4.544  18.065  0.0199  0.0954  0.0217
  447PEP     CB14191  16.648   4.786  18.241 -0.0518  0.3754 -0.1679
  447PEP     CB14192  16.710   5.218  18.263 -0.2559 -0.2373  0.1097
  447PEP     CB14193  16.543   5.486  17.989 -0.0661 -0.1760 -0.3531
  447PEP     CB14194  16.153   5.603  17.852  0.2957 -0.2484  0.0217
  447PEP     CB14195  15.687   5.488  17.802 -0.0914 -0.4352 -0.0485
  447PEP     CB14196  15.324   5.201  17.738  0.2654 -0.2562 -0.4925
  447PEP     CB14197  14.936   5.176  17.806  0.4518 -0.0719  0.0131
  447PEP     CB14198  14.714   5.453  17.953  0.4053 -0.0498  0.3922
  447PEP     CB14199  14.751   5.915  17.967  0.0000  0.0576  0.0903
  447PEP     CB14200  14.602   6.251  17.822 -0.1141  0.1722  0.3159
  448PEP     CB14201   8.376   4.971  19.959  0.0737  0.1620  0.3033
  448PEP     CB14202   8.206   4.818  20.322 -0.1108 -0.2409  0.0258
  448PEP     CB14203   8.066   4.415  20.510  0.2468  0.0205  0.0268
  448PEP     CB14204   8.068   3.979  20.569  0.0141  0.3604 -0.2068
  448PEP     CB14205   7.817   3.549  20.734  0.2066 -0.0378  0.0115
  448PEP     CB14206   7.818   3.456  21.146 -0.3187  0.0133  0.3622
  448PEP     CB14207   8.028   3.559  21.503  0.0365  0.3766  0.1200
  448PEP     CB14208   8.217   3.898  21.767  0.2224 -0.0393 -0.2951
  448PEP     CB14209   8.601   3.982  22.138 -0.0986  0.2126  0.1760
  448PEP     CB14210   8.749   4.095  22.568 -0.1691  0.1889 -0.0098
  448PEP     CB14211   9.144   4.056  22.687  0.1363 -0.3363 -0.0635
  448PEP     CB14212   9.500   4.138  22.448  0.0836  0.2688 -0.0839
  448PEP     CB14213   9.575   4.401  22.147  0.0862 -0.0992 -0.4444
  448PEP     CB14214   9.652   4.547  21.725 -0.3084 -0.0640 -0.1429
  448PEP     CB14215   9.481   4.598  21.283  0.4459  0.1661 -0.2524
  448PEP     CB14216   9.313   4.338  20.869 -0.1816 -0.0110 -0.0103
  448PEP     CB14217   9.316   4.069  20.486  0.3211 -0.0631  0.2661
  448PEP     CB14218   9.155   4.177  20.055 -0.2051  0.5259 -0.4996
  448PEP     CB14219   8.991   4.229  19.720  0.2652 -0.1644  0.2252
  448PEP     CB14220   8.951   4.302  19.259  0.6688  0.0474  0.0783
  448PEP     CB14221   8.727   4.209  18.811  0.1527  0.1629 -0.0021
  448PEP     CB14222   8.495   4.226  18.429 -0.2533 -0.4888  0.4530
  448PEP     CB14223   8.164   4.002  18.189  0.1511 -0.1972 -0.4876
  448PEP     CB14224   8.108   3.591  18.064  0.1860 -0.3681 -0.0331
  448PEP     CB14225   7.895   3.341  17.627 -0.1520 -0.1696  0.1161
  448PEP     CB14226   7.885   3.082  17.282  0.2098  0.3627 -0.2544
  448PEP     CB14227   8.035   3.263  16.767 -0.1000  0.1691 -0.0069
  448PEP     CB14228   8.197   3.508  16.439  0.3558  0.2095  0.2150
  448PEP     CB14229   8.117   3.703  16.061 -0.3276 -0.3363  0.2567
  448PEP     CB14230   8.290   3.482  15.628 -0.2872 -0.0103  0.0130
  448PEP     CB14231   8.558   3.313  15.292  0.0058  0.5296 -0.2373
  448PEP     CB14232   8.804   3.098  14.970  0.2649 -0.1803 -0.0251
  448PEP     CB14233   8.981   2.743  14.913 -0.3975  0.0359 -0.0233
  448PEP     CB14234   9.228   2.344  15.071 -0.0567 -0.1484 -0.1300
  448PEP     CB14235   9.148   1.855  15.202  0.1115 -0.4384  0.0015
  448PEP     CB14236   8.832   1.657  15.330 -0.0417  0.2304 -0.0399
  448PEP     CB14237   8.503   1.662  15.613 -0.0863 -0.0281  0.3373
  448PEP     CB14238   8.139   1.637  15.896  0.3492  0.0756 -0.1296
  448PEP     CB14239   7.854   1.331  16.072  0.0434 -0.0436 -0.3624
  448PEP     CB14240   7.782   0.937  16.058 -0.2216  0.5616 -0.1363
  449PEP     CB14241  15.100   9.866   7.628  0.2013 -0.0900 -0.2846
  449PEP     CB14242  15.011   9.758   8.144 -0.0504  0.2964  0.4205
  449PEP     CB14243  15.032   9.915   8.501 -0.3313 -0.0819  0.1157
  449PEP     CB14244  15.105  10.155   8.884  0.0617 -0.2191  0.0443
  449PEP     CB14245  15.350  10.050   9.333  0.0361 -0.3530  0.0252
  449PEP     CB14246  15.641   9.982   9.551  0.1383 -0.0452 -0.4407
  449PEP     CB14247  15.897   9.633   9.498  0.0871 -0.3747 -0.0102
  449PEP     CB14248  15.962   9.359   9.094  0.1123  0.2133 -0.0966
  449PEP     CB14249  16.187   9.242   8.764  0.3602 -0.1667 -0.3298
  449PEP     CB14250  16.193   9.059   8.341  0.5172  0.1007  0.1113
  449PEP     CB14251  16.353   9.059   7.890 -0.2726  0.0520 -0.2752
  449PEP     CB14252  16.577   9.136   7.539 -0.3289  0.0470  0.1015
  449PEP     CB14253  17.020   8.986   7.533 -0.1028 -0.2298 -0.2635
  449PEP     CB14254  17.196   8.682   7.769  0.1761  0.0041 -0.0318
  449PEP     CB14255  17.154   8.299   7.822  0.2200  0.1536 -0.2005
  449PEP     CB14256  17.088   7.923   8.166 -0.1490  0.0465 -0.1225
  449PEP     CB14257  16.962   8.036   8.560  0.0068 -0.1013 -0.0791
  449PEP     CB14258  16.816   8.448   8.496  0.0780  0.0251 -0.1762
  449PEP     CB14259  16.760   8.673   8.141  0.2599 -0.1049  0.1599
  449PEP     CB14260  16.738   8.569   7.695 -0.2872 -0.0487 -0.2916
  449PEP     CB14261  16.942   8.414   7.394 -0.3010  0.2180  0.1147
  449PEP     CB14262  17.094   8.092   7.250 -0.0727 -0.1991 -0.1724
  449PEP     CB14263  17.451   7.904   7.038 -0.0156  0.1676  0.4754
  449PEP     CB14264  17.933   7.990   7.110  0.3069 -0.1199 -0.2961
  449PEP     CB14265  18.223   8.334   7.125  0.1805  0.2102  0.0041
  449PEP     CB14266  18.502   8.767   7.134 -0.1973  0.5310 -0.1405
  449PEP     CB14267  18.477   9.116   7.466 -0.0110 -0.0462 -0.5169
  449PEP     CB14268  18.225   9.137   7.864 -0.2661  0.1262 -0.2771
  449PEP     CB14269  17.990   8.988   8.174  0.4865 -0.2861  0.1896
  449PEP     CB14270  17.615   9.034   8.541  0.2177  0.0873 -0.7281
  449PEP     CB14271  17.393   9.234   8.898  0.1319 -0.1414  0.0530
  449PEP     CB14272  17.105   9.523   9.253  0.1458 -0.1901 -0.1239
  449PEP     CB14273  16.878   9.701   9.542  0.1965 -0.1709  0.1117
  449PEP     CB14274  16.748   9.661   9.990 -0.2755  0.2945 -0.0374
  449PEP     CB14275  16.931   9.799  10.407  0.2295  0.3845 -0.0441
  449PEP     CB14276  17.328   9.962  10.503 -0.0239 -0.1076  0.1249
  449PEP     CB14277  17.738   9.962  10.647  0.3335  0.0302 -0.0086
  449PEP     CB14278  18.225  10.049  10.761  0.4789 -0.1151 -0.1681
  449PEP     CB14279  18.604  10.184  11.034  0.0431 -0.4504  0.0502
  449PEP     CB14280  18.952  10.318  11.406  0.1270 -0.1055 -0.0718
  450PEP     CB14281   9.005  11.892   6.659  0.0203  0.0653  0.4988
  450PEP     CB14282   9.383  11.683   6.729  0.1310 -0.3436  0.3413
  450PEP     CB14283   9.896  11.915   6.582 -0.0631 -0.0663  0.0496
  450PEP     CB14284   9.897  12.158   6.333  0.0635 -0.2091 -0.0360
  450PEP     CB14285   9.587  12.539   6.262  0.1287 -0.0226 -0.0859
  450PEP     CB14286   9.282  12.620   6.016 -0.4618 -0.1365 -0.1110
  450PEP     CB14287   8.837  12.621   5.901  0.0900 -0.1430  0.2216
  450PEP     CB14288   8.465  12.819   5.744 -0.0773  0.0659 -0.1612
  450PEP     CB14289   8.202  13.153   5.839  0.4397 -0.1226 -0.1395
  450PEP     CB14290   7.737  13.326   5.778  0.1917  0.0753  0.4779
  450PEP     CB14291   7.422  13.260   5.526  0.2335 -0.1544  0.2341
  450PEP     CB14292   7.034  13.392   5.416 -0.1927 -0.2913 -0.3046
  450PEP     CB14293   6.920  13.784   5.308  0.0806  0.1034  0.3174
  450PEP     CB14294   7.123  14.159   5.535  0.0807  0.2832  0.3533
  450PEP     CB14295   7.423  14.132   5.841  0.2685 -0.1984 -0.1773
  450PEP     CB14296   7.662  14.245   6.256 -0.2754  0.3029  0.1759
  450PEP     CB14297   7.481  14.392   6.595  0.0011  0.2237 -0.3013
  450PEP     CB14298   7.142  14.270   6.915  0.2044 -0.0148 -0.1540
  450PEP     CB14299   7.091  14.248   7.409  0.0350  0.1226 -0.4525
  450PEP     CB14300   6.928  14.552   7.650 -0.0457 -0.1970  0.0851
  450PEP     CB14301   6.792  14.963   7.593  0.1543  0.0865 -0.3978
  450PEP     CB14302   6.779  15.217   7.224 -0.2951  0.2719 -0.1335
  450PEP     CB14303   6.561  15.099   6.898 -0.2529  0.1443  0.1293
  450PEP     CB14304   6.229  15.240   6.606  0.1203  0.3396  0.1478
  450PEP     CB14305   5.948  15.567   6.465  0.0018  0.0279 -0.1159
  450PEP     CB14306   5.734  15.763   6.255  0.4442  0.1753 -0.1791
  450PEP     CB14307   5.756  16.008   5.928 -0.2246  0.2384 -0.0208
  450PEP     CB14308   6.084  16.180   5.572 -0.2561  0.0534 -0.0421
  450PEP     CB14309   6.188  16.609   5.244 -0.1408 -0.1906 -0.0133
  450PEP     CB14310   6.409  16.787   4.991  0.1714  0.0408 -0.1016
  450PEP     CB14311   6.848  16.968   4.897 -0.0929  0.2596  0.0134
  450PEP     CB14312   7.247  16.754   5.007  0.0646 -0.3971 -0.0316
  450PEP     CB14313   7.375  16.548   5.373  0.2229 -0.2411  0.3275
  450PEP     CB14314   7.437  16.867   5.737 -0.3107  0.0072  0.3871
  450PEP     CB14315   7.603  17.331   5.644  0.2228 -0.0242  0.3018
  450PEP     CB14316   7.732  17.724   5.716  0.2464  0.3066 -0.4553
  450PEP     CB14317   7.809  18.139   5.536 -0.2678  0.0349 -0.1833
  450PEP     CB14318   8.143  18.386   5.222 -0.1927 -0.0679  0.4013
  450PEP     CB14319   8.556  18.192   5.171 -0.1578 -0.3657  0.5113
  450PEP     CB14320   8.908  17.934   5.258  0.3048 -0.1847  0.1247
  451PEP     CB14321  17.151   3.143   3.046  0.0824 -0.3397 -0.1088
  451PEP     CB14322  17.115   3.363   3.384  0.1646 -0.0446 -0.3628
  451PEP     CB14323  16.892   3.632   3.582  0.0783 -0.2236  0.0614
  451PEP     CB14324  16.640   3.874   3.524  0.3107 -0.0372  0.2212
  451PEP     CB14325  16.354   3.964   3.263 -0.1500  0.0405  0.1600
  451PEP     CB14326  15.989   3.770   3.051  0.5636 -0.1532  0.0161
  451PEP     CB14327  15.574   3.668   3.003  0.1285 -0.1971  0.0036
  451PEP     CB14328  15.311   3.995   2.832 -0.1688  0.3035  0.0518
  451PEP     CB14329  15.453   4.364   2.645  0.5830 -0.5642 -0.0618
  451PEP     CB14330  15.497   4.509   2.153 -0.1336  0.0014 -0.1838
  451PEP     CB14331  15.660   4.627   1.714  0.0257  0.0099  0.3248
  451PEP     CB14332  15.863   4.989   1.677  0.2777  0.0218 -0.1631
  451PEP     CB14333  16.098   5.391   1.547  0.4590 -0.1065  0.2883
  451PEP     CB14334  16.293   5.638   1.815  0.3702 -0.0071  0.2785
  451PEP     CB14335  16.484   5.599   2.210 -0.1559  0.1063  0.0410
  451PEP     CB14336  16.317   5.499   2.563  0.2224 -0.0616  0.1026
  451PEP     CB14337  15.925   5.393   2.768 -0.0952 -0.1718  0.1773
  451PEP     CB14338  15.611   5.020   3.033  0.1856  0.3493  0.0695
  451PEP     CB14339  15.591   4.618   3.061  0.0414  0.1101  0.3191
  451PEP     CB14340  16.020   4.242   3.091 -0.1376  0.3266  0.1496
  451PEP     CB14341  16.392   4.392   2.907  0.1745  0.2270 -0.0416
  451PEP     CB14342  16.602   4.527   2.522  0.2821 -0.1042 -0.2257
  451PEP     CB14343  16.463   4.282   2.181  0.3678  0.0299  0.4670
  451PEP     CB14344  16.110   4.068   2.183  0.2039  0.2875  0.1127
  451PEP     CB14345  15.683   4.011   2.020 -0.1727  0.1070  0.3601
  451PEP     CB14346  15.263   3.739   1.795 -0.0317 -0.1121 -0.1244
  451PEP     CB14347  14.868   3.659   1.403 -0.1361 -0.1518 -0.1606
  451PEP     CB14348  14.600   3.898   1.219 -0.0436  0.0726  0.2826
  451PEP     CB14349  14.457   4.317   1.215 -0.4299 -0.0099 -0.0512
  451PEP     CB14350  14.645   4.613   1.088  0.1512  0.1458 -0.1577
  451PEP     CB14351  14.485   5.026   1.099 -0.0112 -0.3483  0.0135
  451PEP     CB14352  14.124   5.107   1.016 -0.0235  0.2788  0.1699
  451PEP     CB14353  13.895   5.155   0.681 -0.3169 -0.2770 -0.3665
  451PEP     CB14354  13.860   5.136   0.197  0.4594  0.0470 -0.1780
  451PEP     CB14355  13.484   5.229  -0.091 -0.2589 -0.4461  0.5256
  451PEP     CB14356  13.114   5.471  -0.223  0.0853 -0.3740  0.2845
  451PEP     CB14357  12.767   5.746  -0.175  0.1235  0.0225  0.2519
  451PEP     CB14358  12.578   6.012  -0.054  0.0976 -0.1076  0.1443
  451PEP     CB14359  12.616   6.404   0.177 -0.0494 -0.1147  0.0677
  451PEP     CB14360  12.855   6.685   0.414 -0.4497 -0.1389  0.1659
  452PEP     CB14361   0.940  20.392  10.736  0.0729  0.0300 -0.3952
  452PEP     CB14362   0.989  20.347  11.171  0.0546  0.2103  0.2895
  452PEP     CB14363   1.307  20.245  11.421 -0.1013 -0.2736  0.4009
  452PEP     CB14364   1.735  20.074  11.217 -0.1455 -0.2622 -0.3187
  452PEP     CB14365   1.768  19.810  10.817  0.1383 -0.3985 -0.0370
  452PEP     CB14366   1.639  19.525  10.589 -0.0479 -0.1675 -0.0359
  452PEP     CB14367   1.539  19.222  10.233  0.1294  0.0229 -0.1480
  452PEP     CB14368   1.668  19.052   9.811 -0.0789  0.2871 -0.1621
  452PEP     CB14369   1.884  18.775   9.615  0.1675 -0.0453 -0.1071
  452PEP     CB14370   1.960  18.428   9.663 -0.0330 -0.0823 -0.4609
  452PEP     CB14371   2.207  18.213   9.850  0.0760  0.0390  0.0874
  452PEP     CB14372   2.422  18.081  10.295 -0.0288 -0.0379  0.3721
  452PEP     CB14373   2.692  18.239  10.678 -0.0754 -0.0082 -0.0640
  452PEP     CB14374   2.873  18.242  11.133 -0.0610 -0.4071  0.1658
  452PEP     CB14375   3.049  18.372  11.473 -0.2177  0.0883  0.2113
  452PEP     CB14376   2.991  18.213  11.899  0.4268 -0.0497 -0.1378
  452PEP     CB14377   3.180  17.921  12.179 -0.2062 -0.0003 -0.2465
  452PEP     CB14378   3.470  17.554  12.079 -0.1022 -0.1080  0.1794
  452PEP     CB14379   3.754  17.473  11.840  0.0018  0.2445 -0.1947
  452PEP     CB14380   4.012  17.770  11.612 -0.0706  0.3771 -0.1840
  452PEP     CB14381   4.001  18.190  11.715  0.5454 -0.0795  0.6609
  452PEP     CB14382   4.005  18.627  12.008 -0.1805  0.0932 -0.0802
  452PEP     CB14383   3.836  18.999  12.030  0.0102  0.1387  0.2111
  452PEP     CB14384   3.418  19.235  12.093  0.3123  0.0734 -0.0119
  452PEP     CB14385   3.026  19.027  12.290  0.1863  0.2670  0.3275
  452PEP     CB14386   2.815  18.621  12.251  0.0923 -0.0809 -0.1034
  452PEP     CB14387   2.447  18.300  12.024  0.1702 -0.0413  0.0876
  452PEP     CB14388   2.275  17.946  12.171 -0.0204  0.2866 -0.0382
  452PEP     CB14389   1.983  17.657  12.240 -0.1333  0.1977 -0.2000
  452PEP     CB14390   1.891  17.316  12.677 -0.0694  0.0255  0.2238
  452PEP     CB14391   2.188  17.284  13.023  0.1940 -0.0479 -0.1765
  452PEP     CB14392   2.555  17.438  13.349 -0.0022  0.0200 -0.1706
  452PEP     CB14393   2.914  17.618  13.549 -0.4584  0.0329 -0.4278
  452PEP     CB14394   3.236  17.600  13.902  0.2797  0.0406  0.1655
  452PEP     CB14395   3.300  17.483  14.305  0.2459  0.2418 -0.1893
  452PEP     CB14396   2.939  17.569  14.547 -0.0032 -0.1488  0.1080
  452PEP     CB14397   2.538  17.392  14.585  0.1368  0.0502 -0.0151
  452PEP     CB14398   2.471  17.183  14.221 -0.0108 -0.1234  0.3465
  452PEP     CB14399   2.509  17.111  13.718 -0.1399  0.1510 -0.1395
  452PEP     CB14400   2.540  16.985  13.253  0.2662 -0.1354 -0.1727
  453PEP     CB14401   0.557  15.750  10.287  0.5274  0.0689  0.0128
  453PEP     CB14402   0.688  15.352  10.228 -0.3665  0.2722 -0.2279
  453PEP     CB14403   0.997  15.123  10.044 -0.3428  0.1148 -0.0822
  453PEP     CB14404   1.443  14.996   9.993 -0.1458  0.4198  0.3893
  453PEP     CB14405   1.854  14.776  10.087  0.0427  0.1518  0.1815
  453PEP     CB14406   2.268  14.830  10.087  0.2018 -0.0127 -0.2929
  453PEP     CB14407   2.637  15.096   9.763  0.0389 -0.3561  0.1276
  453PEP     CB14408   2.644  15.528   9.647  0.1667  0.0438  0.3641
  453PEP     CB14409   2.421  15.803   9.759  0.0652  0.0235  0.0985
  453PEP     CB14410   1.947  16.000   9.678  0.2408 -0.1636  0.3607
  453PEP     CB14411   1.761  16.399   9.798  0.0025 -0.4242  0.2323
  453PEP     CB14412   1.529  16.682  10.053  0.0453 -0.0249 -0.2749
  453PEP     CB14413   1.502  17.019  10.353  0.1416  0.0408 -0.2559
  453PEP     CB14414   1.904  17.255  10.631 -0.0918  0.0446 -0.3237
  453PEP     CB14415   2.331  17.078  10.521 -0.1606 -0.0019  0.2482
  453PEP     CB14416   2.634  16.705  10.577 -0.0407 -0.0183 -0.0473
  453PEP     CB14417   2.729  16.378  10.633 -0.2046  0.3197 -0.0806
  453PEP     CB14418   2.647  15.968  10.669  0.3384 -0.3426  0.2682
  453PEP     CB14419   2.461  15.577  10.733  0.3473  0.0173  0.2132
  453PEP     CB14420   2.267  15.233  10.742 -0.0524  0.0253  0.0862
  453PEP     CB14421   2.106  14.856  10.521 -0.0972 -0.0542 -0.3483
  453PEP     CB14422   1.810  14.478  10.533 -0.1799  0.2403  0.3987
  453PEP     CB14423   1.408  14.244  10.650  0.0167 -0.0129 -0.0683
  453PEP     CB14424   1.089  14.104  10.717  0.7438  0.2838  0.1021
  453PEP     CB14425   0.740  13.868  10.932 -0.3700  0.0044 -0.1674
  453PEP     CB14426   0.575  13.673  11.274  0.2799 -0.1981  0.1923
  453PEP     CB14427   0.830  13.523  11.655  0.2803  0.0717 -0.0595
  453PEP     CB14428   1.303  13.454  11.669 -0.5631 -0.1200  0.3171
  453PEP     CB14429   1.733  13.569  11.881 -0.0517  0.0234 -0.2980
  453PEP     CB14430   1.955  13.775  12.278  0.3235  0.2666 -0.1415
  453PEP     CB14431   2.416  13.944  12.385 -0.2638  0.2624 -0.2039
  453PEP     CB14432   2.749  13.936  12.072 -0.0729 -0.0451 -0.2620
  453PEP     CB14433   2.713  13.662  11.733  0.1644  0.0074  0.2860
  453PEP     CB14434   2.803  13.272  11.484 -0.1589 -0.3537 -0.1258
  453PEP     CB14435   3.150  12.873  11.419 -0.0297  0.1026  0.2503
  453PEP     CB14436   3.431  12.507  11.651 -0.0674 -0.0618 -0.0609
  453PEP     CB14437   3.788  12.493  11.861  0.1437  0.2182 -0.2506
  453PEP     CB14438   4.197  12.271  11.915 -0.5714 -0.2010  0.1346
  453PEP     CB14439   4.578  12.044  11.854 -0.3332 -0.2045 -0.1945
  453PEP     CB14440   4.705  11.752  12.006 -0.1227 -0.2871 -0.1230
  454PEP     CB14441   8.655   1.018  16.886 -0.0383  0.1775  0.0601
  454PEP     CB14442   8.584   1.161  17.281 -0.3326 -0.0719  0.0049
  454PEP     CB14443   8.299   1.078  17.678 -0.0828  0.0681  0.1424
  454PEP     CB14444   8.127   0.996  18.022  0.1653  0.0442 -0.1413
  454PEP     CB14445   7.925   0.974  18.386 -0.1684  0.0608  0.1034
  454PEP     CB14446   7.844   0.807  18.774 -0.0170 -0.1225 -0.2459
  454PEP     CB14447   8.013   0.508  18.968  0.3544  0.0059 -0.1616
  454PEP     CB14448   8.370   0.486  19.354  0.1332  0.1856 -0.0539
  454PEP     CB14449   8.787   0.413  19.378 -0.1761 -0.1802 -0.3421
  454PEP     CB14450   9.227   0.304  19.467  0.3486 -0.1680 -0.0726
  454PEP     CB14451   9.619   0.335  19.698 -0.1131 -0.0915  0.1268
  454PEP     CB14452  10.035   0.157  19.894  0.3556 -0.0325 -0.1558
  454PEP     CB14453  10.136  -0.167  20.072  0.2823 -0.0999  0.0936
  454PEP     CB14454  10.131  -0.564  20.228  0.2360  0.2847  0.0019
  454PEP     CB14455   9.939  -0.943  20.202 -0.0732  0.2425  0.2659
  454PEP     CB14456   9.829  -1.254  20.367 -0.2053  0.0891 -0.0174
  454PEP     CB14457  10.173  -1.493  20.682  0.4127  0.1566 -0.1539
  454PEP     CB14458  10.512  -1.831  20.698  0.1525  0.2441 -0.1185
  454PEP     CB14459  10.696  -2.141  20.474  0.0900 -0.0260  0.4212
  454PEP     CB14460  10.921  -2.454  20.267 -0.0363 -0.2540 -0.0440
  454PEP     CB14461  11.031  -2.666  19.934 -0.1925 -0.0697  0.2725
  454PEP     CB14462  11.066  -2.544  19.496 -0.1177 -0.4179  0.0782
  454PEP     CB14463  11.192  -2.199  19.273 -0.0877 -0.1269 -0.1853
  454PEP     CB14464  11.437  -1.816  19.276 -0.0064 -0.1432 -0.3070
  454PEP     CB14465  11.566  -1.472  19.526  0.3653 -0.1325 -0.2318
  454PEP     CB14466  11.445  -1.081  19.797  0.0596 -0.1254  0.4064
  454PEP     CB14467  11.531  -0.635  20.094 -0.1100  0.1196 -0.0339
  454PEP     CB14468  11.894  -0.379  20.314  0.0310 -0.0590 -0.0386
  454PEP     CB14469  12.110  -0.429  20.651 -0.1366  0.2392 -0.1764
  454PEP     CB14470  12.462  -0.679  20.802 -0.0370  0.0259 -0.0975
  454PEP     CB14471  12.867  -0.836  20.705 -0.1423  0.1137  0.0653
  454PEP     CB14472  13.093  -1.013  20.438 -0.3142 -0.2107 -0.0180
  454PEP     CB14473  13.397  -1.227  20.239  0.1474  0.3451 -0.3374
  454PEP     CB14474  13.452  -1.524  19.887  0.0188 -0.0433  0.1475
  454PEP     CB14475  13.424  -1.818  19.561  0.1720  0.2239  0.3065
  454PEP     CB14476  13.487  -2.073  19.288  0.2775  0.0212  0.1262
  454PEP     CB14477  13.292  -2.219  18.934 -0.0030 -0.2012 -0.2770
  454PEP     CB14478  13.215  -2.586  18.697  0.0042  0.2465  0.2132
  454PEP     CB14479  12.937  -2.859  18.381  0.2654 -0.2610  0.0037
  454PEP     CB14480  12.592  -3.121  18.271  0.1433  0.2009  0.1412
  455PEP     CB14481   6.959   0.646   0.993  0.0540  0.0835 -0.0747
  455PEP     CB14482   6.940   0.730   1.452 -0.2512 -0.0035  0.0648
  455PEP     CB14483   6.775   1.032   1.769  0.2499 -0.0763 -0.0699
  455PEP     CB14484   6.717   1.441   1.853 -0.1816 -0.3906  0.3295
  455PEP     CB14485   7.046   1.769   2.022 -0.0532  0.1290 -0.2172
  455PEP     CB14486   7.100   2.190   2.055  0.6044 -0.0801  0.2991
  455PEP     CB14487   6.863   2.573   2.158  0.3380  0.2079  0.0710
  455PEP     CB14488   6.762   2.956   2.499 -0.1397  0.1786  0.1149
  455PEP     CB14489   6.364   3.228   2.650 -0.0787 -0.4001  0.0126
  455PEP     CB14490   5.929   3.278   2.512  0.1300 -0.0676  0.0066
  455PEP     CB14491   5.627   3.667   2.414 -0.0653  0.3867  0.0619
  455PEP     CB14492   5.750   3.959   2.106 -0.1031 -0.2239  0.1237
  455PEP     CB14493   6.014   3.942   1.690 -0.0473  0.0563 -0.5494
  455PEP     CB14494   6.154   3.841   1.280 -0.1531 -0.0755 -0.3214
  455PEP     CB14495   6.343   3.937   0.856  0.0857  0.3080  0.0068
  455PEP     CB14496   6.685   3.868   0.542 -0.0616  0.1661 -0.1546
  455PEP     CB14497   7.032   4.122   0.444 -0.1570  0.1754  0.2602
  455PEP     CB14498   7.376   4.331   0.269  0.3321  0.1022 -0.3682
  455PEP     CB14499   7.532   4.483  -0.123 -0.1359  0.2429 -0.0760
  455PEP     CB14500   7.821   4.306  -0.469  0.1103 -0.0611 -0.0776
  455PEP     CB14501   8.144   4.067  -0.770 -0.1637  0.1989 -0.1842
  455PEP     CB14502   8.312   3.937  -1.022 -0.5027 -0.1233 -0.0783
  455PEP     CB14503   8.286   3.566  -1.261 -0.1998  0.0478  0.1210
  455PEP     CB14504   8.093   3.159  -1.409  0.3646 -0.4498 -0.5198
  455PEP     CB14505   8.137   2.841  -1.656  0.0314 -0.1929  0.1483
  455PEP     CB14506   8.475   2.519  -1.804  0.2019  0.0800 -0.2433
  455PEP     CB14507   8.889   2.535  -1.920  0.1969  0.1293  0.0071
  455PEP     CB14508   9.220   2.767  -1.783 -0.0952 -0.1595  0.1066
  455PEP     CB14509   9.211   2.855  -1.371  0.1393 -0.0982  0.1310
  455PEP     CB14510   9.035   2.849  -1.034 -0.2163  0.4899  0.1840
  455PEP     CB14511   8.636   2.778  -0.887 -0.3647 -0.2053  0.0962
  455PEP     CB14512   8.248   2.803  -1.093 -0.0184 -0.2537  0.0263
  455PEP     CB14513   7.787   2.910  -1.033 -0.0163  0.0667  0.0313
  455PEP     CB14514   7.413   3.173  -1.113  0.0559  0.0884  0.0662
  455PEP     CB14515   7.001   3.251  -1.359  0.0908  0.0144 -0.1632
  455PEP     CB14516   6.585   3.149  -1.334  0.1551 -0.1962  0.1444
  455PEP     CB14517   6.256   3.337  -0.963  0.0496  0.0354  0.0837
  455PEP     CB14518   6.439   3.623  -0.676  0.1733  0.3366 -0.2319
  455PEP     CB14519   6.834   3.921  -0.586 -0.0341 -0.1445 -0.2367
  455PEP     CB14520   7.205   4.068  -0.427  0.0183 -0.3564  0.2087
  456PEP     CB14521  19.415   3.068  20.362 -0.1292  0.0059  0.2318
  456PEP     CB14522  19.136   2.716  20.267 -0.2006  0.0379 -0.4182
  456PEP     CB14523  18.658   2.669  20.178 -0.0644  0.2310  0.2251
  456PEP     CB14524  18.299   2.350  20.106 -0.0707 -0.0062  0.0925
  456PEP     CB14525  18.167   2.220  19.761  0.1037  0.5956  0.0021
  456PEP     CB14526  18.184   2.279  19.358  0.0647 -0.1069  0.0202
  456PEP     CB14527  18.245   1.991  18.975  0.0170  0.0203  0.2708
  456PEP     CB14528  18.310   1.724  18.621  0.0694 -0.4820  0.4730
  456PEP     CB14529  18.183   1.503  18.272 -0.3542 -0.1928 -0.1497
  456PEP     CB14530  18.423   1.293  17.964  0.0948  0.2444  0.2196
  456PEP     CB14531  18.773   1.422  17.584 -0.0686 -0.0258 -0.1103
  456PEP     CB14532  19.142   1.719  17.654 -0.0283 -0.0307 -0.1334
  456PEP     CB14533  19.299   1.990  17.935  0.2864  0.0575 -0.2885
  456PEP     CB14534  19.303   2.402  17.956  0.1546 -0.0348 -0.3063
  456PEP     CB14535  19.187   2.704  17.688  0.1968 -0.4315 -0.0669
  456PEP     CB14536  18.813   2.661  17.419 -0.0556  0.2063  0.1900
  456PEP     CB14537  18.511   2.565  17.035 -0.0174 -0.3195 -0.0465
  456PEP     CB14538  18.179   2.697  16.913 -0.5838  0.1459  0.1085
  456PEP     CB14539  18.000   3.137  16.841 -0.2128  0.0212 -0.2349
  456PEP     CB14540  17.600   3.398  16.933 -0.1303 -0.1562  0.0919
  456PEP     CB14541  17.265   3.431  17.152 -0.3959 -0.0371 -0.1342
  456PEP     CB14542  16.840   3.702  17.243  0.1624  0.0040  0.0612
  456PEP     CB14543  16.547   3.711  16.918  0.0154  0.0186  0.3879
  456PEP     CB14544  16.560   3.451  16.559 -0.0981  0.4542 -0.1442
  456PEP     CB14545  16.876   2.958  16.540 -0.2156  0.1829  0.1798
  456PEP     CB14546  17.092   2.731  16.887 -0.2177  0.2502  0.2493
  456PEP     CB14547  17.192   2.862  17.247  0.1741 -0.1090 -0.0625
  456PEP     CB14548  17.425   3.151  17.578  0.0289 -0.3413  0.1117
  456PEP     CB14549  17.727   3.335  17.784 -0.1686  0.0163 -0.3903
  456PEP     CB14550  17.924   3.527  18.085 -0.2746 -0.2541  0.0891
  456PEP     CB14551  17.934   3.647  18.589 -0.0665 -0.0212 -0.1495
  456PEP     CB14552  17.983   3.395  18.942  0.1121  0.1101 -0.2657
  456PEP     CB14553  18.067   3.038  18.891  0.0595 -0.0441  0.1202
  456PEP     CB14554  17.864   3.025  18.462 -0.1761 -0.3492 -0.7466
  456PEP     CB14555  17.531   3.311  18.376  0.0123 -0.0605 -0.5487
  456PEP     CB14556  17.470   3.652  18.237 -0.5926  0.0776  0.0535
  456PEP     CB14557  17.406   4.052  18.217 -0.1106  0.0084 -0.5549
  456PEP     CB14558  16.990   4.299  18.247 -0.2941  0.1623 -0.1141
  456PEP     CB14559  16.572   4.124  18.323  0.1601 -0.1088  0.1737
  456PEP     CB14560  16.408   4.066  18.794 -0.1746 -0.1070  0.0337
  457PEP     CB14561   6.465  18.583   1.095 -0.1818  0.0600  0.0117
  457PEP     CB14562   6.339  18.510   0.776  0.0724 -0.1463  0.1524
  457PEP     CB14563   5.975  18.432   0.485  0.2086  0.0543 -0.0574
  457PEP     CB14564   5.575  18.222   0.610  0.0145  0.3524  0.1160
  457PEP     CB14565   5.385  18.085   1.018 -0.0977 -0.1751 -0.1251
  457PEP     CB14566   5.106  18.001   1.351 -0.0392 -0.3444  0.0924
  457PEP     CB14567   4.892  17.846   1.682  0.1372 -0.0914 -0.5895
  457PEP     CB14568   4.726  17.559   1.696  0.0446 -0.0301 -0.0297
  457PEP     CB14569   4.375  17.213   1.486 -0.2049  0.0151  0.3333
  457PEP     CB14570   3.952  17.114   1.783  0.4232  0.3757  0.0765
  457PEP     CB14571   3.829  16.998   2.239 -0.0413  0.0673  0.2210
  457PEP     CB14572   3.786  16.926   2.616 -0.1402  0.0871  0.1509
  457PEP     CB14573   4.012  17.142   2.872  0.1978  0.3260 -0.0437
  457PEP     CB14574   4.379  17.050   3.099  0.1602  0.2581 -0.0723
  457PEP     CB14575   4.638  17.064   3.410  0.2747 -0.0266 -0.1695
  457PEP     CB14576   4.926  16.843   3.653  0.1726 -0.2973  0.1998
  457PEP     CB14577   5.403  16.831   3.756 -0.1625 -0.0468  0.1492
  457PEP     CB14578   5.673  16.481   3.846  0.0756 -0.0697 -0.0507
  457PEP     CB14579   5.863  16.129   3.784  0.0786  0.1544  0.0388
  457PEP     CB14580   5.805  15.851   3.436 -0.0516  0.1000  0.3943
  457PEP     CB14581   5.535  15.542   3.458 -0.1114  0.1085 -0.3396
  457PEP     CB14582   5.312  15.220   3.278 -0.0461  0.1906 -0.1138
  457PEP     CB14583   4.996  14.967   3.069 -0.1821  0.1393  0.0607
  457PEP     CB14584   4.714  14.812   3.242 -0.2433 -0.1064 -0.3626
  457PEP     CB14585   4.670  14.597   3.641  0.0065  0.4583 -0.0495
  457PEP     CB14586   4.952  14.521   3.948 -0.1122 -0.0127  0.0206
  457PEP     CB14587   5.358  14.692   4.071  0.3100  0.1435  0.0760
  457PEP     CB14588   5.741  14.863   4.247 -0.3053 -0.1830  0.3417
  457PEP     CB14589   6.089  14.989   4.531 -0.3202 -0.2534  0.4798
  457PEP     CB14590   6.589  15.124   4.389  0.0827  0.1370  0.1486
  457PEP     CB14591   6.902  14.708   4.337  0.2648  0.1249 -0.0417
  457PEP     CB14592   6.886  14.266   4.445 -0.0703  0.1882  0.0493
  457PEP     CB14593   6.565  13.950   4.647 -0.0379  0.4321  0.2166
  457PEP     CB14594   6.135  14.029   4.388  0.2125 -0.5078 -0.4031
  457PEP     CB14595   6.075  14.153   3.967  0.0707 -0.2202 -0.3128
  457PEP     CB14596   6.223  14.395   3.611 -0.5331 -0.1266  0.1958
  457PEP     CB14597   6.290  14.307   3.168  0.1470  0.2456 -0.1808
  457PEP     CB14598   6.503  13.987   2.838  0.0542  0.0347 -0.2203
  457PEP     CB14599   6.527  13.615   2.698 -0.0757  0.0578 -0.1065
  457PEP     CB14600   6.569  13.167   2.541  0.1498  0.2691  0.3168
  458PEP     CB14601   4.071  11.870  16.691 -0.2654  0.2503  0.2782
  458PEP     CB14602   4.283  12.188  16.464 -0.4389  0.0392  0.3365
  458PEP     CB14603   4.554  12.529  16.428 -0.0234  0.3810 -0.2354
  458PEP     CB14604   4.984  12.809  16.375  0.0155  0.0935 -0.2144
  458PEP     CB14605   5.264  13.120  16.608  0.2694  0.2287  0.0621
  458PEP     CB14606   5.607  13.225  16.836  0.3643  0.1205  0.3505
  458PEP     CB14607   5.624  13.003  17.234  0.1562  0.4877  0.0860
  458PEP     CB14608   5.391  12.529  17.297 -0.0229 -0.1078  0.1226
  458PEP     CB14609   5.485  12.214  16.980 -0.1300  0.2955 -0.0417
  458PEP     CB14610   5.751  12.132  16.690 -0.0256  0.0070  0.3342
  458PEP     CB14611   5.884  11.869  16.322 -0.3478 -0.3001 -0.0528
  458PEP     CB14612   5.734  11.702  16.008 -0.2920 -0.3742  0.1421
  458PEP     CB14613   5.667  11.372  15.706  0.0068 -0.1548  0.1923
  458PEP     CB14614   5.642  10.981  15.592  0.3438  0.0812  0.3649
  458PEP     CB14615   5.486  10.588  15.619 -0.0311 -0.0136  0.0163
  458PEP     CB14616   5.131  10.362  15.670 -0.6932  0.1403  0.0441
  458PEP     CB14617   4.711  10.366  15.784  0.1178  0.2550 -0.0694
  458PEP     CB14618   4.453  10.235  16.161  0.2661  0.0677  0.1267
  458PEP     CB14619   4.511  10.491  16.530 -0.0723  0.0629  0.0328
  458PEP     CB14620   4.673  10.488  16.961 -0.1507 -0.3417 -0.1345
  458PEP     CB14621   4.516  10.431  17.344 -0.4309  0.5909 -0.6320
  458PEP     CB14622   4.313  10.491  17.705  0.1359  0.0166 -0.0566
  458PEP     CB14623   4.061  10.619  18.026  0.2039 -0.1488  0.1552
  458PEP     CB14624   4.273  10.799  18.448  0.1818 -0.1122 -0.2187
  458PEP     CB14625   4.644  10.645  18.717 -0.2511 -0.1573 -0.0595
  458PEP     CB14626   4.978  10.429  18.574 -0.0204 -0.1863 -0.4525
  458PEP     CB14627   5.040  10.349  18.155  0.0092 -0.2403  0.0238
  458PEP     CB14628   5.282  10.564  17.847  0.2838  0.0635  0.0626
  458PEP     CB14629   5.541  10.832  17.516 -0.1705 -0.2284 -0.0022
  458PEP     CB14630   5.638  10.811  16.970  0.2528  0.2162  0.2620
  458PEP     CB14631   5.580  10.833  16.509  0.3971  0.1040 -0.1285
  458PEP     CB14632   5.803  10.919  16.087 -0.0743  0.1693 -0.0440
  458PEP     CB14633   6.090  11.274  16.004 -0.2144  0.1565 -0.1991
  458PEP     CB14634   6.511  11.351  15.733 -0.0709 -0.1671 -0.3408
  458PEP     CB14635   6.542  11.220  15.254  0.1610  0.2842 -0.1899
  458PEP     CB14636   6.271  10.937  14.947  0.2357  0.2606  0.4867
  458PEP     CB14637   6.299  10.781  14.547 -0.1193  0.1671  0.0875
  458PEP     CB14638   6.124  10.966  14.189  0.2384  0.0621  0.0382
  458PEP     CB14639   6.158  11.425  14.138 -0.1235  0.2007  0.3350
  458PEP     CB14640   6.468  11.719  14.274 -0.0192 -0.0140  0.2001
  459PEP     CB14641   9.141   0.490   0.294 -0.0931  0.5128  0.3030
  459PEP     CB14642   9.158   0.668   0.669  0.0433 -0.2819 -0.1120
  459PEP     CB14643   9.386   0.535   1.071 -0.0956  0.3662 -0.0589
  459PEP     CB14644   9.596   0.247   1.488 -0.0985 -0.3425  0.3480
  459PEP     CB14645   9.820   0.332   1.895  0.0900 -0.2143  0.1651
  459PEP     CB14646   9.966   0.339   2.334 -0.0847 -0.4793 -0.2257
  459PEP     CB14647  10.076   0.426   2.680  0.1173 -0.1479  0.1152
  459PEP     CB14648  10.272   0.289   3.053  0.1007  0.3113  0.1784
  459PEP     CB14649  10.239  -0.056   3.241 -0.1452 -0.0694  0.1918
  459PEP     CB14650   9.954  -0.389   3.136 -0.1483 -0.0455 -0.1807
  459PEP     CB14651   9.543  -0.290   3.015  0.1156  0.0116  0.2496
  459PEP     CB14652   9.328  -0.020   2.709  0.1066  0.0480  0.0942
  459PEP     CB14653   9.530   0.409   2.655  0.3407 -0.1739  0.2391
  459PEP     CB14654   9.807   0.615   3.009 -0.0288 -0.2677  0.0447
  459PEP     CB14655  10.240   0.701   3.332 -0.3779  0.2504  0.0755
  459PEP     CB14656  10.754   0.656   3.202 -0.0871 -0.1700 -0.1466
  459PEP     CB14657  11.159   0.464   3.007 -0.1970  0.0129  0.1026
  459PEP     CB14658  11.515   0.210   2.972  0.2199 -0.0195  0.2494
  459PEP     CB14659  11.829  -0.019   3.113 -0.0406 -0.0859 -0.0691
  459PEP     CB14660  11.677  -0.574   3.141  0.3056 -0.5109  0.1990
  459PEP     CB14661  11.486  -0.814   2.982 -0.0077  0.1453  0.0114
  459PEP     CB14662  11.099  -0.949   2.741 -0.4887  0.2108 -0.2361
  459PEP     CB14663  10.632  -0.848   2.637 -0.1051 -0.0218 -0.0993
  459PEP     CB14664  10.546  -0.515   2.420  0.0307 -0.0003 -0.0638
  459PEP     CB14665  10.683  -0.098   2.317  0.2357 -0.0890  0.0530
  459PEP     CB14666  10.419   0.212   2.267  0.2254 -0.0234  0.0436
  459PEP     CB14667  10.361   0.486   1.875 -0.2306 -0.0760  0.3985
  459PEP     CB14668  10.550   0.518   1.488 -0.4706 -0.3786  0.0139
  459PEP     CB14669  10.948   0.440   1.476 -0.0729 -0.3181  0.1101
  459PEP     CB14670  11.182   0.112   1.638  0.1202 -0.1179 -0.2514
  459PEP     CB14671  11.045  -0.209   1.991  0.1582 -0.1398 -0.0155
  459PEP     CB14672  11.053  -0.463   2.270 -0.0361  0.2832 -0.1773
  459PEP     CB14673  11.007  -0.465   2.773 -0.0816  0.2305  0.1270
  459PEP     CB14674  11.165  -0.558   3.200  0.4384  0.0880  0.0004
  459PEP     CB14675  11.190  -0.973   3.395 -0.1484  0.2277 -0.1148
  459PEP     CB14676  11.305  -1.347   3.800 -0.2919  0.1169  0.2201
  459PEP     CB14677  11.704  -1.597   3.748 -0.4715 -0.1952  0.5501
  459PEP     CB14678  12.004  -1.818   3.771 -0.3989 -0.1622  0.0294
  459PEP     CB14679  12.337  -2.021   3.582  0.2768  0.0846 -0.1178
  459PEP     CB14680  12.597  -2.326   3.354 -0.1621  0.4276  0.4282
  460PEP     CB14681   4.284  12.101   1.576  0.1747 -0.0358  0.2719
  460PEP     CB14682   4.274  11.673   1.550  0.0417 -0.3951 -0.2823
  460PEP     CB14683   4.206  11.234   1.710 -0.0161  0.2768 -0.5260
  460PEP     CB14684   3.819  11.004   1.995 -0.0030 -0.0120 -0.0775
  460PEP     CB14685   3.437  10.794   2.137  0.2864  0.1738  0.0345
  460PEP     CB14686   3.159  10.506   2.429  0.0637 -0.0178 -0.2944
  460PEP     CB14687   2.959  10.178   2.677 -0.6528 -0.3273  0.1635
  460PEP     CB14688   2.755   9.750   2.833 -0.3053  0.0297  0.1644
  460PEP     CB14689   2.543   9.515   3.150 -0.3402 -0.0728 -0.1528
  460PEP     CB14690   2.316   9.220   3.287 -0.0836 -0.1096  0.0444
  460PEP     CB14691   1.791   9.164   3.299 -0.0272 -0.0566  0.1694
  460PEP     CB14692   1.355   9.103   3.483  0.0051  0.2658 -0.2533
  460PEP     CB14693   1.055   9.363   3.740  0.0510 -0.3240 -0.1711
  460PEP     CB14694   0.771   9.309   4.126 -0.1571 -0.0609  0.4001
  460PEP     CB14695   0.687   8.952   4.259 -0.1904  0.1633  0.3060
  460PEP     CB14696   0.621   8.496   4.206 -0.1734  0.3051 -0.0583
  460PEP     CB14697   0.723   8.122   4.148 -0.0487  0.3188  0.2243
  460PEP     CB14698   0.818   7.927   3.723  0.3794 -0.2921  0.2133
  460PEP     CB14699   0.739   7.885   3.170 -0.0879  0.0336 -0.1950
  460PEP     CB14700   0.799   7.971   2.719 -0.1213 -0.0690 -0.0607
  460PEP     CB14701   0.904   7.868   2.171  0.2217 -0.5472  0.1724
  460PEP     CB14702   0.846   8.111   1.790  0.0894 -0.0204 -0.1882
  460PEP     CB14703   0.820   8.489   1.504  0.0932 -0.0561 -0.6202
  460PEP     CB14704   0.719   8.656   1.176 -0.1895  0.1479  0.1481
  460PEP     CB14705   0.760   8.929   0.832 -0.3738  0.0076  0.3130
  460PEP     CB14706   0.791   8.985   0.327  0.1509  0.1394  0.4247
  460PEP     CB14707   0.902   8.912  -0.001  0.1233  0.0085  0.0807
  460PEP     CB14708   1.081   8.623  -0.344 -0.0098 -0.2545 -0.1318
  460PEP     CB14709   1.469   8.512  -0.617  0.1945  0.2015  0.1778
  460PEP     CB14710   1.865   8.216  -0.580 -0.1157 -0.2760  0.4282
  460PEP     CB14711   2.043   8.015  -0.216  0.2245 -0.2983  0.1547
  460PEP     CB14712   2.232   7.812   0.131  0.1427 -0.1987 -0.5367
  460PEP     CB14713   2.585   7.906   0.367 -0.2266  0.0918 -0.5613
  460PEP     CB14714   2.944   8.196   0.173 -0.0387 -0.1144  0.1741
  460PEP     CB14715   3.007   8.210  -0.287 -0.1967  0.4161 -0.1626
  460PEP     CB14716   2.843   7.905  -0.553 -0.2644 -0.1717 -0.2354
  460PEP     CB14717   2.510   7.682  -0.537  0.2941 -0.0028  0.0403
  460PEP     CB14718   2.288   7.489  -0.271  0.1071 -0.2206 -0.3023
  460PEP     CB14719   2.061   7.179  -0.245  0.2864 -0.3630  0.2853
  460PEP     CB14720   1.680   7.112   0.031  0.3064 -0.4335  0.3776
  461PEP     CB14721   0.206  13.076   4.831  0.2151  0.0832  0.0106
  461PEP     CB14722   0.233  13.227   4.427  0.1970  0.1441 -0.4617
  461PEP     CB14723  -0.061  13.170   3.974  0.1918 -0.1966 -0.3527
  461PEP     CB14724  -0.495  12.963   3.872  0.1887  0.0687  0.0824
  461PEP     CB14725  -0.769  12.659   4.040  0.0510  0.1743 -0.3412
  461PEP     CB14726  -0.759  12.558   4.469  0.3767 -0.0561  0.0664
  461PEP     CB14727  -0.694  12.695   4.815  0.0142 -0.0080 -0.0887
  461PEP     CB14728  -0.834  13.082   5.092  0.0956  0.0947  0.2599
  461PEP     CB14729  -1.167  13.436   4.936  0.1291  0.0366  0.0907
  461PEP     CB14730  -1.462  13.724   5.006 -0.1789 -0.1463 -0.2152
  461PEP     CB14731  -1.571  14.112   4.776  0.0595 -0.5304 -0.1124
  461PEP     CB14732  -1.391  14.345   4.439  0.2800 -0.0114  0.1559
  461PEP     CB14733  -1.418  14.208   4.013 -0.3067  0.3863 -0.0448
  461PEP     CB14734  -1.643  13.845   3.924  0.4888  0.2730 -0.0565
  461PEP     CB14735  -1.979  13.645   4.184 -0.5305 -0.2139 -0.1513
  461PEP     CB14736  -2.137  13.253   4.239 -0.0347  0.0612 -0.1097
  461PEP     CB14737  -2.006  12.911   3.875 -0.1029 -0.1024 -0.1882
  461PEP     CB14738  -1.793  13.112   3.551 -0.3659 -0.2769 -0.0905
  461PEP     CB14739  -1.801  13.594   3.515  0.0164 -0.0781  0.0614
  461PEP     CB14740  -2.080  13.876   3.678 -0.2059 -0.2034 -0.3657
  461PEP     CB14741  -2.492  13.865   3.516 -0.1226  0.1187  0.0440
  461PEP     CB14742  -2.650  14.223   3.242  0.0356  0.1496 -0.1333
  461PEP     CB14743  -2.362  14.603   3.360  0.1221  0.1572  0.0550
  461PEP     CB14744  -2.210  14.958   3.211  0.2159  0.4952 -0.3148
  461PEP     CB14745  -1.842  15.049   2.982  0.0949  0.0849  0.2498
  461PEP     CB14746  -1.433  15.027   2.962  0.5121 -0.3278 -0.0127
  461PEP     CB14747  -1.086  15.122   2.739 -0.0528 -0.4376 -0.3042
  461PEP     CB14748  -0.969  15.171   2.364  0.2060 -0.0448 -0.2033
  461PEP     CB14749  -0.948  14.954   1.937 -0.0139  0.3346 -0.0676
  461PEP     CB14750  -1.005  14.473   1.909 -0.3135 -0.0190  0.3419
  461PEP     CB14751  -1.259  14.282   2.203 -0.2639 -0.0590  0.0402
  461PEP     CB14752  -1.735  14.384   2.195 -0.0536 -0.3781  0.4145
  461PEP     CB14753  -1.918  14.680   2.192 -0.0790  0.4778 -0.0002
  461PEP     CB14754  -1.798  15.083   2.436 -0.1441 -0.0664  0.1221
  461PEP     CB14755  -1.457  15.368   2.478  0.4922  0.3563 -0.1104
  461PEP     CB14756  -1.264  15.723   2.389  0.1793  0.0181  0.0955
  461PEP     CB14757  -1.022  15.981   2.102 -0.0730  0.0111  0.4821
  461PEP     CB14758  -1.084  16.106   1.709  0.2959 -0.2818  0.0768
  461PEP     CB14759  -1.325  16.207   1.339  0.1504  0.5496  0.0493
  461PEP     CB14760  -1.716  16.226   1.217 -0.0062  0.4129  0.1786
  462PEP     CB14761  17.294  19.932  21.901  0.2684  0.1580  0.0187
  462PEP     CB14762  17.537  20.309  21.911 -0.1014  0.1850  0.2315
  462PEP     CB14763  17.486  20.676  21.913 -0.5066 -0.2030  0.1649
  462PEP     CB14764  17.301  21.143  21.888  0.1023  0.2897  0.1244
  462PEP     CB14765  17.370  21.567  21.995  0.2238 -0.4007  0.2578
  462PEP     CB14766  17.121  21.984  22.125 -0.0538  0.0952 -0.4678
  462PEP     CB14767  17.102  22.386  22.091 -0.2429 -0.0004  0.3664
  462PEP     CB14768  17.206  22.608  21.684  0.0541 -0.2529  0.2495
  462PEP     CB14769  17.159  22.436  21.274 -0.2733 -0.2408  0.1270
  462PEP     CB14770  17.261  21.922  21.212 -0.3760  0.0540  0.1504
  462PEP     CB14771  17.192  21.577  20.976  0.0175  0.1342 -0.2954
  462PEP     CB14772  17.201  21.176  21.087 -0.1704 -0.3682 -0.0568
  462PEP     CB14773  17.301  20.808  20.958  0.0786  0.2292  0.3726
  462PEP     CB14774  17.542  20.492  20.812  0.1233 -0.4007 -0.0508
  462PEP     CB14775  17.844  20.280  20.758 -0.2455  0.2787 -0.4696
  462PEP     CB14776  18.331  20.428  20.801  0.1334  0.1905  0.2938
  462PEP     CB14777  18.481  20.786  20.542  0.1941  0.0282  0.1536
  462PEP     CB14778  18.238  21.152  20.468  0.1583 -0.0882  0.1178
  462PEP     CB14779  17.880  21.374  20.299 -0.2839 -0.0415 -0.1024
  462PEP     CB14780  17.455  21.616  20.353  0.2827  0.0378 -0.0045
  462PEP     CB14781  17.203  21.955  20.639  0.3904  0.1786 -0.0178
  462PEP     CB14782  16.938  22.154  20.937  0.4589 -0.0721  0.2851
  462PEP     CB14783  16.740  22.599  21.120  0.1251 -0.2117  0.0807
  462PEP     CB14784  16.684  22.888  21.377 -0.2276 -0.0258  0.2503
  462PEP     CB14785  16.543  23.086  21.825 -0.1848 -0.4636  0.2375
  462PEP     CB14786  16.514  23.228  22.255  0.2614 -0.3819 -0.1625
  462PEP     CB14787  16.762  23.369  22.589  0.1068  0.4870  0.0612
  462PEP     CB14788  16.866  23.414  22.966  0.1178  0.2472 -0.3273
  462PEP     CB14789  17.131  23.356  23.294  0.1034  0.1411 -0.1172
  462PEP     CB14790  17.379  23.627  23.202  0.4285  0.1949  0.2148
  462PEP     CB14791  17.374  23.790  22.774 -0.1844  0.1004 -0.2113
  462PEP     CB14792  17.223  23.586  22.386  0.0116 -0.0982  0.2101
  462PEP     CB14793  16.939  23.429  22.078 -0.4917 -0.1344  0.0794
  462PEP     CB14794  17.029  23.262  21.655  0.0545 -0.0704  0.2865
  462PEP     CB14795  17.145  22.989  21.295 -0.2734  0.0140  0.3244
  462PEP     CB14796  17.584  22.704  21.267  0.0760 -0.1609  0.0607
  462PEP     CB14797  17.980  22.846  21.336 -0.0873  0.2943  0.0898
  462PEP     CB14798  18.191  23.323  21.144  0.0333 -0.0498  0.0502
  462PEP     CB14799  18.062  23.473  20.797  0.1431 -0.0370 -0.2384
  462PEP     CB14800  17.765  23.442  20.563  0.1079  0.2058 -0.2346
  463PEP     CB14801  11.949   0.661  12.677  0.3100 -0.2406 -0.1897
  463PEP     CB14802  12.126   0.855  12.359 -0.0838  0.0282 -0.3249
  463PEP     CB14803  12.252   1.022  12.044  0.0660  0.4526  0.1869
  463PEP     CB14804  12.169   1.318  11.795  0.1447  0.0304  0.1661
  463PEP     CB14805  12.034   1.552  11.395  0.1872  0.0375  0.2784
  463PEP     CB14806  11.918   1.297  11.043 -0.0248 -0.3321  0.0236
  463PEP     CB14807  11.920   0.892  11.098  0.0448 -0.0763  0.4487
  463PEP     CB14808  12.227   0.629  11.197  0.2053  0.0751  0.3554
  463PEP     CB14809  12.668   0.748  11.125  0.0258 -0.2507 -0.2053
  463PEP     CB14810  13.120   0.653  11.215 -0.3759 -0.4786  0.2385
  463PEP     CB14811  13.576   0.508  11.117  0.1397 -0.0214  0.0764
  463PEP     CB14812  13.950   0.338  11.273  0.0937 -0.4673  0.1680
  463PEP     CB14813  14.339   0.406  11.076 -0.0087 -0.0208 -0.0007
  463PEP     CB14814  14.420   0.625  10.638 -0.0626  0.0161 -0.1478
  463PEP     CB14815  14.228   1.100  10.583 -0.1887 -0.0485  0.0568
  463PEP     CB14816  14.066   1.371  10.881 -0.1434  0.2442  0.4435
  463PEP     CB14817  13.713   1.271  11.138  0.1942  0.1061 -0.0170
  463PEP     CB14818  13.438   1.434  11.154 -0.1016  0.2063  0.1968
  463PEP     CB14819  13.188   1.623  10.797  0.1184 -0.2147  0.1785
  463PEP     CB14820  13.257   1.386  10.372 -0.0519  0.2263 -0.2568
  463PEP     CB14821  13.156   0.933  10.375 -0.4514  0.2423  0.1315
  463PEP     CB14822  12.766   0.894  10.468  0.0058 -0.2057  0.4337
  463PEP     CB14823  12.469   1.130  10.374 -0.0453  0.3203 -0.1182
  463PEP     CB14824  12.292   1.472  10.341 -0.1887 -0.4335  0.1467
  463PEP     CB14825  12.140   1.707  10.730  0.4247  0.0696 -0.2455
  463PEP     CB14826  12.475   1.695  10.990 -0.0188  0.4681  0.2451
  463PEP     CB14827  12.803   1.466  11.139  0.1418  0.1410  0.3562
  463PEP     CB14828  13.093   1.135  11.357  0.1510 -0.1596  0.2033
  463PEP     CB14829  13.505   0.985  11.487  0.2745 -0.2087  0.0200
  463PEP     CB14830  13.767   0.703  11.607 -0.2250  0.2695 -0.4824
  463PEP     CB14831  14.226   0.615  11.567  0.4496  0.2557 -0.0154
  463PEP     CB14832  14.653   0.780  11.475 -0.1061 -0.2973  0.0284
  463PEP     CB14833  15.127   0.875  11.355  0.0437 -0.1703 -0.3859
  463PEP     CB14834  15.511   0.829  11.414  0.0752  0.1023 -0.2645
  463PEP     CB14835  15.924   0.626  11.258  0.3625 -0.0030  0.0332
  463PEP     CB14836  16.339   0.484  11.084  0.1560  0.3734  0.4738
  463PEP     CB14837  16.670   0.280  10.935  0.1090 -0.0032  0.0545
  463PEP     CB14838  17.121   0.265  10.864 -0.3404 -0.2165 -0.0469
  463PEP     CB14839  17.595   0.344  10.856 -0.3019 -0.0519  0.0636
  463PEP     CB14840  18.035   0.527  10.865 -0.0217 -0.0011 -0.1173
  464PEP     CB14841   3.595  18.542  18.712  0.0913 -0.0645  0.2846
  464PEP     CB14842   3.684  18.033  18.578 -0.1405 -0.0595  0.3532
  464PEP     CB14843   3.497  17.632  18.360 -0.3940 -0.1887  0.2050
  464PEP     CB14844   3.727  17.172  18.355  0.0300 -0.0025 -0.1885
  464PEP     CB14845   3.913  16.853  18.513 -0.2096 -0.0692 -0.1450
  464PEP     CB14846   4.052  16.554  18.253  0.0800 -0.2668  0.2069
  464PEP     CB14847   3.932  16.496  17.783 -0.1433  0.4040  0.2913
  464PEP     CB14848   3.515  16.482  17.652 -0.1095 -0.2404  0.2581
  464PEP     CB14849   3.143  16.398  17.379 -0.2713  0.0013 -0.0902
  464PEP     CB14850   2.862  16.728  17.204  0.1520  0.1010 -0.3149
  464PEP     CB14851   2.600  16.974  16.970 -0.2669  0.2324  0.0564
  464PEP     CB14852   2.545  17.267  16.764 -0.3965 -0.0211  0.1388
  464PEP     CB14853   2.829  17.618  16.768 -0.2443  0.0062 -0.0469
  464PEP     CB14854   3.250  17.742  16.588 -0.0602 -0.1282  0.1022
  464PEP     CB14855   3.332  17.578  16.101 -0.0534  0.2850  0.2896
  464PEP     CB14856   3.255  17.221  15.872  0.3551 -0.0162 -0.2066
  464PEP     CB14857   3.167  16.807  15.933  0.0732 -0.1055 -0.1447
  464PEP     CB14858   2.997  16.535  15.730  0.0642 -0.1082 -0.1404
  464PEP     CB14859   3.037  16.271  15.417 -0.0692  0.2434 -0.2314
  464PEP     CB14860   3.241  15.924  15.291  0.1780 -0.1109  0.4193
  464PEP     CB14861   3.262  15.682  14.946 -0.1119 -0.0246 -0.1764
  464PEP     CB14862   3.074  15.537  14.514 -0.0263  0.0093  0.4085
  464PEP     CB14863   2.959  15.592  14.093  0.0231  0.0390 -0.0082
  464PEP     CB14864   2.910  15.757  13.763 -0.1936 -0.1872 -0.1804
  464PEP     CB14865   2.692  15.993  13.358 -0.2504 -0.2528 -0.0919
  464PEP     CB14866   2.500  15.918  12.960 -0.2383  0.1786  0.1649
  464PEP     CB14867   2.150  15.869  12.646  0.1241  0.0729  0.2320
  464PEP     CB14868   1.849  15.500  12.522  0.0041 -0.0521 -0.0532
  464PEP     CB14869   1.813  15.043  12.360 -0.4420  0.2108  0.4704
  464PEP     CB14870   2.059  14.832  12.168  0.0923  0.3999 -0.2974
  464PEP     CB14871   2.509  14.967  11.857 -0.1174 -0.4601 -0.1358
  464PEP     CB14872   2.650  15.372  11.874  0.0233 -0.0666  0.3082
  464PEP     CB14873   2.646  15.765  11.752 -0.0278  0.2814 -0.0934
  464PEP     CB14874   2.544  16.200  11.575 -0.1668 -0.4922  0.1952
  464PEP     CB14875   2.606  16.676  11.532 -0.0070 -0.1998  0.0170
  464PEP     CB14876   2.284  17.009  11.585 -0.0110 -0.2429  0.1994
  464PEP     CB14877   2.069  16.970  11.897 -0.2285 -0.2430  0.2027
  464PEP     CB14878   2.079  16.923  12.321  0.0142  0.4348 -0.2315
  464PEP     CB14879   1.939  16.863  12.780 -0.4614  0.0437 -0.3665
  464PEP     CB14880   2.086  16.836  13.203  0.1563 -0.0194  0.1031
  465PEP     CB14881   6.111   0.296   6.212  0.1920 -0.0007 -0.0688
  465PEP     CB14882   6.084   0.007   5.837 -0.1213  0.0269  0.0016
  465PEP     CB14883   6.099  -0.412   5.679 -0.0445  0.4453 -0.2083
  465PEP     CB14884   6.051  -0.846   5.683 -0.0572  0.1002 -0.0038
  465PEP     CB14885   6.100  -1.309   5.748 -0.0381  0.0051  0.1061
  465PEP     CB14886   6.194  -1.689   5.551 -0.1264 -0.1483 -0.3480
  465PEP     CB14887   6.489  -1.927   5.268 -0.3042  0.4103 -0.0570
  465PEP     CB14888   6.749  -2.317   5.144 -0.2004  0.5073  0.2073
  465PEP     CB14889   7.003  -2.650   5.122 -0.0263 -0.1050  0.3828
  465PEP     CB14890   6.971  -3.002   5.297  0.3099 -0.3312 -0.1368
  465PEP     CB14891   7.192  -3.348   5.497 -0.3787 -0.1166 -0.1714
  465PEP     CB14892   7.537  -3.442   5.839 -0.2039 -0.1172  0.0783
  465PEP     CB14893   7.836  -3.676   6.127  0.0330 -0.0089  0.0724
  465PEP     CB14894   8.148  -3.992   6.289  0.3758  0.0814  0.1358
  465PEP     CB14895   8.440  -4.301   6.380  0.5080 -0.1188  0.2273
  465PEP     CB14896   8.582  -4.661   6.184 -0.1462  0.0079  0.2059
  465PEP     CB14897   8.478  -5.074   5.861  0.0393 -0.0635 -0.4641
  465PEP     CB14898   8.416  -5.326   5.461 -0.1157  0.2716  0.0709
  465PEP     CB14899   8.309  -5.555   5.097 -0.4081 -0.7048 -0.0991
  465PEP     CB14900   8.094  -5.948   5.059  0.2212 -0.0853  0.0745
  465PEP     CB14901   7.953  -6.186   4.822  0.0079 -0.0853  0.2401
  465PEP     CB14902   7.864  -6.580   4.612  0.4002  0.2398 -0.1023
  465PEP     CB14903   7.418  -6.755   4.724  0.2736  0.3026  0.1553
  465PEP     CB14904   7.253  -6.822   5.155 -0.2653  0.2957 -0.0466
  465PEP     CB14905   7.427  -6.803   5.556  0.2384 -0.0120 -0.1999
  465PEP     CB14906   7.483  -6.829   6.044  0.1189 -0.3812 -0.8283
  465PEP     CB14907   7.306  -6.687   6.384  0.3020 -0.0941  0.0604
  465PEP     CB14908   7.061  -6.340   6.427 -0.0357  0.0618 -0.2738
  465PEP     CB14909   6.994  -6.027   6.093  0.1212  0.1640  0.1196
  465PEP     CB14910   7.206  -5.702   5.810  0.5632  0.2049  0.0295
  465PEP     CB14911   7.636  -5.639   5.826  0.0431  0.0677  0.3667
  465PEP     CB14912   8.041  -5.529   6.092  0.0379 -0.1479 -0.2440
  465PEP     CB14913   8.497  -5.529   6.040 -0.2029 -0.1759 -0.1558
  465PEP     CB14914   8.876  -5.746   6.178 -0.0736  0.2370  0.1964
  465PEP     CB14915   8.922  -6.058   6.415 -0.5964  0.0764  0.0765
  465PEP     CB14916   8.704  -6.326   6.697  0.1693 -0.0646 -0.1392
  465PEP     CB14917   8.320  -6.432   6.614 -0.0825  0.0757 -0.0290
  465PEP     CB14918   7.820  -6.414   6.738  0.4222  0.3097 -0.0864
  465PEP     CB14919   7.391  -6.489   6.742  0.2464 -0.1476  0.0671
  465PEP     CB14920   6.961  -6.553   6.817 -0.1027 -0.2618  0.2778
  466PEP     CB14921   8.174  11.964   0.699 -0.0212 -0.3145 -0.0938
  466PEP     CB14922   8.107  12.056   1.193 -0.1183 -0.0943 -0.1898
  466PEP     CB14923   8.099  11.809   1.589  0.0823 -0.0148  0.0346
  466PEP     CB14924   7.810  11.502   1.779 -0.3062 -0.0473 -0.0703
  466PEP     CB14925   7.605  11.145   1.820  0.1204  0.1460  0.0239
  466PEP     CB14926   7.395  10.773   1.715 -0.1149 -0.1133 -0.2090
  466PEP     CB14927   7.145  10.443   1.766  0.1136 -0.1118  0.3010
  466PEP     CB14928   6.822  10.143   1.510 -0.3685  0.2812 -0.0403
  466PEP     CB14929   6.676   9.776   1.289 -0.2436  0.2081 -0.1793
  466PEP     CB14930   6.490   9.321   1.329  0.1530  0.3383  0.1278
  466PEP     CB14931   6.410   8.962   1.616  0.2451  0.0490  0.1257
  466PEP     CB14932   6.445   8.627   2.056  0.1774 -0.0607 -0.2089
  466PEP     CB14933   6.479   8.679   2.479 -0.3102 -0.1757  0.1830
  466PEP     CB14934   6.353   9.085   2.649 -0.0973 -0.0511  0.0452
  466PEP     CB14935   5.957   9.190   2.602  0.3275 -0.3122 -0.2136
  466PEP     CB14936   5.685   9.319   2.345  0.3823  0.2011  0.2611
  466PEP     CB14937   5.631   9.501   1.953  0.2850 -0.1035  0.1575
  466PEP     CB14938   5.783   9.790   1.705  0.4902  0.0152 -0.1005
  466PEP     CB14939   5.773  10.219   1.623  0.0433 -0.4350  0.2051
  466PEP     CB14940   5.839  10.617   1.535 -0.1844 -0.2894 -0.1601
  466PEP     CB14941   5.552  10.947   1.463  0.0839  0.0883  0.0632
  466PEP     CB14942   5.415  11.343   1.484  0.3483 -0.0642 -0.2735
  466PEP     CB14943   5.522  11.743   1.604  0.1591 -0.1398 -0.4355
  466PEP     CB14944   5.383  12.134   1.803  0.3079  0.0712 -0.0559
  466PEP     CB14945   5.307  12.494   1.940  0.1804 -0.0944  0.0144
  466PEP     CB14946   4.996  12.853   2.016 -0.0402  0.0494 -0.1942
  466PEP     CB14947   4.706  13.032   2.274  0.2380  0.0618 -0.4317
  466PEP     CB14948   4.452  13.423   2.146  0.1358  0.0221  0.1239
  466PEP     CB14949   4.085  13.640   1.862  0.1860 -0.1399 -0.0390
  466PEP     CB14950   3.691  13.843   1.975 -0.2880  0.2075  0.2424
  466PEP     CB14951   3.382  13.729   2.198  0.0689 -0.2782  0.0659
  466PEP     CB14952   3.057  13.450   2.127 -0.2421  0.2761  0.4740
  466PEP     CB14953   2.999  13.162   1.757 -0.1690 -0.0843 -0.2855
  466PEP     CB14954   3.406  12.928   1.569 -0.0706  0.0949 -0.0042
  466PEP     CB14955   3.853  12.947   1.646 -0.0990  0.4422  0.1248
  466PEP     CB14956   3.955  13.112   2.019  0.2435  0.1734  0.3401
  466PEP     CB14957   3.929  13.313   2.452 -0.0005 -0.3845 -0.0229
  466PEP     CB14958   3.787  13.222   2.867  0.0224  0.0752  0.3296
  466PEP     CB14959   3.731  13.008   3.156  0.4365 -0.1128 -0.2963
  466PEP     CB14960   3.844  12.942   3.590 -0.0608  0.0802 -0.0535
  467PEP     CB14961   2.163  13.788   6.933  0.1335 -0.1211 -0.2786
  467PEP     CB14962   2.040  13.384   6.759 -0.2546  0.0167  0.1954
  467PEP     CB14963   1.871  13.148   6.584  0.0319  0.3087  0.1851
  467PEP     CB14964   1.494  13.040   6.403  0.2534 -0.2847  0.2526
  467PEP     CB14965   1.032  13.284   6.435  0.0647 -0.0314 -0.0830
  467PEP     CB14966   1.075  13.798   6.412 -0.0325 -0.2153  0.0218
  467PEP     CB14967   1.107  14.170   6.012  0.1622  0.0940 -0.2620
  467PEP     CB14968   1.114  14.497   5.712 -0.0770 -0.0719  0.2347
  467PEP     CB14969   1.117  14.869   5.690 -0.1012  0.2521 -0.1079
  467PEP     CB14970   1.362  15.296   5.673 -0.1113  0.0564 -0.2104
  467PEP     CB14971   1.733  15.552   5.732 -0.1246 -0.3767 -0.2464
  467PEP     CB14972   2.017  15.773   6.079  0.3390  0.0434  0.4666
  467PEP     CB14973   2.250  16.007   6.455 -0.5736 -0.3034 -0.1499
  467PEP     CB14974   2.545  15.892   6.818 -0.2027  0.0442 -0.1120
  467PEP     CB14975   3.009  15.952   6.929  0.1779  0.0419  0.0344
  467PEP     CB14976   3.509  16.055   6.915  0.3907  0.0382  0.3799
  467PEP     CB14977   3.915  16.061   7.048 -0.1644 -0.0122 -0.0224
  467PEP     CB14978   4.311  15.821   7.036  0.2831 -0.0878 -0.0110
  467PEP     CB14979   4.642  15.721   7.275 -0.1489  0.0903  0.1156
  467PEP     CB14980   4.704  15.859   7.696 -0.3056 -0.4310  0.1544
  467PEP     CB14981   4.410  15.744   8.016  0.0805  0.2362 -0.2763
  467PEP     CB14982   4.175  15.375   8.009 -0.0763  0.5447  0.1177
  467PEP     CB14983   3.958  15.132   7.707  0.4284 -0.1692  0.2831
  467PEP     CB14984   3.505  15.250   7.561  0.1434 -0.3561  0.2930
  467PEP     CB14985   3.258  15.543   7.790  0.4216 -0.2057  0.1579
  467PEP     CB14986   3.304  15.959   7.987  0.3044 -0.0591 -0.1176
  467PEP     CB14987   3.547  16.176   8.236  0.0254 -0.0108 -0.1362
  467PEP     CB14988   3.758  16.464   8.491  0.0236  0.0011  0.2195
  467PEP     CB14989   4.076  16.679   8.543  0.0448  0.0438  0.3423
  467PEP     CB14990   4.382  17.031   8.559  0.2792  0.0588  0.1392
  467PEP     CB14991   4.308  17.399   8.837 -0.1096 -0.0826  0.4120
  467PEP     CB14992   3.979  17.564   9.075 -0.2287 -0.0016  0.0084
  467PEP     CB14993   3.946  17.939   9.281  0.2702 -0.1165  0.4153
  467PEP     CB14994   4.191  18.279   9.328  0.4282 -0.0158  0.0984
  467PEP     CB14995   4.553  18.524   9.214  0.0713  0.0219 -0.3066
  467PEP     CB14996   4.808  18.868   9.260 -0.2433  0.0246 -0.0882
  467PEP     CB14997   4.995  19.306   8.972  0.0472  0.3238 -0.2171
  467PEP     CB14998   4.819  19.722   8.910 -0.0908 -0.4127  0.0695
  467PEP     CB14999   4.435  19.825   8.663  0.4536  0.2493 -0.1822
  467PEP     CB15000   4.209  19.593   8.385  0.0325  0.0790 -0.0175
  468PEP     CB15001   7.280   0.336  12.154  0.0534 -0.0258 -0.0289
  468PEP     CB15002   7.205   0.390  11.668  0.0299  0.2552  0.2878
  468PEP     CB15003   7.152   0.615  11.256 -0.1048 -0.4837  0.1836
  468PEP     CB15004   7.323   1.008  10.997 -0.1667  0.1696  0.0360
  468PEP     CB15005   7.260   1.376  10.943 -0.1345 -0.4070 -0.3462
  468PEP     CB15006   6.978   1.556  11.164 -0.2556 -0.1020 -0.0671
  468PEP     CB15007   6.554   1.501  11.196 -0.2687  0.1408 -0.0845
  468PEP     CB15008   6.112   1.560  11.311 -0.1142  0.4837 -0.3849
  468PEP     CB15009   5.684   1.809  11.462  0.1601  0.3177 -0.1412
  468PEP     CB15010   5.317   2.027  11.259  0.0919  0.3215  0.2114
  468PEP     CB15011   4.992   1.811  11.044 -0.0318  0.0102 -0.4518
  468PEP     CB15012   4.594   1.529  10.794 -0.3281  0.1705 -0.5639
  468PEP     CB15013   4.411   1.105  10.897  0.3648  0.3739  0.0813
  468PEP     CB15014   4.392   0.696  11.104  0.1019  0.4176 -0.3169
  468PEP     CB15015   4.293   0.277  11.038 -0.1557 -0.0289 -0.0773
  468PEP     CB15016   4.293  -0.025  10.638 -0.2638  0.1821 -0.0067
  468PEP     CB15017   4.161  -0.296  10.364  0.3329 -0.0730  0.0148
  468PEP     CB15018   3.771  -0.424  10.108  0.1607 -0.2100 -0.0112
  468PEP     CB15019   3.509  -0.325   9.777 -0.1382 -0.0816  0.0439
  468PEP     CB15020   3.048  -0.277   9.823  0.0772  0.2975 -0.0522
  468PEP     CB15021   2.847  -0.199  10.202 -0.0885  0.0639 -0.2087
  468PEP     CB15022   2.597  -0.531  10.456 -0.2197  0.0763  0.1203
  468PEP     CB15023   2.662  -0.987  10.378 -0.0439  0.0919  0.0279
  468PEP     CB15024   2.792  -1.141   9.962 -0.1895  0.0309 -0.3087
  468PEP     CB15025   2.594  -1.253   9.614  0.1126 -0.3837  0.4650
  468PEP     CB15026   2.283  -1.007   9.393  0.1353  0.2115 -0.1039
  468PEP     CB15027   2.258  -0.526   9.421 -0.1698 -0.0894 -0.5690
  468PEP     CB15028   1.875  -0.285   9.496  0.0604 -0.1862 -0.4614
  468PEP     CB15029   1.534  -0.443   9.286 -0.0279 -0.2221  0.3450
  468PEP     CB15030   1.319  -0.775   9.227  0.2288  0.1472 -0.0767
  468PEP     CB15031   0.992  -0.844   9.342  0.2667  0.0758  0.4728
  468PEP     CB15032   0.541  -1.073   9.577  0.2210  0.1260  0.1643
  468PEP     CB15033   0.246  -0.826   9.820 -0.0330  0.4979  0.5075
  468PEP     CB15034   0.050  -0.380   9.925 -0.0886  0.0166  0.1903
  468PEP     CB15035  -0.059   0.017  10.214 -0.0159 -0.1217  0.1013
  468PEP     CB15036  -0.359   0.364  10.363  0.0441 -0.3071 -0.1152
  468PEP     CB15037  -0.264   0.708  10.723 -0.2302 -0.2123  0.0219
  468PEP     CB15038  -0.298   1.017  11.040 -0.0836  0.2492 -0.3711
  468PEP     CB15039  -0.427   1.361  11.287 -0.0505  0.1959 -0.0260
  468PEP     CB15040  -0.658   1.722  11.164  0.2946 -0.0507 -0.2686
  469PEP     CB15041  18.773  13.826  17.868  0.1988 -0.1787 -0.2003
  469PEP     CB15042  18.922  13.756  17.413 -0.1652 -0.1445  0.0927
  469PEP     CB15043  19.052  13.737  16.929  0.3132  0.0144 -0.2706
  469PEP     CB15044  19.450  13.754  16.695  0.1938 -0.0948  0.3528
  469PEP     CB15045  19.917  13.942  16.552  0.3882 -0.0549  0.1251
  469PEP     CB15046  20.224  14.324  16.589  0.3949  0.0646  0.0261
  469PEP     CB15047  20.139  14.642  16.718  0.0192  0.0175 -0.2770
  469PEP     CB15048  19.768  14.924  16.565 -0.2544 -0.0479 -0.2359
  469PEP     CB15049  19.560  14.846  16.125 -0.0097 -0.5213  0.0749
  469PEP     CB15050  19.455  14.455  15.975 -0.0520 -0.0019  0.2314
  469PEP     CB15051  19.451  14.023  16.116  0.0038 -0.0258 -0.0890
  469PEP     CB15052  19.685  13.653  16.230  0.0616  0.0579  0.1281
  469PEP     CB15053  19.913  13.323  16.467 -0.0757  0.4313  0.2575
  469PEP     CB15054  20.301  13.077  16.348 -0.3545  0.1127  0.2637
  469PEP     CB15055  20.530  13.163  16.004 -0.1547  0.1689  0.3652
  469PEP     CB15056  20.537  13.582  15.763 -0.1441  0.1676 -0.1535
  469PEP     CB15057  20.807  13.954  15.673 -0.2607  0.1386 -0.1322
  469PEP     CB15058  21.222  13.797  15.489 -0.2070  0.0507 -0.2468
  469PEP     CB15059  21.362  13.397  15.208  0.0179  0.2445  0.0325
  469PEP     CB15060  21.357  12.956  15.344  0.0863 -0.2041 -0.1473
  469PEP     CB15061  21.132  12.855  15.771 -0.1843 -0.0147 -0.0256
  469PEP     CB15062  21.006  13.135  16.051  0.3857 -0.2749 -0.0680
  469PEP     CB15063  20.952  13.153  16.501 -0.2586  0.1654 -0.0418
  469PEP     CB15064  20.698  13.351  16.805  0.1327 -0.1791 -0.3548
  469PEP     CB15065  20.330  13.192  16.907  0.0245 -0.1898  0.1931
  469PEP     CB15066  20.095  12.838  16.698  0.2531 -0.0368 -0.0081
  469PEP     CB15067  19.823  12.831  16.275  0.1658 -0.0065 -0.0870
  469PEP     CB15068  19.579  12.812  15.933 -0.0998 -0.2336  0.0979
  469PEP     CB15069  19.220  13.021  15.821  0.2396 -0.1503 -0.3969
  469PEP     CB15070  19.071  13.363  15.917  0.4049 -0.0729 -0.1677
  469PEP     CB15071  19.188  13.736  15.852 -0.3148 -0.2466 -0.2904
  469PEP     CB15072  19.476  13.858  15.588  0.0979  0.2107  0.2068
  469PEP     CB15073  19.578  13.728  15.187  0.0054  0.0163 -0.1115
  469PEP     CB15074  19.835  13.940  14.828  0.0218  0.0765  0.1846
  469PEP     CB15075  20.238  14.220  14.814 -0.2574  0.1855  0.3617
  469PEP     CB15076  20.474  14.522  15.112 -0.1665 -0.0482  0.0389
  469PEP     CB15077  20.782  14.372  15.406 -0.2486  0.1957  0.1437
  469PEP     CB15078  21.199  14.209  15.185  0.0262 -0.1820  0.3400
  469PEP     CB15079  21.317  14.119  14.751  0.3212  0.1608 -0.4841
  469PEP     CB15080  21.323  13.861  14.349 -0.0147  0.5306  0.0641
  470PEP     CB15081   2.509  18.518  15.995 -0.5514 -0.3912 -0.0106
  470PEP     CB15082   2.337  18.129  16.158 -0.1643  0.0563 -0.0361
  470PEP     CB15083   2.033  17.760  16.066  0.0623 -0.1494  0.1517
  470PEP     CB15084   1.569  17.603  15.943  0.0729  0.2089 -0.1734
  470PEP     CB15085   1.121  17.644  15.900 -0.0386 -0.2001  0.2660
  470PEP     CB15086   0.732  17.391  15.968 -0.1003  0.1068 -0.2695
  470PEP     CB15087   0.381  17.285  15.815  0.1554 -0.2010  0.2731
  470PEP     CB15088  -0.017  17.311  15.569 -0.3665  0.4661 -0.1883
  470PEP     CB15089  -0.394  17.105  15.480  0.0523  0.0936 -0.1029
  470PEP     CB15090  -0.431  16.594  15.367 -0.1972  0.0973  0.0884
  470PEP     CB15091  -0.627  16.165  15.378  0.3365  0.2454 -0.0119
  470PEP     CB15092  -0.839  15.861  15.391 -0.0347 -0.1365  0.1400
  470PEP     CB15093  -1.161  15.513  15.374 -0.3996  0.3605  0.1199
  470PEP     CB15094  -1.617  15.475  15.283 -0.2509  0.0186  0.1310
  470PEP     CB15095  -1.960  15.468  15.031  0.0764 -0.1769  0.4538
  470PEP     CB15096  -2.066  15.560  14.614  0.1223 -0.2254  0.3405
  470PEP     CB15097  -2.284  15.812  14.239 -0.4083  0.1565 -0.2223
  470PEP     CB15098  -2.674  16.042  14.121  0.1979  0.3311  0.0617
  470PEP     CB15099  -2.973  16.017  13.795 -0.3163 -0.2980 -0.0720
  470PEP     CB15100  -3.012  15.865  13.402  0.2091 -0.3220 -0.0465
  470PEP     CB15101  -2.942  15.827  13.010 -0.3267 -0.4270  0.0477
  470PEP     CB15102  -2.849  15.538  12.646  0.0963 -0.1882 -0.0863
  470PEP     CB15103  -2.551  15.246  12.584 -0.3756  0.0882 -0.4532
  470PEP     CB15104  -2.088  15.326  12.543  0.0301 -0.2408 -0.3141
  470PEP     CB15105  -1.624  15.282  12.624  0.1807  0.0689  0.1121
  470PEP     CB15106  -1.255  15.392  12.692 -0.2434  0.1845 -0.0858
  470PEP     CB15107  -0.854  15.600  12.867 -0.1680  0.4347  0.2607
  470PEP     CB15108  -0.657  15.954  13.071  0.2684 -0.1469  0.0037
  470PEP     CB15109  -0.580  16.398  13.272  0.4055  0.2266  0.0107
  470PEP     CB15110  -0.722  16.757  13.508  0.0227 -0.0152  0.2801
  470PEP     CB15111  -0.494  16.903  13.785 -0.0538  0.3256 -0.3539
  470PEP     CB15112   0.001  16.719  13.913 -0.1372 -0.3408 -0.0871
  470PEP     CB15113   0.037  16.226  13.940 -0.0482 -0.1245  0.2324
  470PEP     CB15114  -0.128  15.904  14.021  0.3161 -0.0944 -0.1978
  470PEP     CB15115  -0.489  15.689  13.985 -0.2480  0.1457 -0.1281
  470PEP     CB15116  -0.762  15.384  13.896  0.0640  0.1781 -0.0252
  470PEP     CB15117  -0.866  15.008  14.071  0.1513 -0.1713  0.1885
  470PEP     CB15118  -1.285  14.880  14.014  0.0252 -0.2926 -0.2877
  470PEP     CB15119  -1.625  15.052  13.770  0.1732 -0.1413  0.3417
  470PEP     CB15120  -1.714  15.428  13.571  0.2179  0.3922 -0.1133
  471PEP     CB15121  20.057  18.107   0.212  0.2671 -0.2279  0.1759
  471PEP     CB15122  20.277  18.185  -0.098 -0.0555 -0.0253  0.1303
  471PEP     CB15123  20.600  18.385  -0.289  0.2646 -0.3723  0.1707
  471PEP     CB15124  20.921  18.705  -0.600 -0.1686  0.1239 -0.0993
  471PEP     CB15125  21.170  18.736  -0.918  0.0849 -0.3622  0.0126
  471PEP     CB15126  21.008  18.881  -1.363  0.4114 -0.3980  0.4048
  471PEP     CB15127  20.808  18.808  -1.686 -0.1963  0.4892 -0.2291
  471PEP     CB15128  20.621  18.656  -2.090  0.0004  0.2992 -0.0084
  471PEP     CB15129  20.442  18.297  -2.226  0.0612  0.1379  0.1284
  471PEP     CB15130  20.649  17.889  -2.167 -0.1087  0.0356 -0.1434
  471PEP     CB15131  21.092  17.944  -2.072 -0.3542 -0.1082  0.0975
  471PEP     CB15132  21.263  17.939  -1.627 -0.0969 -0.0908  0.2745
  471PEP     CB15133  21.097  17.665  -1.307 -0.2227 -0.1252 -0.0985
  471PEP     CB15134  21.004  17.311  -1.405 -0.2068  0.1724 -0.0509
  471PEP     CB15135  20.871  16.926  -1.238 -0.0895 -0.1461  0.0047
  471PEP     CB15136  20.604  16.678  -0.988 -0.0827 -0.0727 -0.0039
  471PEP     CB15137  20.180  16.630  -0.932  0.4005  0.0911  0.0381
  471PEP     CB15138  19.744  16.776  -0.999 -0.2550 -0.1014 -0.0913
  471PEP     CB15139  19.302  16.862  -0.913 -0.0072  0.1134 -0.0859
  471PEP     CB15140  19.092  17.190  -0.615  0.1436  0.0270 -0.1002
  471PEP     CB15141  19.244  17.561  -0.494 -0.1888 -0.3823  0.0120
  471PEP     CB15142  19.394  17.820  -0.768 -0.2578 -0.3743  0.0077
  471PEP     CB15143  19.229  18.101  -1.097  0.3022 -0.1780  0.4443
  471PEP     CB15144  19.140  18.353  -1.450 -0.0760  0.0812 -0.0021
  471PEP     CB15145  19.031  18.580  -1.810 -0.1581  0.0947  0.0705
  471PEP     CB15146  19.140  18.551  -2.203 -0.0287  0.2123 -0.2690
  471PEP     CB15147  19.213  18.187  -2.419  0.1192 -0.3104  0.0818
  471PEP     CB15148  19.374  18.001  -2.848  0.2810  0.0858  0.0649
  471PEP     CB15149  19.690  17.716  -3.066  0.4189 -0.1016 -0.4058
  471PEP     CB15150  19.842  17.190  -3.119  0.0074  0.4279 -0.3371
  471PEP     CB15151  20.074  16.726  -2.782  0.0413  0.2166 -0.2845
  471PEP     CB15152  20.132  16.684  -2.337 -0.0089 -0.2978 -0.2128
  471PEP     CB15153  20.221  17.022  -2.060 -0.3850  0.3222  0.1882
  471PEP     CB15154  19.998  17.484  -2.006  0.0652 -0.0011  0.3127
  471PEP     CB15155  19.617  17.702  -2.135  0.0376 -0.0173  0.0551
  471PEP     CB15156  19.206  17.696  -2.306 -0.1593 -0.3406  0.2357
  471PEP     CB15157  18.781  17.446  -2.254 -0.1402  0.3040  0.1471
  471PEP     CB15158  18.671  17.609  -1.867 -0.0093 -0.0208  0.0152
  471PEP     CB15159  18.985  17.867  -1.706  0.0602  0.3710  0.0213
  471PEP     CB15160  19.343  17.920  -1.539 -0.1600 -0.1398  0.0438
  472PEP     CB15161   7.493   8.575  20.886 -0.1211 -0.2192  0.2199
  472PEP     CB15162   7.300   8.235  20.678 -0.0369  0.0057 -0.0670
  472PEP     CB15163   7.352   7.921  20.293  0.0832 -0.0397  0.0469
  472PEP     CB15164   7.323   7.874  19.899 -0.1234  0.2267  0.0929
  472PEP     CB15165   7.443   8.215  19.540  0.0712  0.2536 -0.3376
  472PEP     CB15166   7.388   8.540  19.327  0.2920 -0.0681 -0.1023
  472PEP     CB15167   7.411   9.007  19.275  0.0183 -0.0958 -0.3804
  472PEP     CB15168   7.643   9.368  18.998 -0.3593 -0.2853 -0.1828
  472PEP     CB15169   7.848   9.488  18.605 -0.0325 -0.3361 -0.1028
  472PEP     CB15170   7.748   9.854  18.376 -0.1186  0.0738  0.6795
  472PEP     CB15171   7.414  10.181  18.396  0.0954  0.1229  0.1171
  472PEP     CB15172   7.285  10.362  18.806 -0.1216  0.3469 -0.3207
  472PEP     CB15173   7.514  10.737  19.017 -0.3649  0.1860 -0.5930
  472PEP     CB15174   7.883  11.070  18.864  0.2310  0.1297 -0.1630
  472PEP     CB15175   8.379  11.214  18.493 -0.1578 -0.2442  0.4650
  472PEP     CB15176   8.557  11.040  18.050  0.0477  0.2059 -0.3098
  472PEP     CB15177   8.347  10.769  17.773 -0.2093 -0.0234  0.2903
  472PEP     CB15178   7.910  10.652  17.908  0.2175 -0.1830 -0.1563
  472PEP     CB15179   7.644  10.916  18.246 -0.0232 -0.2325 -0.2004
  472PEP     CB15180   7.687  11.317  18.307  0.3492 -0.1394 -0.1366
  472PEP     CB15181   8.075  11.609  18.108 -0.2040 -0.1560  0.1105
  472PEP     CB15182   8.306  11.789  17.639 -0.1175 -0.0736 -0.1030
  472PEP     CB15183   8.582  11.937  17.299 -0.4945  0.1816  0.0791
  472PEP     CB15184   8.853  12.308  17.119 -0.2341  0.0370  0.0287
  472PEP     CB15185   8.846  12.638  16.796  0.2245 -0.1453  0.5222
  472PEP     CB15186   8.599  13.110  16.842 -0.1687 -0.1512 -0.1972
  472PEP     CB15187   8.369  13.427  17.112 -0.1951  0.0232  0.2230
  472PEP     CB15188   8.430  13.654  17.469 -0.0766  0.3313  0.3114
  472PEP     CB15189   8.883  13.782  17.552 -0.0407 -0.1041 -0.1211
  472PEP     CB15190   9.198  13.517  17.413 -0.1782  0.0907 -0.0267
  472PEP     CB15191   9.077  13.085  17.255 -0.1422 -0.1776 -0.0137
  472PEP     CB15192   9.109  12.653  17.356 -0.0321 -0.1332 -0.2596
  472PEP     CB15193   9.472  12.470  17.532  0.0013 -0.0117  0.5202
  472PEP     CB15194   9.809  12.337  17.263  0.2424  0.3258  0.2795
  472PEP     CB15195   9.728  12.042  16.957 -0.4096 -0.1198  0.0327
  472PEP     CB15196  10.026  11.651  16.857  0.0487  0.1771  0.1923
  472PEP     CB15197  10.446  11.716  16.959 -0.1203  0.3881  0.4939
  472PEP     CB15198  10.659  12.090  16.915 -0.2448 -0.0598  0.4834
  472PEP     CB15199  10.497  12.429  16.861  0.0275 -0.3141  0.0624
  472PEP     CB15200  10.323  12.585  16.446 -0.1553 -0.3550  0.1158
  473PEP     CB15201  11.698  12.377  20.869  0.0353  0.1390  0.1927
  473PEP     CB15202  11.711  12.615  21.318  0.2014 -0.0295 -0.2214
  473PEP     CB15203  11.864  13.072  21.349  0.1532 -0.3035 -0.0690
  473PEP     CB15204  12.300  13.266  21.336 -0.2806 -0.0462  0.1914
  473PEP     CB15205  12.569  13.125  21.629  0.4845 -0.1279 -0.1105
  473PEP     CB15206  12.560  12.797  21.796  0.1527 -0.1100 -0.2398
  473PEP     CB15207  12.322  12.429  21.748  0.1117  0.2617  0.3315
  473PEP     CB15208  11.894  12.348  21.725  0.2602 -0.3319  0.2099
  473PEP     CB15209  11.450  12.383  21.679  0.3176  0.1023 -0.0580
  473PEP     CB15210  11.055  12.556  21.887  0.6517  0.0441 -0.1693
  473PEP     CB15211  10.718  12.435  22.166  0.1750  0.0007 -0.1909
  473PEP     CB15212  10.386  12.219  22.398 -0.1154  0.1559 -0.1048
  473PEP     CB15213  10.188  11.900  22.647  0.1717  0.0284 -0.3319
  473PEP     CB15214  10.290  11.440  22.573  0.1749 -0.0332 -0.2429
  473PEP     CB15215  10.589  11.218  22.336 -0.0965 -0.2886  0.2103
  473PEP     CB15216  10.908  11.370  22.114 -0.3824  0.3658 -0.0533
  473PEP     CB15217  11.342  11.563  22.278  0.3074  0.1551 -0.3252
  473PEP     CB15218  11.332  11.789  22.576  0.1229 -0.2961 -0.0266
  473PEP     CB15219  11.401  12.005  23.005 -0.5103  0.4525 -0.2256
  473PEP     CB15220  11.415  12.107  23.509  0.0245 -0.1169  0.1985
  473PEP     CB15221  11.731  11.941  23.845 -0.1524  0.1085  0.3345
  473PEP     CB15222  11.805  11.438  23.989  0.3142  0.7262 -0.0078
  473PEP     CB15223  11.530  11.251  24.326 -0.1244  0.0532  0.0185
  473PEP     CB15224  11.064  11.448  24.370 -0.1800  0.1206 -0.0431
  473PEP     CB15225  10.649  11.457  24.199 -0.2488  0.0385 -0.1243
  473PEP     CB15226  10.587  11.490  23.739 -0.0441 -0.1643 -0.1277
  473PEP     CB15227  10.671  11.765  23.386 -0.0147 -0.1483  0.1492
  473PEP     CB15228  10.580  12.103  22.999 -0.0701 -0.0730 -0.2829
  473PEP     CB15229  10.231  12.468  22.863  0.2521  0.1290 -0.3190
  473PEP     CB15230  10.116  12.701  22.557 -0.1293 -0.2113  0.2411
  473PEP     CB15231   9.839  12.817  22.247  0.2497 -0.2264 -0.0558
  473PEP     CB15232   9.653  12.680  21.836  0.0840  0.1762  0.0231
  473PEP     CB15233   9.616  12.645  21.411  0.1500  0.0668  0.0542
  473PEP     CB15234   9.496  12.484  21.035 -0.2301  0.0898  0.0154
  473PEP     CB15235   9.295  12.224  20.727  0.0408 -0.1328  0.0272
  473PEP     CB15236   8.876  12.086  20.435  0.1078 -0.1921 -0.0969
  473PEP     CB15237   8.532  11.837  20.413  0.1010 -0.0674  0.2521
  473PEP     CB15238   8.159  11.644  20.225 -0.3651 -0.1031 -0.1156
  473PEP     CB15239   8.106  11.212  19.942  0.0267  0.0592  0.2080
  473PEP     CB15240   7.930  10.863  20.158 -0.2749  0.0663  0.0443
  474PEP     CB15241   1.447  12.333  14.833  0.2761 -0.1454 -0.2975
  474PEP     CB15242   1.660  12.078  15.125  0.0765 -0.0491  0.1820
  474PEP     CB15243   1.685  11.570  15.271  0.0127 -0.2318  0.0982
  474PEP     CB15244   1.563  11.223  15.486 -0.0519  0.2680  0.1946
  474PEP     CB15245   1.255  10.903  15.571 -0.2181 -0.3466 -0.4008
  474PEP     CB15246   0.879  10.866  15.510 -0.2438  0.0049 -0.5397
  474PEP     CB15247   0.635  11.002  15.034 -0.3108  0.1097  0.1790
  474PEP     CB15248   0.541  11.369  14.841 -0.1369  0.1824  0.0746
  474PEP     CB15249   0.687  11.730  14.841 -0.3003 -0.0330  0.1507
  474PEP     CB15250   1.090  11.999  14.901  0.2462  0.0437  0.1894
  474PEP     CB15251   1.405  12.020  14.515  0.3347  0.2508  0.1284
  474PEP     CB15252   1.692  11.746  14.255  0.1425 -0.2738 -0.0605
  474PEP     CB15253   1.785  11.419  14.040 -0.1183  0.3205  0.4312
  474PEP     CB15254   1.890  11.237  13.695  0.3897 -0.4245 -0.1346
  474PEP     CB15255   2.171  11.098  13.363 -0.1679 -0.1419 -0.0797
  474PEP     CB15256   2.660  11.165  13.407 -0.2849 -0.2086  0.0569
  474PEP     CB15257   2.919  11.457  13.577  0.1061 -0.0575 -0.0994
  474PEP     CB15258   3.028  11.832  13.827 -0.3012  0.3349 -0.0465
  474PEP     CB15259   3.112  11.902  14.215  0.1925  0.1775 -0.1649
  474PEP     CB15260   2.941  11.841  14.644  0.0524  0.3576 -0.0512
  474PEP     CB15261   2.959  11.555  14.999  0.2812  0.2992  0.1820
  474PEP     CB15262   3.126  11.337  15.337 -0.1448 -0.0963 -0.2358
  474PEP     CB15263   3.329  10.993  15.554 -0.3063 -0.0993 -0.1664
  474PEP     CB15264   3.247  10.515  15.587 -0.0897  0.0374 -0.1188
  474PEP     CB15265   3.186  10.129  15.785 -0.2006 -0.1374  0.0822
  474PEP     CB15266   2.966   9.720  15.746 -0.4110 -0.0203 -0.0893
  474PEP     CB15267   2.651   9.566  15.549 -0.4731  0.3131 -0.1569
  474PEP     CB15268   2.468   9.181  15.324  0.0254  0.1505  0.0071
  474PEP     CB15269   2.638   8.741  15.281  0.5461  0.1353 -0.0019
  474PEP     CB15270   2.963   8.479  15.091 -0.3750 -0.0964  0.3048
  474PEP     CB15271   2.905   8.127  14.823  0.1426  0.1835 -0.0689
  474PEP     CB15272   2.884   7.657  14.813  0.3904 -0.2731 -0.0145
  474PEP     CB15273   2.960   7.389  15.016 -0.0271 -0.0547 -0.4605
  474PEP     CB15274   2.900   6.939  15.011 -0.0255  0.2815  0.2235
  474PEP     CB15275   2.754   6.561  15.083 -0.3448 -0.0011 -0.2095
  474PEP     CB15276   2.733   6.252  15.115  0.1839 -0.1674 -0.0835
  474PEP     CB15277   2.560   5.928  15.006  0.4774 -0.4439  0.1393
  474PEP     CB15278   2.686   5.508  15.013  0.2353  0.1746 -0.4281
  474PEP     CB15279   2.968   5.247  14.878 -0.0262  0.2312  0.4363
  474PEP     CB15280   3.004   5.005  14.529 -0.0126  0.2343 -0.0881
  475PEP     CB15281   7.110   2.297  21.965  0.0764  0.3680  0.4901
  475PEP     CB15282   7.452   2.213  22.262  0.2304 -0.0268  0.2782
  475PEP     CB15283   7.944   2.284  22.403 -0.1030  0.1685 -0.4518
  475PEP     CB15284   8.317   2.428  22.309 -0.1921  0.1638 -0.0423
  475PEP     CB15285   8.513   2.623  22.031 -0.0893 -0.3442 -0.0298
  475PEP     CB15286   8.522   2.564  21.609 -0.3077  0.1078  0.1523
  475PEP     CB15287   8.333   2.262  21.263  0.3178 -0.1248  0.3810
  475PEP     CB15288   8.078   1.906  21.097  0.2438 -0.0975 -0.2348
  475PEP     CB15289   7.978   1.494  21.086  0.0320  0.2073 -0.0086
  475PEP     CB15290   7.836   0.963  21.010  0.0490  0.0335  0.0337
  475PEP     CB15291   7.767   0.576  21.223 -0.0395  0.0848 -0.0853
  475PEP     CB15292   7.370   0.275  21.326 -0.1142  0.2342  0.0005
  475PEP     CB15293   7.021   0.228  21.563 -0.0481  0.0216  0.0313
  475PEP     CB15294   6.727   0.307  21.900  0.0650 -0.0733  0.2900
  475PEP     CB15295   6.707   0.385  22.334 -0.1022 -0.2286 -0.6232
  475PEP     CB15296   6.550   0.214  22.713 -0.0657  0.3795  0.0918
  475PEP     CB15297   6.150   0.013  22.747  0.2178 -0.0358 -0.3498
  475PEP     CB15298   5.784   0.014  22.926  0.0110  0.2187  0.0151
  475PEP     CB15299   5.413  -0.027  22.781 -0.0124  0.0333  0.0789
  475PEP     CB15300   5.190   0.199  22.508  0.3316  0.1773 -0.3074
  475PEP     CB15301   5.092   0.656  22.534 -0.1406  0.2618 -0.2073
  475PEP     CB15302   5.188   0.961  22.823 -0.1842 -0.2826  0.3341
  475PEP     CB15303   5.105   1.176  23.097 -0.2440 -0.1265  0.4175
  475PEP     CB15304   5.127   1.359  23.535  0.1415  0.2222  0.4060
  475PEP     CB15305   5.151   1.676  23.752 -0.4292  0.2676  0.0609
  475PEP     CB15306   5.169   2.075  23.587 -0.1602 -0.0683 -0.0771
  475PEP     CB15307   5.001   2.082  23.161  0.0117  0.1324  0.1474
  475PEP     CB15308   4.801   1.742  23.068  0.1976  0.1023 -0.0444
  475PEP     CB15309   4.436   1.494  23.239  0.1225  0.2815 -0.3792
  475PEP     CB15310   4.284   1.334  23.693 -0.0106 -0.1016  0.3331
  475PEP     CB15311   4.021   1.422  24.039 -0.0489  0.2450 -0.0426
  475PEP     CB15312   3.907   1.742  24.342  0.0449 -0.1943  0.0568
  475PEP     CB15313   4.043   1.865  24.796 -0.0452  0.0568 -0.1132
  475PEP     CB15314   4.449   1.992  24.809 -0.1041  0.6300  0.1450
  475PEP     CB15315   4.719   2.031  24.506  0.2723  0.6588  0.1459
  475PEP     CB15316   4.698   2.124  24.018  0.2201  0.1212 -0.0323
  475PEP     CB15317   4.632   2.116  23.515 -0.2498  0.1548  0.2049
  475PEP     CB15318   4.517   2.221  23.091  0.0039  0.1130  0.0210
  475PEP     CB15319   4.519   1.973  22.740  0.0768  0.0354 -0.0606
  475PEP     CB15320   4.689   1.612  22.612 -0.1313 -0.0974 -0.0002
  476PEP     CB15321  12.287  11.794   4.336 -0.0341  0.0864 -0.3357
  476PEP     CB15322  12.214  12.183   4.558 -0.0135 -0.0771 -0.0359
  476PEP     CB15323  12.252  12.259   4.956 -0.3156  0.0250  0.0670
  476PEP     CB15324  12.142  11.899   5.242  0.1865 -0.1428 -0.0654
  476PEP     CB15325  11.884  11.491   5.145  0.0697 -0.0332  0.3265
  476PEP     CB15326  11.501  11.458   4.937  0.2367 -0.1382 -0.0426
  476PEP     CB15327  11.361  11.272   4.507 -0.2094 -0.3201  0.4870
  476PEP     CB15328  11.370  11.240   3.993  0.1308  0.0713 -0.0859
  476PEP     CB15329  11.662  11.471   3.670  0.2285  0.0508  0.0968
  476PEP     CB15330  11.902  11.748   3.722 -0.0278 -0.0364  0.4110
  476PEP     CB15331  12.233  11.654   3.919 -0.1607 -0.4342 -0.2623
  476PEP     CB15332  12.482  11.341   4.186 -0.4108 -0.7528 -0.1293
  476PEP     CB15333  12.952  11.278   4.253 -0.1181 -0.5423 -0.1514
  476PEP     CB15334  13.231  11.078   3.957 -0.2022  0.4267  0.0873
  476PEP     CB15335  13.603  10.749   3.929  0.0052 -0.3030 -0.3288
  476PEP     CB15336  13.864  10.611   3.640  0.0209 -0.2279  0.3378
  476PEP     CB15337  14.091  10.567   3.190  0.2669  0.2002 -0.1286
  476PEP     CB15338  14.327  10.625   2.846  0.3060  0.2906  0.2366
  476PEP     CB15339  14.734  10.841   2.697 -0.0251  0.0380  0.1081
  476PEP     CB15340  14.986  11.234   2.640  0.0864 -0.4170 -0.7458
  476PEP     CB15341  15.175  11.701   2.465 -0.0114 -0.0112 -0.0006
  476PEP     CB15342  14.896  12.108   2.578  0.0037 -0.1562 -0.3385
  476PEP     CB15343  14.431  12.148   2.523  0.1544  0.5188  0.3555
  476PEP     CB15344  14.082  11.910   2.617  0.1753 -0.1185  0.2934
  476PEP     CB15345  13.957  11.547   2.828 -0.2325 -0.1086 -0.2507
  476PEP     CB15346  14.082  11.301   3.238  0.0191 -0.3908  0.0208
  476PEP     CB15347  14.528  11.306   3.490  0.3246 -0.2143  0.1778
  476PEP     CB15348  14.840  11.739   3.558 -0.2179  0.1109 -0.1437
  476PEP     CB15349  14.744  12.216   3.553 -0.2297  0.0742  0.2711
  476PEP     CB15350  14.331  12.538   3.649 -0.1256  0.1111  0.3861
  476PEP     CB15351  13.888  12.601   3.644 -0.0364 -0.3140 -0.2219
  476PEP     CB15352  13.524  12.528   3.785  0.2810 -0.0688  0.2358
  476PEP     CB15353  13.395  12.474   4.259 -0.3301 -0.2158  0.0738
  476PEP     CB15354  13.678  12.430   4.603 -0.3562 -0.1883 -0.0248
  476PEP     CB15355  14.138  12.402   4.545 -0.0631  0.2748  0.2284
  476PEP     CB15356  14.608  12.272   4.464  0.0956 -0.1341 -0.1748
  476PEP     CB15357  14.981  12.317   4.164  0.2346 -0.4770  0.2684
  476PEP     CB15358  15.140  12.073   3.835  0.0129 -0.0327  0.0215
  476PEP     CB15359  15.429  12.047   3.358  0.1473 -0.1103  0.1085
  476PEP     CB15360  15.577  12.324   3.152 -0.3825  0.0779  0.0620
  477PEP     CB15361  14.051  11.212  20.582  0.2208  0.2098  0.3386
  477PEP     CB15362  14.259  10.862  20.704  0.2888  0.2854  0.0485
  477PEP     CB15363  14.216  10.429  20.536  0.2622 -0.1053  0.3636
  477PEP     CB15364  14.139  10.229  20.108  0.0615  0.4947  0.2485
  477PEP     CB15365  14.039  10.016  19.726  0.1258 -0.0739  0.2486
  477PEP     CB15366  14.145  10.115  19.254 -0.5097  0.2809  0.0686
  477PEP     CB15367  14.541  10.320  19.000 -0.0609 -0.0361 -0.1883
  477PEP     CB15368  14.967  10.243  19.148 -0.0055 -0.1597 -0.4882
  477PEP     CB15369  15.095  10.331  19.545  0.0232  0.1987 -0.0753
  477PEP     CB15370  14.933  10.386  19.956 -0.0492  0.2428  0.0736
  477PEP     CB15371  14.557  10.560  20.063 -0.1117  0.0726  0.2782
  477PEP     CB15372  14.220  10.704  19.785  0.1875 -0.2707 -0.4360
  477PEP     CB15373  14.233  10.635  19.304 -0.0932 -0.0528 -0.0659
  477PEP     CB15374  14.050  10.466  18.907 -0.2096 -0.0183 -0.0713
  477PEP     CB15375  13.686  10.324  18.792 -0.1482  0.0468  0.0028
  477PEP     CB15376  13.310  10.457  19.026  0.1574  0.0834  0.1954
  477PEP     CB15377  13.281  10.661  19.484  0.1305 -0.0815 -0.1454
  477PEP     CB15378  13.211  11.007  19.691 -0.3988 -0.0928  0.2167
  477PEP     CB15379  13.195  11.445  19.782 -0.1201  0.0847 -0.0519
  477PEP     CB15380  13.182  11.668  20.118  0.0063 -0.2187 -0.0268
  477PEP     CB15381  13.290  11.551  20.566 -0.4546 -0.2591 -0.0157
  477PEP     CB15382  13.158  11.086  20.669  0.0831 -0.0198 -0.1490
  477PEP     CB15383  13.032  10.786  20.464 -0.2751 -0.1963  0.0384
  477PEP     CB15384  12.950  10.620  19.946  0.6566  0.2520 -0.0253
  477PEP     CB15385  12.814  10.310  19.665 -0.3402 -0.1295  0.1661
  477PEP     CB15386  12.480  10.178  19.379 -0.3895 -0.2041 -0.2268
  477PEP     CB15387  12.326  10.249  19.008 -0.1844 -0.2053 -0.0437
  477PEP     CB15388  12.522  10.432  18.666  0.0545  0.1745 -0.0259
  477PEP     CB15389  12.844  10.794  18.673 -0.1295  0.3662  0.4049
  477PEP     CB15390  12.964  11.210  18.678  0.1817  0.0544  0.3464
  477PEP     CB15391  13.133  11.559  18.889  0.1768  0.0455 -0.3897
  477PEP     CB15392  13.574  11.851  18.900  0.1258  0.0979  0.4230
  477PEP     CB15393  13.898  11.801  18.672  0.6768  0.0741 -0.0376
  477PEP     CB15394  13.847  11.730  18.253  0.0135  0.2188 -0.0395
  477PEP     CB15395  13.623  11.957  18.059  0.1480  0.1757 -0.2695
  477PEP     CB15396  13.179  12.208  18.085 -0.0595  0.1751  0.2036
  477PEP     CB15397  12.894  12.627  17.977  0.0556 -0.1631  0.0539
  477PEP     CB15398  12.649  12.832  17.674  0.1051  0.1680 -0.0323
  477PEP     CB15399  12.180  12.757  17.576 -0.1707  0.3056 -0.3045
  477PEP     CB15400  11.794  12.757  17.827  0.1395  0.3722 -0.0751
  478PEP     CB15401   5.853   7.681   3.488  0.0394  0.0089 -0.1685
  478PEP     CB15402   5.957   7.544   3.875 -0.0189  0.0185  0.0951
  478PEP     CB15403   5.988   7.657   4.249 -0.2501 -0.2015  0.0365
  478PEP     CB15404   5.909   7.931   4.653  0.0743  0.0680  0.2228
  478PEP     CB15405   5.997   8.042   4.995  0.2439 -0.0240 -0.0599
  478PEP     CB15406   5.838   8.381   5.302  0.1410  0.3128  0.1576
  478PEP     CB15407   5.916   8.827   5.452 -0.2716  0.1509 -0.3276
  478PEP     CB15408   5.828   9.113   5.234 -0.6156 -0.1574  0.2309
  478PEP     CB15409   5.642   9.428   5.132  0.2018  0.1058 -0.1972
  478PEP     CB15410   5.294   9.650   5.191  0.0958 -0.1481 -0.2889
  478PEP     CB15411   5.129  10.066   5.101 -0.0485 -0.2009 -0.0364
  478PEP     CB15412   4.879  10.232   4.675  0.1244  0.1621 -0.4928
  478PEP     CB15413   4.663   9.843   4.557 -0.1398  0.0414  0.1463
  478PEP     CB15414   4.213   9.788   4.520  0.0383 -0.2656 -0.1237
  478PEP     CB15415   3.920   9.965   4.787  0.0542 -0.5124 -0.0862
  478PEP     CB15416   3.968  10.023   5.245 -0.4064  0.0850 -0.2170
  478PEP     CB15417   4.408   9.928   5.421  0.1987 -0.3157 -0.1402
  478PEP     CB15418   4.618  10.264   5.395 -0.1264  0.2224 -0.0704
  478PEP     CB15419   4.450  10.717   5.372  0.1601  0.1717 -0.1221
  478PEP     CB15420   4.110  10.883   5.130 -0.2076 -0.5159  0.4814
  478PEP     CB15421   3.610  10.833   5.184 -0.3994  0.2065 -0.5291
  478PEP     CB15422   3.213  10.568   5.217  0.0585  0.0637  0.2755
  478PEP     CB15423   2.890  10.330   5.379  0.2396  0.0924  0.3331
  478PEP     CB15424   2.569  10.096   5.283 -0.3276 -0.2055 -0.0681
  478PEP     CB15425   2.097  10.218   5.139 -0.1472  0.2377  0.5356
  478PEP     CB15426   1.758  10.434   4.864 -0.2698 -0.2766 -0.0399
  478PEP     CB15427   1.763  10.834   4.689 -0.2470 -0.0661 -0.1455
  478PEP     CB15428   1.780  11.339   4.762 -0.3425  0.1191 -0.1724
  478PEP     CB15429   2.115  11.607   4.932 -0.1109 -0.4242 -0.1568
  478PEP     CB15430   2.575  11.736   4.777  0.0351 -0.0631  0.1899
  478PEP     CB15431   2.810  11.519   4.426 -0.4348  0.1358 -0.0580
  478PEP     CB15432   2.740  11.087   4.104  0.3079 -0.0544 -0.2156
  478PEP     CB15433   2.484  10.731   3.883 -0.2487  0.2589  0.0343
  478PEP     CB15434   2.411  10.340   3.626  0.1182  0.1081 -0.1694
  478PEP     CB15435   2.102  10.014   3.456  0.3434  0.2547  0.0137
  478PEP     CB15436   1.971   9.652   3.224 -0.1643 -0.2707 -0.1780
  478PEP     CB15437   1.647   9.568   2.906  0.0541  0.0106  0.4138
  478PEP     CB15438   1.228   9.817   2.837  0.2310  0.1416  0.1268
  478PEP     CB15439   1.132  10.052   3.210  0.1436  0.1418  0.4853
  478PEP     CB15440   1.404  10.092   3.634 -0.0127  0.3379 -0.0338
  479PEP     CB15441  12.573  17.628  10.017 -0.1242 -0.1791 -0.0507
  479PEP     CB15442  13.003  17.499   9.998  0.0584  0.0292 -0.1804
  479PEP     CB15443  13.383  17.633   9.745 -0.1434  0.1629 -0.6066
  479PEP     CB15444  13.546  18.094   9.612  0.0321 -0.1849  0.2017
  479PEP     CB15445  13.725  18.417   9.554  0.0426  0.0264  0.0461
  479PEP     CB15446  13.852  18.822   9.496  0.0207 -0.1671  0.1534
  479PEP     CB15447  14.268  19.012   9.544 -0.0421 -0.0746  0.2569
  479PEP     CB15448  14.654  19.125   9.658 -0.1355 -0.0568  0.0218
  479PEP     CB15449  14.945  19.462   9.598 -0.2005 -0.5154 -0.1517
  479PEP     CB15450  14.973  19.814   9.353  0.1824 -0.2322  0.4583
  479PEP     CB15451  14.772  20.114   9.106  0.4190 -0.2090  0.1030
  479PEP     CB15452  14.440  20.202   8.756 -0.1331  0.2070  0.3239
  479PEP     CB15453  14.178  20.504   8.501 -0.2203  0.1099  0.1970
  479PEP     CB15454  13.824  20.618   8.161 -0.1237 -0.0609  0.2071
  479PEP     CB15455  13.834  20.781   7.747 -0.3969 -0.4449  0.0549
  479PEP     CB15456  14.112  21.075   7.563 -0.2518 -0.3089 -0.3562
  479PEP     CB15457  14.410  21.225   7.255 -0.3909 -0.3353  0.0071
  479PEP     CB15458  14.852  21.294   7.278  0.0354 -0.0518  0.2603
  479PEP     CB15459  15.036  20.992   7.351 -0.0919  0.0409  0.0914
  479PEP     CB15460  14.966  20.634   7.132 -0.0121  0.0183 -0.2095
  479PEP     CB15461  14.987  20.390   6.680 -0.0804  0.2330 -0.0978
  479PEP     CB15462  15.167  20.123   6.307  0.4736 -0.1848  0.1809
  479PEP     CB15463  15.100  19.920   5.863  0.0076  0.3130  0.2174
  479PEP     CB15464  15.159  19.842   5.383  0.0349  0.0621  0.2014
  479PEP     CB15465  15.290  20.043   5.046  0.1058 -0.0937  0.0098
  479PEP     CB15466  15.367  20.226   4.710 -0.2604  0.0649  0.0154
  479PEP     CB15467  15.665  20.229   4.378  0.1418  0.3557 -0.0947
  479PEP     CB15468  15.876  20.069   4.095  0.2368 -0.3268  0.2116
  479PEP     CB15469  16.128  20.268   3.732 -0.0119  0.0627 -0.3723
  479PEP     CB15470  16.121  20.469   3.381  0.0105  0.0864 -0.0827
  479PEP     CB15471  15.981  20.536   2.940  0.1470 -0.0626  0.3080
  479PEP     CB15472  15.707  20.672   2.661 -0.0028 -0.1749  0.2774
  479PEP     CB15473  15.339  20.882   2.393 -0.2567 -0.2126 -0.0315
  479PEP     CB15474  15.168  20.917   2.020 -0.4423 -0.0251  0.1449
  479PEP     CB15475  15.167  21.107   1.602  0.4468 -0.0116  0.3138
  479PEP     CB15476  15.280  21.252   1.172 -0.2324 -0.2102 -0.0470
  479PEP     CB15477  15.166  21.258   0.771  0.1061 -0.1597  0.4302
  479PEP     CB15478  15.135  21.136   0.456  0.1135 -0.0252  0.4634
  479PEP     CB15479  14.969  20.740   0.162 -0.0534  0.1447  0.3841
  479PEP     CB15480  15.091  20.393  -0.041 -0.0457 -0.1446 -0.3942
  480PEP     CB15481   0.754  20.297   6.572  0.2687 -0.2748 -0.1312
  480PEP     CB15482   0.516  20.188   6.926 -0.0926  0.3933 -0.2188
  480PEP     CB15483   0.373  20.453   7.316 -0.3564 -0.0254  0.1381
  480PEP     CB15484   0.376  20.800   7.649 -0.2248 -0.3180 -0.1341
  480PEP     CB15485   0.613  21.174   7.951 -0.1938 -0.2614 -0.0109
  480PEP     CB15486   0.771  21.593   7.973  0.1308 -0.2192 -0.2753
  480PEP     CB15487   1.254  21.720   8.063  0.3852 -0.1545 -0.0305
  480PEP     CB15488   1.466  21.266   8.149  0.3754  0.0425 -0.0026
  480PEP     CB15489   1.209  20.850   8.182  0.2388  0.5097  0.0863
  480PEP     CB15490   0.862  20.482   8.086 -0.0513 -0.3623 -0.1091
  480PEP     CB15491   0.446  20.428   8.037  0.1367  0.1333 -0.3502
  480PEP     CB15492  -0.036  20.478   8.058 -0.1633  0.0922 -0.3060
  480PEP     CB15493  -0.221  20.655   7.731 -0.1765  0.0210  0.1038
  480PEP     CB15494  -0.053  21.015   7.518  0.0464 -0.0615  0.0682
  480PEP     CB15495   0.270  21.224   7.488  0.0859 -0.2999  0.2413
  480PEP     CB15496   0.696  21.343   7.391  0.0185  0.3428  0.1456
  480PEP     CB15497   1.026  21.161   7.078 -0.2470 -0.5019 -0.3836
  480PEP     CB15498   1.169  20.887   6.668 -0.3302  0.0452 -0.2078
  480PEP     CB15499   1.273  20.906   6.257  0.2566  0.2330 -0.1964
  480PEP     CB15500   1.462  21.271   6.101 -0.0543 -0.0018 -0.0284
  480PEP     CB15501   1.395  21.630   6.188 -0.1067  0.2296  0.3032
  480PEP     CB15502   1.140  21.905   6.181  0.1467 -0.0925  0.2102
  480PEP     CB15503   0.798  22.158   5.889 -0.0338 -0.1263  0.2936
  480PEP     CB15504   0.807  22.304   5.439 -0.3929  0.1056 -0.0487
  480PEP     CB15505   1.001  22.206   5.054 -0.0163  0.5134 -0.1414
  480PEP     CB15506   1.110  21.900   4.731 -0.1994 -0.0177  0.0013
  480PEP     CB15507   1.137  21.836   4.226  0.5389  0.2018 -0.1689
  480PEP     CB15508   1.040  21.664   3.769  0.1241  0.2385 -0.0735
  480PEP     CB15509   0.896  21.279   3.533  0.0047  0.0727 -0.0960
  480PEP     CB15510   1.007  21.033   3.072  0.0257 -0.0710 -0.4853
  480PEP     CB15511   1.262  21.034   2.692 -0.2137  0.0564  0.0322
  480PEP     CB15512   1.625  21.300   2.590 -0.0058  0.2446 -0.0382
  480PEP     CB15513   2.071  21.244   2.667  0.2593  0.4101 -0.2438
  480PEP     CB15514   2.234  20.855   2.728  0.1722  0.2684  0.2511
  480PEP     CB15515   1.909  20.556   2.702  0.2592  0.0862 -0.3318
  480PEP     CB15516   1.490  20.619   2.501  0.0797  0.3196  0.4087
  480PEP     CB15517   1.399  20.929   2.245 -0.1460  0.1544 -0.1283
  480PEP     CB15518   1.203  21.324   2.257 -0.4334  0.3119  0.0114
  480PEP     CB15519   0.892  21.676   2.462  0.2427 -0.3711 -0.2728
  480PEP     CB15520   0.513  21.665   2.638 -0.1927  0.1376 -0.3054
  481PEP     CB15521  15.341   6.725   2.463 -0.0334  0.0675 -0.4587
  481PEP     CB15522  15.597   6.426   2.454 -0.1396 -0.2705 -0.3305
  481PEP     CB15523  15.934   6.382   2.648  0.2418 -0.3151  0.2186
  481PEP     CB15524  16.223   6.160   2.921 -0.2560 -0.1786  0.0219
  481PEP     CB15525  16.604   6.053   2.763 -0.2737 -0.3662 -0.4694
  481PEP     CB15526  16.730   6.140   2.381 -0.3139  0.0871  0.2247
  481PEP     CB15527  16.361   6.087   2.114 -0.0251  0.0255  0.1170
  481PEP     CB15528  15.977   5.915   2.393  0.2156  0.3130 -0.1329
  481PEP     CB15529  15.753   5.893   2.691  0.2563  0.2988 -0.1487
  481PEP     CB15530  15.637   6.141   2.969 -0.0225  0.1160 -0.0581
  481PEP     CB15531  15.746   6.619   3.077 -0.0181 -0.0213  0.0456
  481PEP     CB15532  16.188   6.706   3.008  0.1411 -0.0187  0.1685
  481PEP     CB15533  16.471   6.559   2.648  0.1723  0.2822 -0.1636
  481PEP     CB15534  16.215   6.607   2.292 -0.0142  0.1943  0.3891
  481PEP     CB15535  15.939   6.421   1.992 -0.0337  0.0273 -0.1771
  481PEP     CB15536  15.864   5.927   1.893  0.0801 -0.0578  0.3264
  481PEP     CB15537  15.627   5.562   1.767 -0.1782  0.2465  0.3313
  481PEP     CB15538  15.322   5.324   1.497  0.1365 -0.1457 -0.2581
  481PEP     CB15539  15.064   4.991   1.141 -0.4710 -0.2320  0.0508
  481PEP     CB15540  14.894   4.746   0.693 -0.1955  0.2211  0.0040
  481PEP     CB15541  14.896   4.485   0.374 -0.2963 -0.1068  0.1610
  481PEP     CB15542  14.604   4.279   0.086  0.0601  0.0907 -0.3053
  481PEP     CB15543  14.168   4.246  -0.124  0.1680  0.1020 -0.2177
  481PEP     CB15544  13.770   4.276  -0.104  0.0572 -0.0826  0.2063
  481PEP     CB15545  13.250   4.356  -0.199  0.0651  0.1141  0.0971
  481PEP     CB15546  12.814   4.247  -0.251 -0.1383  0.1954 -0.2003
  481PEP     CB15547  12.560   3.952  -0.493 -0.0771  0.1548  0.1610
  481PEP     CB15548  12.802   3.734  -0.850  0.0867 -0.3874  0.3550
  481PEP     CB15549  13.225   3.832  -0.752 -0.1174  0.1212 -0.0514
  481PEP     CB15550  13.440   3.977  -0.405 -0.0505  0.1225 -0.0104
  481PEP     CB15551  13.629   3.803  -0.112  0.1581 -0.2783  0.3069
  481PEP     CB15552  13.960   3.850   0.087  0.1223 -0.1626 -0.0240
  481PEP     CB15553  14.312   3.866   0.338 -0.4369 -0.1435 -0.1052
  481PEP     CB15554  14.433   4.270   0.650 -0.0674 -0.1306  0.2110
  481PEP     CB15555  14.373   4.619   0.703 -0.1739  0.3352 -0.2142
  481PEP     CB15556  14.461   4.997   0.426  0.0545 -0.0343  0.3330
  481PEP     CB15557  14.379   5.431   0.449 -0.0825  0.1799 -0.1799
  481PEP     CB15558  14.264   5.665   0.731 -0.5424 -0.2409 -0.2591
  481PEP     CB15559  14.195   5.560   1.207 -0.1278  0.2712  0.0066
  481PEP     CB15560  14.196   5.290   1.521  0.0824  0.0004 -0.0406
  482PEP     CB15561  10.160  20.017  14.100 -0.0104 -0.2261 -0.2001
  482PEP     CB15562  10.065  19.903  14.520  0.0874 -0.0557 -0.2978
  482PEP     CB15563   9.602  19.944  14.714 -0.0616  0.1955  0.1871
  482PEP     CB15564   9.189  19.914  14.839  0.0744 -0.1172  0.1586
  482PEP     CB15565   8.775  20.050  14.721 -0.0139  0.1253 -0.1530
  482PEP     CB15566   8.641  20.367  14.451 -0.0092  0.1053  0.1370
  482PEP     CB15567   8.759  20.452  14.041  0.0139  0.2086 -0.2015
  482PEP     CB15568   8.719  20.603  13.652 -0.2467 -0.1083 -0.2503
  482PEP     CB15569   8.563  20.891  13.348  0.2058 -0.1148 -0.3156
  482PEP     CB15570   8.151  21.015  13.078  0.0044 -0.1213 -0.2576
  482PEP     CB15571   7.737  21.236  13.192  0.1518  0.5529  0.0329
  482PEP     CB15572   7.312  21.346  13.365  0.0713  0.0778 -0.0643
  482PEP     CB15573   6.852  21.458  13.407  0.2191  0.3952 -0.3246
  482PEP     CB15574   6.532  21.536  13.752  0.0300 -0.0830  0.0516
  482PEP     CB15575   6.384  21.485  14.183  0.0319  0.0716 -0.0742
  482PEP     CB15576   6.424  21.332  14.562  0.3456 -0.0079 -0.2381
  482PEP     CB15577   6.426  20.878  14.718  0.1657 -0.4349  0.1631
  482PEP     CB15578   6.490  20.577  14.493 -0.0002 -0.1812  0.0371
  482PEP     CB15579   6.535  20.626  14.053  0.0598  0.0030 -0.1458
  482PEP     CB15580   6.439  20.882  13.715  0.3487 -0.1867 -0.2593
  482PEP     CB15581   6.141  21.154  13.588  0.1317 -0.2109 -0.2208
  482PEP     CB15582   6.012  21.418  13.235  0.1359  0.4646 -0.3768
  482PEP     CB15583   5.775  21.632  12.849 -0.0752  0.0817  0.1327
  482PEP     CB15584   5.768  21.928  12.476  0.1611  0.1905  0.0028
  482PEP     CB15585   5.846  22.313  12.212 -0.2592 -0.4056 -0.2351
  482PEP     CB15586   5.883  22.349  11.768  0.1516  0.1460 -0.0244
  482PEP     CB15587   6.021  22.354  11.289 -0.0444  0.0835 -0.0477
  482PEP     CB15588   6.358  22.022  11.119 -0.1623  0.1738 -0.1918
  482PEP     CB15589   6.514  21.718  11.358 -0.4906  0.1511  0.1698
  482PEP     CB15590   6.579  21.634  11.776 -0.3989  0.0413 -0.0381
  482PEP     CB15591   6.558  21.308  12.052 -0.0096  0.0668 -0.1063
  482PEP     CB15592   6.719  20.901  12.163 -0.4602  0.0178  0.1406
  482PEP     CB15593   6.939  20.716  11.881 -0.1391  0.1071 -0.3502
  482PEP     CB15594   6.994  20.833  11.426 -0.0528 -0.0249 -0.2233
  482PEP     CB15595   6.920  21.317  11.331  0.0986 -0.1937 -0.1068
  482PEP     CB15596   7.035  21.658  11.408  0.0238 -0.0304 -0.0231
  482PEP     CB15597   7.272  22.026  11.379 -0.1670 -0.2505 -0.1072
  482PEP     CB15598   7.507  22.275  11.135  0.0244  0.5083 -0.1839
  482PEP     CB15599   7.683  22.500  10.781 -0.0867 -0.0213 -0.0225
  482PEP     CB15600   7.851  22.534  10.421  0.1783 -0.1285  0.2331
  483PEP     CB15601   4.440  12.389   8.381  0.2117  0.4954  0.3914
  483PEP     CB15602   3.990  12.457   8.516 -0.0733  0.0923  0.2732
  483PEP     CB15603   3.628  12.847   8.547  0.3756 -0.0734  0.3690
  483PEP     CB15604   3.387  13.044   8.279  0.0016 -0.3269 -0.1938
  483PEP     CB15605   3.219  13.416   8.099  0.0313 -0.0775 -0.3319
  483PEP     CB15606   3.179  13.828   7.867 -0.1077 -0.0908  0.0726
  483PEP     CB15607   3.042  13.897   7.511 -0.3289  0.0563 -0.0131
  483PEP     CB15608   2.909  14.313   7.152 -0.4016 -0.0886  0.0657
  483PEP     CB15609   2.762  14.738   7.121 -0.1675 -0.0238 -0.1193
  483PEP     CB15610   2.775  15.070   7.008  0.1023  0.3526  0.3143
  483PEP     CB15611   2.938  15.425   6.843  0.3135 -0.2410 -0.0486
  483PEP     CB15612   3.220  15.684   6.541  0.0404 -0.2033 -0.2165
  483PEP     CB15613   3.365  16.110   6.383 -0.1788 -0.0821  0.2328
  483PEP     CB15614   3.446  16.522   6.089  0.0004  0.0503  0.0588
  483PEP     CB15615   3.624  16.911   6.222  0.1687 -0.1051  0.0230
  483PEP     CB15616   3.841  16.935   6.609 -0.0982 -0.0439 -0.6387
  483PEP     CB15617   3.785  16.694   6.931  0.1315  0.1219 -0.4295
  483PEP     CB15618   4.061  16.462   7.229  0.1602 -0.0510  0.1941
  483PEP     CB15619   4.454  16.248   7.139 -0.1584  0.3414 -0.0693
  483PEP     CB15620   4.800  16.452   7.129  0.0714 -0.0225 -0.1182
  483PEP     CB15621   4.764  16.889   7.023 -0.1875 -0.0684  0.2919
  483PEP     CB15622   4.546  17.301   7.186  0.0661  0.1816  0.2818
  483PEP     CB15623   4.127  17.377   7.451  0.2476  0.1455 -0.0755
  483PEP     CB15624   3.882  17.307   7.776  0.4688 -0.3662  0.0520
  483PEP     CB15625   3.913  17.462   8.209 -0.2033  0.0457 -0.2218
  483PEP     CB15626   3.983  17.610   8.494  0.0954 -0.0504  0.4174
  483PEP     CB15627   4.221  17.904   8.777  0.0658  0.2564  0.1853
  483PEP     CB15628   4.458  17.940   9.131 -0.0649  0.1543 -0.0232
  483PEP     CB15629   4.847  18.152   9.185 -0.1133  0.0307  0.2024
  483PEP     CB15630   5.035  18.467   9.287 -0.0208 -0.0406  0.3614
  483PEP     CB15631   5.249  18.762   9.390  0.1254 -0.3427 -0.1126
  483PEP     CB15632   5.374  19.166   9.420  0.1969  0.2654 -0.5352
  483PEP     CB15633   5.574  19.609   9.420 -0.2338 -0.0083  0.0154
  483PEP     CB15634   5.777  19.993   9.613  0.2135 -0.0148  0.0852
  483PEP     CB15635   5.793  20.397   9.821 -0.1875  0.0292 -0.0522
  483PEP     CB15636   5.798  20.814  10.040  0.1587  0.0781 -0.0390
  483PEP     CB15637   5.639  21.126  10.314  0.1485 -0.0549  0.2706
  483PEP     CB15638   5.428  21.242  10.714  0.2717  0.2541 -0.4007
  483PEP     CB15639   5.143  21.369  10.930 -0.3154  0.1016  0.2004
  483PEP     CB15640   4.723  21.266  10.895 -0.0697 -0.1741 -0.4664
  484PEP     CB15641   1.984  11.170   6.024 -0.4029 -0.1157  0.1208
  484PEP     CB15642   2.426  11.180   6.029 -0.1236 -0.2687  0.3202
  484PEP     CB15643   2.840  11.050   6.149 -0.0997 -0.2876  0.0223
  484PEP     CB15644   3.147  11.378   6.336 -0.1124 -0.1283 -0.2905
  484PEP     CB15645   3.073  11.712   6.628  0.0954 -0.0300  0.0730
  484PEP     CB15646   3.268  12.122   6.648 -0.3020  0.3805 -0.1811
  484PEP     CB15647   3.416  12.344   6.256 -0.2063  0.0813 -0.1129
  484PEP     CB15648   3.254  12.225   5.852  0.0248 -0.0844  0.1693
  484PEP     CB15649   2.922  11.856   5.799 -0.1827 -0.0887  0.0706
  484PEP     CB15650   2.597  11.665   6.116  0.2347  0.1000  0.2280
  484PEP     CB15651   2.511  11.824   6.457  0.1871 -0.4039 -0.0826
  484PEP     CB15652   2.323  12.012   6.795  0.1558 -0.2256 -0.0385
  484PEP     CB15653   2.236  12.371   7.052 -0.5243 -0.1771  0.0473
  484PEP     CB15654   2.208  12.668   7.403  0.1504  0.1064  0.1531
  484PEP     CB15655   2.150  12.879   7.790  0.0343 -0.1005 -0.1618
  484PEP     CB15656   2.360  12.831   8.164  0.1278 -0.1366  0.2868
  484PEP     CB15657   2.237  12.488   8.417  0.2722  0.3986 -0.0780
  484PEP     CB15658   1.781  12.351   8.507  0.0496 -0.2446  0.0194
  484PEP     CB15659   1.454  12.122   8.418  0.0403  0.5163  0.3563
  484PEP     CB15660   1.219  11.682   8.321  0.3037  0.0970 -0.3744
  484PEP     CB15661   1.410  11.295   8.532 -0.1509  0.2586  0.4396
  484PEP     CB15662   1.830  11.317   8.632 -0.0814  0.1323 -0.1614
  484PEP     CB15663   2.259  11.535   8.548 -0.0074 -0.0372  0.3532
  484PEP     CB15664   2.699  11.429   8.416 -0.0966  0.3471 -0.0851
  484PEP     CB15665   3.076  11.140   8.393 -0.1399 -0.1521  0.5631
  484PEP     CB15666   3.115  10.749   8.541 -0.1053  0.1612  0.0147
  484PEP     CB15667   2.902  10.435   8.625 -0.3102 -0.1109  0.0168
  484PEP     CB15668   2.517  10.262   8.866 -0.1038 -0.2523  0.0897
  484PEP     CB15669   2.272  10.351   9.311  0.1526 -0.1957 -0.2607
  484PEP     CB15670   2.281  10.146   9.693 -0.0093 -0.1145  0.0686
  484PEP     CB15671   2.410   9.974  10.078 -0.4717 -0.0247 -0.2270
  484PEP     CB15672   2.445  10.053  10.435 -0.0385 -0.0574  0.0754
  484PEP     CB15673   2.162  10.295  10.658 -0.3482 -0.1239 -0.1905
  484PEP     CB15674   1.807  10.422  10.335 -0.2186 -0.2415 -0.4112
  484PEP     CB15675   1.826  10.084  10.075  0.2409 -0.0858 -0.1124
  484PEP     CB15676   1.987   9.729   9.841 -0.1398 -0.0534  0.1225
  484PEP     CB15677   2.180   9.458   9.572  0.2636 -0.2359 -0.6421
  484PEP     CB15678   2.111   9.285   9.189 -0.2407 -0.1205 -0.2748
  484PEP     CB15679   1.690   9.094   9.148 -0.0541  0.3388  0.1835
  484PEP     CB15680   1.350   8.947   9.109  0.1994  0.0144 -0.1634
  485PEP     CB15681  12.200  10.692   0.835 -0.1215 -0.0282  0.4022
  485PEP     CB15682  12.564  10.713   0.562  0.1173 -0.1355  0.4013
  485PEP     CB15683  12.782  10.642   0.177 -0.0570 -0.4168 -0.1464
  485PEP     CB15684  12.847  10.293  -0.106 -0.0674  0.3560 -0.2478
  485PEP     CB15685  12.597   9.918  -0.098  0.1397 -0.2542  0.2915
  485PEP     CB15686  12.304   9.806   0.221  0.4539  0.5504 -0.1129
  485PEP     CB15687  12.400   9.735   0.678  0.0983  0.0115 -0.0342
  485PEP     CB15688  12.808   9.836   0.959  0.2529 -0.1983 -0.0916
  485PEP     CB15689  13.065  10.157   1.246  0.2610  0.1166  0.4158
  485PEP     CB15690  13.357  10.283   1.648  0.0007 -0.1663  0.2691
  485PEP     CB15691  13.726  10.504   1.895  0.1914 -0.3288 -0.1450
  485PEP     CB15692  14.020  10.647   2.161 -0.2727  0.2402  0.0852
  485PEP     CB15693  14.473  10.450   2.410 -0.3078 -0.2977 -0.3563
  485PEP     CB15694  14.843  10.220   2.286 -0.1849  0.3893  0.2596
  485PEP     CB15695  15.322  10.216   2.215 -0.0638  0.0499 -0.2366
  485PEP     CB15696  15.605  10.442   2.304  0.2310  0.1688  0.0502
  485PEP     CB15697  16.029  10.597   2.387 -0.1448 -0.1241  0.1765
  485PEP     CB15698  16.527  10.577   2.360  0.0701  0.1493 -0.1181
  485PEP     CB15699  16.897  10.598   2.489 -0.2076 -0.2028  0.2677
  485PEP     CB15700  17.219  10.789   2.652 -0.1261  0.1853  0.1950
  485PEP     CB15701  17.587  10.896   2.896  0.0613 -0.2184 -0.0375
  485PEP     CB15702  17.679  10.927   3.232  0.1483 -0.1279  0.4418
  485PEP     CB15703  17.549  11.280   3.479 -0.0412  0.7715  0.3952
  485PEP     CB15704  17.128  11.354   3.461  0.0034 -0.1176  0.2274
  485PEP     CB15705  16.898  11.676   3.196 -0.4826  0.0810  0.0442
  485PEP     CB15706  16.470  11.927   3.011  0.0640 -0.0610  0.2158
  485PEP     CB15707  16.131  12.174   3.206  0.2295 -0.0900 -0.0282
  485PEP     CB15708  15.803  12.159   3.622  0.1547  0.1251 -0.0668
  485PEP     CB15709  15.714  11.858   3.981 -0.1345 -0.0612  0.2667
  485PEP     CB15710  15.462  11.666   4.268  0.0063  0.3782 -0.0480
  485PEP     CB15711  15.464  11.263   4.346 -0.0524  0.2431 -0.1633
  485PEP     CB15712  15.577  10.838   4.287  0.1050 -0.0768 -0.6239
  485PEP     CB15713  15.310  10.429   4.254 -0.1535 -0.1738 -0.3208
  485PEP     CB15714  15.187  10.015   4.491 -0.1621 -0.0107 -0.0270
  485PEP     CB15715  15.311   9.843   4.859 -0.2058 -0.3093 -0.1474
  485PEP     CB15716  15.804   9.783   5.073  0.0971 -0.1350 -0.0339
  485PEP     CB15717  16.196   9.780   4.841 -0.0695 -0.1563 -0.2438
  485PEP     CB15718  16.317  10.176   4.695  0.2002 -0.0773  0.6540
  485PEP     CB15719  16.110  10.447   4.364  0.1477 -0.3722 -0.0217
  485PEP     CB15720  16.054  10.780   4.239  0.1758  0.2441 -0.0067
  486PEP     CB15721  18.451   1.963   0.377  0.1329  0.0611  0.2531
  486PEP     CB15722  18.742   1.947   0.203 -0.4058  0.1114 -0.1762
  486PEP     CB15723  19.136   1.678   0.085  0.2793  0.1573 -0.1346
  486PEP     CB15724  19.387   1.416  -0.147 -0.1820  0.3057  0.1248
  486PEP     CB15725  19.305   1.255  -0.707 -0.1446  0.1951  0.4901
  486PEP     CB15726  18.963   1.403  -0.922 -0.0571  0.0314  0.0746
  486PEP     CB15727  18.584   1.572  -0.935  0.0258  0.1297 -0.3685
  486PEP     CB15728  18.275   1.688  -0.653 -0.2188  0.0227 -0.0616
  486PEP     CB15729  17.914   1.639  -0.300  0.0317 -0.0318 -0.0265
  486PEP     CB15730  17.500   1.689  -0.212  0.1853  0.2173  0.2694
  486PEP     CB15731  17.161   1.738  -0.386  0.0833 -0.2245 -0.2201
  486PEP     CB15732  16.702   1.611  -0.363 -0.0692  0.2533  0.0677
  486PEP     CB15733  16.355   1.538  -0.192  0.4176  0.1182 -0.0062
  486PEP     CB15734  16.066   1.236  -0.136  0.0924 -0.1554  0.4191
  486PEP     CB15735  15.642   1.082  -0.136  0.2453  0.5730 -0.4117
  486PEP     CB15736  15.416   0.580  -0.091 -0.0668  0.1056  0.1887
  486PEP     CB15737  15.538   0.235  -0.347  0.0133  0.2091 -0.1599
  486PEP     CB15738  15.785   0.020  -0.641 -0.1732 -0.0815 -0.0229
  486PEP     CB15739  15.987  -0.178  -0.880  0.1481 -0.1829 -0.1277
  486PEP     CB15740  16.038  -0.105  -1.284 -0.1183 -0.0588  0.3159
  486PEP     CB15741  15.880   0.279  -1.442  0.0385  0.0087  0.1488
  486PEP     CB15742  15.862   0.703  -1.467 -0.2613 -0.0931 -0.0963
  486PEP     CB15743  16.140   0.986  -1.667  0.4536  0.4903 -0.0215
  486PEP     CB15744  16.240   0.981  -2.041  0.0820  0.2701  0.3774
  486PEP     CB15745  15.982   0.949  -2.404 -0.0620 -0.3178  0.3560
  486PEP     CB15746  15.818   0.551  -2.566 -0.1627 -0.0994 -0.0791
  486PEP     CB15747  15.685   0.108  -2.710  0.2645  0.1923 -0.0459
  486PEP     CB15748  15.336  -0.129  -2.884 -0.3881  0.1365 -0.1575
  486PEP     CB15749  15.000  -0.300  -3.115  0.3166 -0.2185 -0.7510
  486PEP     CB15750  15.055  -0.284  -3.632 -0.2806 -0.1519  0.3765
  486PEP     CB15751  15.078  -0.419  -4.067 -0.0181  0.4331 -0.4604
  486PEP     CB15752  15.325  -0.671  -4.310  0.0812  0.2951 -0.4370
  486PEP     CB15753  15.723  -0.551  -4.529 -0.1807  0.0240  0.2374
  486PEP     CB15754  15.886  -0.542  -4.939 -0.2796  0.2551 -0.3729
  486PEP     CB15755  15.938  -0.899  -5.225  0.0110 -0.2417 -0.1275
  486PEP     CB15756  16.146  -1.153  -5.585  0.0684 -0.0144 -0.1419
  486PEP     CB15757  16.130  -1.471  -5.841 -0.2304 -0.0864 -0.2318
  486PEP     CB15758  16.042  -1.878  -5.945 -0.1073  0.1637 -0.1108
  486PEP     CB15759  16.084  -2.124  -6.349  0.0090  0.1927  0.2492
  486PEP     CB15760  15.955  -2.484  -6.676  0.1549 -0.0398  0.0497
  487PEP     CB15761   4.018  20.287   4.146 -0.0176  0.2376  0.0148
  487PEP     CB15762   4.344  20.108   4.314 -0.0997  0.0624  0.2122
  487PEP     CB15763   4.817  20.095   4.468  0.0865  0.0549  0.3221
  487PEP     CB15764   5.115  20.436   4.518 -0.0949 -0.1595  0.1530
  487PEP     CB15765   5.493  20.585   4.342 -0.1973 -0.0602 -0.1450
  487PEP     CB15766   5.893  20.642   4.200  0.1540  0.1551 -0.1758
  487PEP     CB15767   6.356  20.776   4.215 -0.0145  0.1723 -0.1295
  487PEP     CB15768   6.788  21.039   4.219  0.0618  0.5143 -0.0208
  487PEP     CB15769   7.101  21.326   4.241  0.2993  0.2333 -0.0807
  487PEP     CB15770   7.461  21.556   4.168 -0.0344  0.4728 -0.1272
  487PEP     CB15771   7.540  22.004   4.044 -0.2574  0.2614  0.2127
  487PEP     CB15772   7.244  22.324   4.052 -0.2726  0.0925  0.2434
  487PEP     CB15773   7.157  22.672   3.725  0.3090  0.3325  0.0382
  487PEP     CB15774   7.117  22.611   3.323  0.1199 -0.1496  0.1684
  487PEP     CB15775   7.161  22.538   2.915 -0.1399 -0.1766  0.0411
  487PEP     CB15776   6.953  22.367   2.472 -0.2067  0.2197 -0.2085
  487PEP     CB15777   6.905  22.434   2.030  0.0652  0.4906 -0.3165
  487PEP     CB15778   6.920  22.320   1.574  0.1260 -0.2348 -0.0483
  487PEP     CB15779   6.976  21.934   1.495 -0.0799  0.0455  0.0439
  487PEP     CB15780   7.389  21.707   1.484  0.1210  0.1108  0.1653
  487PEP     CB15781   7.725  21.534   1.744  0.0872 -0.0375 -0.2544
  487PEP     CB15782   7.989  21.268   2.072  0.2629 -0.2137 -0.2485
  487PEP     CB15783   8.301  21.067   2.330  0.1518 -0.1279 -0.0712
  487PEP     CB15784   8.366  21.007   2.722 -0.0854 -0.1189  0.1288
  487PEP     CB15785   8.133  21.073   3.102  0.0143 -0.2356 -0.2080
  487PEP     CB15786   7.925  20.796   3.342 -0.2437 -0.4303 -0.5424
  487PEP     CB15787   7.769  20.375   3.552 -0.1823 -0.1946  0.2718
  487PEP     CB15788   7.665  20.044   3.866  0.3133 -0.1631 -0.1101
  487PEP     CB15789   7.504  19.677   4.167  0.0138 -0.1419  0.1133
  487PEP     CB15790   7.480  19.267   4.293  0.1998 -0.2668  0.4801
  487PEP     CB15791   7.526  18.827   4.410  0.1257 -0.1507  0.0276
  487PEP     CB15792   7.832  18.510   4.290 -0.4768  0.0038  0.3977
  487PEP     CB15793   8.141  18.423   3.976  0.0145  0.2129 -0.0881
  487PEP     CB15794   8.516  18.645   3.849  0.2488  0.1180  0.1110
  487PEP     CB15795   8.872  18.893   4.014  0.0302 -0.1993 -0.0270
  487PEP     CB15796   9.213  18.679   4.220  0.1266 -0.1500  0.5063
  487PEP     CB15797   9.146  18.422   4.594 -0.0096  0.2903 -0.0854
  487PEP     CB15798   8.790  18.436   4.803 -0.4095 -0.2374 -0.1797
  487PEP     CB15799   8.444  18.702   4.891  0.3349 -0.1532  0.2908
  487PEP     CB15800   8.149  18.909   5.163 -0.0912 -0.0730  0.2894
  488PEP     CB15801   8.040  10.958   3.937 -0.0865 -0.2468 -0.2051
  488PEP     CB15802   7.679  10.893   3.686  0.0193 -0.1683  0.1174
  488PEP     CB15803   7.249  10.914   3.623 -0.1049 -0.3654 -0.0881
  488PEP     CB15804   6.908  11.164   3.692  0.0592  0.4351 -0.1008
  488PEP     CB15805   6.673  11.484   3.478  0.0657  0.0695  0.0036
  488PEP     CB15806   6.554  11.909   3.483 -0.4188  0.1189 -0.3268
  488PEP     CB15807   6.515  12.349   3.302 -0.2943  0.0603 -0.0853
  488PEP     CB15808   6.755  12.712   3.173  0.1117 -0.0021  0.2395
  488PEP     CB15809   6.532  13.151   3.038 -0.2772 -0.2766  0.1223
  488PEP     CB15810   6.286  13.532   3.127  0.0456 -0.2049 -0.3891
  488PEP     CB15811   6.089  13.775   3.169 -0.1768  0.0312 -0.0415
  488PEP     CB15812   5.985  14.099   2.834  0.0696  0.1778  0.0665
  488PEP     CB15813   5.717  14.533   2.806  0.0788 -0.2920  0.0479
  488PEP     CB15814   5.498  14.859   2.725  0.5034  0.1672 -0.0737
  488PEP     CB15815   5.120  15.066   2.645 -0.1542  0.1862  0.2438
  488PEP     CB15816   4.642  15.003   2.583 -0.2084 -0.0178 -0.3459
  488PEP     CB15817   4.268  14.763   2.452  0.0625 -0.2344  0.1961
  488PEP     CB15818   4.091  14.310   2.553  0.2047 -0.0646 -0.1471
  488PEP     CB15819   3.998  14.093   2.969 -0.1267 -0.1747  0.2240
  488PEP     CB15820   3.864  13.800   3.187  0.2220  0.0283  0.0811
  488PEP     CB15821   3.569  13.535   3.401 -0.0369  0.1838  0.1593
  488PEP     CB15822   3.402  13.161   3.574 -0.1306  0.0544  0.2081
  488PEP     CB15823   3.271  12.967   4.036  0.5971  0.4540  0.2278
  488PEP     CB15824   2.968  13.086   4.337  0.1115 -0.0960 -0.0392
  488PEP     CB15825   2.791  13.289   4.677  0.0514 -0.1597  0.0300
  488PEP     CB15826   2.949  13.701   4.949 -0.0458  0.1338 -0.0726
  488PEP     CB15827   2.772  13.835   5.229  0.4514  0.0106 -0.4238
  488PEP     CB15828   2.298  13.880   5.267 -0.1195 -0.2923  0.2938
  488PEP     CB15829   1.987  13.878   4.880 -0.0050  0.1260 -0.2530
  488PEP     CB15830   2.129  14.136   4.565 -0.2221  0.0848 -0.0788
  488PEP     CB15831   2.512  14.354   4.622 -0.1313 -0.1343 -0.1669
  488PEP     CB15832   2.662  14.508   5.045 -0.1244  0.0492  0.0795
  488PEP     CB15833   2.389  14.555   5.341  0.0497 -0.4574 -0.0880
  488PEP     CB15834   1.939  14.723   5.306 -0.0471 -0.2300 -0.0487
  488PEP     CB15835   1.503  14.874   5.309 -0.1797  0.1528 -0.2013
  488PEP     CB15836   1.101  14.698   5.195 -0.5318  0.3361  0.0909
  488PEP     CB15837   0.912  14.418   4.932  0.1151 -0.0922  0.4581
  488PEP     CB15838   1.146  14.089   4.685 -0.1859 -0.1098  0.2111
  488PEP     CB15839   1.182  13.920   4.272  0.2255 -0.3936  0.0708
  488PEP     CB15840   1.289  14.201   3.868  0.2327 -0.0870  0.0634
  489PEP     CB15841  10.732   9.345   4.789  0.2694  0.2619 -0.1251
  489PEP     CB15842  10.517   9.036   5.115 -0.2730 -0.0528 -0.1777
  489PEP     CB15843  10.300   9.013   5.569  0.2942  0.1452 -0.1337
  489PEP     CB15844  10.315   8.811   5.924  0.1724  0.2806  0.2972
  489PEP     CB15845  10.456   8.490   6.196 -0.2704 -0.1400  0.1192
  489PEP     CB15846  10.471   8.148   6.452 -0.0156  0.1486  0.3260
  489PEP     CB15847  10.657   7.943   6.822 -0.0278  0.2220 -0.3110
  489PEP     CB15848  10.980   7.740   7.091  0.0266  0.1626 -0.0345
  489PEP     CB15849  11.180   7.472   7.277 -0.2288 -0.4569 -0.0660
  489PEP     CB15850  11.485   7.255   7.587 -0.1115 -0.3802 -0.1260
  489PEP     CB15851  11.675   6.900   7.792  0.1570  0.2537 -0.0450
  489PEP     CB15852  12.091   6.824   7.972 -0.1558 -0.2644 -0.0821
  489PEP     CB15853  12.506   6.866   7.792  0.1478  0.2141  0.0533
  489PEP     CB15854  12.624   6.823   7.385  0.0837 -0.4613 -0.2660
  489PEP     CB15855  12.278   6.858   7.059 -0.2645 -0.0980 -0.3456
  489PEP     CB15856  11.982   6.896   6.778 -0.1730  0.1220 -0.2452
  489PEP     CB15857  11.658   7.161   6.509  0.7747 -0.1832 -0.5182
  489PEP     CB15858  11.362   7.412   6.243 -0.2521 -0.0607 -0.1356
  489PEP     CB15859  10.924   7.404   6.177 -0.0835 -0.3213 -0.0869
  489PEP     CB15860  10.475   7.173   6.339  0.0193 -0.0038 -0.0996
  489PEP     CB15861  10.118   7.378   6.601  0.0333 -0.3381  0.0470
  489PEP     CB15862   9.934   7.733   6.476  0.2785  0.2312 -0.2306
  489PEP     CB15863   9.981   8.210   6.463  0.1494  0.0771  0.3720
  489PEP     CB15864   9.818   8.554   6.105  0.4092  0.3961  0.5291
  489PEP     CB15865   9.912   8.578   5.696 -0.0421 -0.0155 -0.2894
  489PEP     CB15866  10.056   8.208   5.555 -0.0221  0.4098  0.2142
  489PEP     CB15867   9.915   7.682   5.646 -0.3452  0.0645 -0.0762
  489PEP     CB15868   9.565   7.523   5.881 -0.1782 -0.1397  0.3431
  489PEP     CB15869   9.445   7.620   6.205 -0.2807  0.0270 -0.0965
  489PEP     CB15870   9.314   7.840   6.589  0.1722 -0.0796  0.3401
  489PEP     CB15871   9.192   8.045   7.073 -0.3335 -0.1185 -0.4007
  489PEP     CB15872   9.364   8.356   7.243  0.1729 -0.0619 -0.2864
  489PEP     CB15873   9.672   8.403   7.547 -0.2048  0.0978  0.0484
  489PEP     CB15874   9.760   8.160   7.880 -0.1328 -0.1355 -0.5105
  489PEP     CB15875   9.941   7.827   7.970 -0.3049  0.1899  0.2241
  489PEP     CB15876   9.868   7.346   8.023 -0.3766  0.2351  0.1481
  489PEP     CB15877  10.053   6.893   8.143 -0.1457 -0.2002 -0.0305
  489PEP     CB15878  10.499   6.843   8.227  0.1041  0.0159  0.0580
  489PEP     CB15879  10.748   6.982   7.855  0.3761 -0.3931 -0.3173
  489PEP     CB15880  10.634   6.842   7.409  0.2665  0.3869 -0.2542
  490PEP     CB15881   8.700  13.185   6.081 -0.1811  0.1858  0.2293
  490PEP     CB15882   8.363  12.840   6.272 -0.0593 -0.0283 -0.0019
  490PEP     CB15883   8.457  12.428   6.444  0.0212  0.2130  0.2073
  490PEP     CB15884   8.729  12.313   6.820  0.4198  0.0495  0.2733
  490PEP     CB15885   9.204  12.468   6.902 -0.1303 -0.1214 -0.1057
  490PEP     CB15886   9.384  12.766   6.647 -0.1839  0.2796  0.1783
  490PEP     CB15887   9.201  12.993   6.262  0.2171 -0.0389  0.3276
  490PEP     CB15888   9.143  13.099   5.842  0.0489  0.2076 -0.3294
  490PEP     CB15889   8.843  13.055   5.489 -0.1454 -0.0814 -0.0792
  490PEP     CB15890   8.582  12.761   5.267 -0.2178  0.2333 -0.0378
  490PEP     CB15891   8.564  12.407   5.018  0.1476 -0.1140 -0.0586
  490PEP     CB15892   8.287  12.180   4.813  0.0125 -0.1955 -0.1559
  490PEP     CB15893   7.831  11.966   4.564 -0.1655  0.2014  0.2276
  490PEP     CB15894   7.606  12.011   4.112  0.1900 -0.1047 -0.2415
  490PEP     CB15895   7.409  12.346   3.894 -0.4380  0.1172  0.2830
  490PEP     CB15896   7.014  12.568   3.776 -0.3336 -0.0847 -0.1088
  490PEP     CB15897   6.809  12.958   3.609 -0.0385 -0.3583  0.4030
  490PEP     CB15898   6.611  13.424   3.774 -0.3365 -0.1047 -0.1835
  490PEP     CB15899   6.600  13.608   4.220  0.2046 -0.5136 -0.0873
  490PEP     CB15900   6.541  13.483   4.677 -0.2567  0.1035 -0.5321
  490PEP     CB15901   6.512  13.247   5.003 -0.3895 -0.0060 -0.3021
  490PEP     CB15902   6.487  13.346   5.407 -0.2736 -0.0496 -0.0838
  490PEP     CB15903   6.613  13.686   5.641  0.0137  0.2323  0.2859
  490PEP     CB15904   6.620  14.150   5.612  0.0791 -0.1678 -0.0884
  490PEP     CB15905   6.850  14.483   5.740  0.2751  0.1234  0.0929
  490PEP     CB15906   6.957  14.861   5.903  0.1563  0.0988 -0.0597
  490PEP     CB15907   6.762  15.083   6.234 -0.0388  0.1976 -0.0761
  490PEP     CB15908   6.545  15.548   6.333  0.0051 -0.0135  0.0751
  490PEP     CB15909   6.429  15.857   6.571  0.0552 -0.0498 -0.0543
  490PEP     CB15910   6.012  16.100   6.678  0.0774  0.1229  0.3008
  490PEP     CB15911   5.669  16.122   7.034  0.0464  0.1682  0.0627
  490PEP     CB15912   5.581  15.821   7.373  0.1848  0.0542 -0.5614
  490PEP     CB15913   5.581  15.566   7.734 -0.1446 -0.0131  0.1895
  490PEP     CB15914   5.365  15.243   7.874  0.2040 -0.1686  0.2317
  490PEP     CB15915   5.454  14.876   7.984 -0.2708 -0.3211 -0.3711
  490PEP     CB15916   5.718  14.493   7.966  0.0748  0.1472  0.4622
  490PEP     CB15917   6.061  14.361   7.821 -0.0046 -0.0957  0.1693
  490PEP     CB15918   6.467  14.192   7.715  0.1526  0.0957  0.3007
  490PEP     CB15919   6.626  13.836   7.411 -0.2842  0.1330 -0.2231
  490PEP     CB15920   6.959  13.774   7.047  0.2407  0.1404 -0.1652
  491PEP     CB15921   3.299   4.160  10.538 -0.0451 -0.0294 -0.1544
  491PEP     CB15922   3.763   4.184  10.684 -0.0155 -0.1008 -0.2447
  491PEP     CB15923   4.292   4.083  10.735  0.1147 -0.0163 -0.0082
  491PEP     CB15924   4.741   3.933  10.476  0.1733  0.0318  0.1688
  491PEP     CB15925   5.048   3.801  10.097  0.0683  0.0224 -0.1975
  491PEP     CB15926   5.433   3.614  10.169  0.2336  0.3272 -0.0999
  491PEP     CB15927   5.710   3.298  10.382 -0.0061  0.0808 -0.2046
  491PEP     CB15928   5.846   2.905  10.572 -0.3382  0.1409 -0.0092
  491PEP     CB15929   5.644   2.515  10.598  0.2388 -0.3205 -0.3425
  491PEP     CB15930   5.632   2.058  10.556  0.2243  0.4791 -0.0331
  491PEP     CB15931   5.486   1.641  10.515  0.1796  0.2405  0.1074
  491PEP     CB15932   5.459   1.190  10.514  0.0077 -0.2515 -0.0283
  491PEP     CB15933   5.354   0.988  10.230  0.3515  0.1256 -0.2793
  491PEP     CB15934   5.489   1.028   9.838 -0.4731  0.0715  0.1634
  491PEP     CB15935   5.791   1.238   9.664  0.2429  0.0675 -0.3130
  491PEP     CB15936   6.185   1.514   9.856  0.5214  0.2323 -0.4205
  491PEP     CB15937   6.503   1.628   9.929  0.0207  0.3400 -0.2621
  491PEP     CB15938   6.840   1.617  10.224 -0.3612 -0.2898  0.0926
  491PEP     CB15939   7.110   1.499  10.435  0.5454  0.2796  0.1180
  491PEP     CB15940   7.397   1.152  10.462 -0.1740 -0.2773 -0.5390
  491PEP     CB15941   7.333   0.795  10.433  0.3341 -0.2976 -0.2294
  491PEP     CB15942   7.400   0.433  10.050  0.1821  0.2457 -0.0810
  491PEP     CB15943   7.373  -0.020   9.846 -0.2703 -0.0371  0.0365
  491PEP     CB15944   7.519  -0.278   9.463  0.2808  0.1619 -0.2230
  491PEP     CB15945   7.683  -0.731   9.489 -0.4547 -0.5253  0.3024
  491PEP     CB15946   7.795  -1.126   9.593 -0.4194 -0.0316  0.2885
  491PEP     CB15947   7.641  -1.424   9.915  0.0710 -0.2496 -0.1466
  491PEP     CB15948   7.126  -1.483   9.940  0.2684 -0.3311  0.1302
  491PEP     CB15949   6.871  -1.491   9.655 -0.0572 -0.0296 -0.3644
  491PEP     CB15950   7.071  -1.547   9.258 -0.1397  0.4130  0.5232
  491PEP     CB15951   7.468  -1.677   9.308  0.0951 -0.1070 -0.1530
  491PEP     CB15952   7.975  -1.520   9.294 -0.1833 -0.0274  0.3140
  491PEP     CB15953   8.280  -1.166   9.329  0.3094 -0.2712 -0.4167
  491PEP     CB15954   8.225  -0.777   9.493  0.1131  0.0434 -0.1196
  491PEP     CB15955   8.084  -0.361   9.693  0.0110 -0.1035  0.0418
  491PEP     CB15956   7.827  -0.128   9.970 -0.4737  0.3662 -0.3838
  491PEP     CB15957   7.777  -0.100  10.439  0.0620  0.1182  0.0663
  491PEP     CB15958   7.589  -0.158  10.773  0.0041  0.3415  0.1061
  491PEP     CB15959   7.207  -0.130  10.893 -0.4237 -0.0737  0.0437
  491PEP     CB15960   6.814   0.023  10.782  0.0763 -0.1356 -0.3042
  492PEP     CB15961   1.220  18.439  19.951  0.1566 -0.3347  0.0741
  492PEP     CB15962   1.383  18.729  20.129 -0.2973  0.0741  0.0016
  492PEP     CB15963   1.703  18.945  20.083 -0.1040 -0.1911 -0.0368
  492PEP     CB15964   1.995  19.286  19.810 -0.0862 -0.2817 -0.1733
  492PEP     CB15965   2.263  19.264  19.575  0.0976  0.3754  0.5469
  492PEP     CB15966   2.473  18.953  19.292  0.0902  0.0689  0.6011
  492PEP     CB15967   2.658  18.625  19.138  0.0045  0.2520 -0.0311
  492PEP     CB15968   2.930  18.282  19.359 -0.0420 -0.1937 -0.1975
  492PEP     CB15969   2.779  17.870  19.534 -0.1039  0.0966 -0.1265
  492PEP     CB15970   2.463  17.746  19.458  0.3255 -0.2983  0.1617
  492PEP     CB15971   2.006  17.943  19.302  0.1777  0.0141  0.1596
  492PEP     CB15972   1.658  17.895  19.066 -0.2250 -0.4370  0.0458
  492PEP     CB15973   1.339  18.040  18.800  0.1331  0.2220  0.0721
  492PEP     CB15974   1.254  18.178  18.335 -0.0345  0.2178 -0.0107
  492PEP     CB15975   1.389  18.393  17.940 -0.1123 -0.2369 -0.2504
  492PEP     CB15976   1.437  18.346  17.428 -0.2061 -0.3702  0.0886
  492PEP     CB15977   1.512  18.216  17.099 -0.1308  0.0821  0.2912
  492PEP     CB15978   1.486  18.237  16.550 -0.3570 -0.4399 -0.1787
  492PEP     CB15979   1.602  18.213  16.085  0.3021 -0.1742 -0.0224
  492PEP     CB15980   1.438  18.034  15.727  0.2706 -0.0129  0.2922
  492PEP     CB15981   1.130  18.139  15.287 -0.0355 -0.1184 -0.0103
  492PEP     CB15982   1.117  18.408  14.939  0.0708 -0.2261  0.1018
  492PEP     CB15983   1.333  18.761  14.948  0.0172 -0.1187  0.3472
  492PEP     CB15984   1.661  18.904  15.298 -0.2620 -0.2995 -0.1875
  492PEP     CB15985   1.687  18.983  15.738  0.1304  0.2586  0.1924
  492PEP     CB15986   1.852  18.808  16.049  0.0477 -0.3294 -0.2647
  492PEP     CB15987   1.836  18.599  16.350  0.1134 -0.3649  0.3980
  492PEP     CB15988   2.007  18.263  16.637 -0.2342  0.1395 -0.0034
  492PEP     CB15989   2.421  18.049  16.759  0.1481 -0.2260  0.2888
  492PEP     CB15990   2.783  18.073  16.517  0.2127 -0.4871  0.0180
  492PEP     CB15991   2.906  17.968  16.089  0.0493 -0.3705  0.1200
  492PEP     CB15992   3.005  18.173  15.780 -0.5049  0.1372  0.0829
  492PEP     CB15993   3.085  18.201  15.360 -0.3465 -0.2914 -0.1265
  492PEP     CB15994   3.481  18.313  15.046  0.0241  0.3816 -0.1272
  492PEP     CB15995   3.698  18.599  14.661 -0.0266  0.0629 -0.2069
  492PEP     CB15996   4.070  18.860  14.461  0.0260 -0.1354  0.0148
  492PEP     CB15997   4.353  19.034  14.139 -0.0781 -0.1534  0.1642
  492PEP     CB15998   4.455  19.524  14.139  0.2998  0.2722  0.1658
  492PEP     CB15999   4.153  19.783  14.258 -0.3043  0.1317  0.1845
  492PEP     CB16000   3.859  19.902  14.447 -0.1214 -0.1589  0.0547
  493PEP     CB16001   5.233  20.262   2.571 -0.0682 -0.0852 -0.0795
  493PEP     CB16002   4.787  20.261   2.723  0.0956  0.5385 -0.1782
  493PEP     CB16003   4.442  20.023   2.894  0.3708  0.1958 -0.3014
  493PEP     CB16004   4.366  19.708   3.249 -0.1202 -0.1823  0.0735
  493PEP     CB16005   4.767  19.524   3.495 -0.2939 -0.1288  0.0778
  493PEP     CB16006   5.175  19.720   3.641 -0.0850 -0.1680  0.0826
  493PEP     CB16007   5.212  20.056   3.831  0.1716  0.3570 -0.1950
  493PEP     CB16008   4.836  20.346   3.978 -0.2088 -0.2657  0.3953
  493PEP     CB16009   4.621  20.580   4.287  0.2770 -0.3114 -0.1957
  493PEP     CB16010   4.378  20.642   4.569 -0.2941  0.0160  0.0979
  493PEP     CB16011   3.863  20.590   4.651 -0.0790 -0.3684  0.0751
  493PEP     CB16012   3.566  20.371   4.474 -0.1311 -0.2766  0.0109
  493PEP     CB16013   3.670  19.919   4.270  0.2656  0.2045  0.0726
  493PEP     CB16014   3.853  19.655   4.569 -0.1829  0.0519  0.1545
  493PEP     CB16015   4.025  19.391   4.828 -0.1013  0.1487  0.2032
  493PEP     CB16016   4.397  19.238   4.964  0.0937  0.0812 -0.0272
  493PEP     CB16017   4.822  19.479   5.002  0.3374 -0.0941  0.1064
  493PEP     CB16018   5.062  19.805   4.843 -0.0305  0.2100  0.0043
  493PEP     CB16019   5.289  19.855   4.446  0.1259  0.1208  0.0671
  493PEP     CB16020   5.538  19.999   4.164  0.0059 -0.1687 -0.1997
  493PEP     CB16021   5.694  20.268   3.855  0.2772 -0.1839 -0.0159
  493PEP     CB16022   5.583  20.524   3.494  0.2164 -0.3246 -0.3699
  493PEP     CB16023   5.662  20.899   3.346 -0.0779  0.0041 -0.1310
  493PEP     CB16024   5.801  21.186   2.992 -0.3527 -0.3390  0.2847
  493PEP     CB16025   5.868  21.567   2.780 -0.3324  0.2729 -0.0121
  493PEP     CB16026   5.814  21.755   2.456  0.0953  0.2907  0.0953
  493PEP     CB16027   5.788  21.849   2.067 -0.1597 -0.0405 -0.2102
  493PEP     CB16028   6.091  21.952   1.830 -0.1427  0.3056 -0.0815
  493PEP     CB16029   6.462  22.142   1.644  0.0299 -0.2872  0.0541
  493PEP     CB16030   6.510  22.558   1.704  0.0934  0.0330  0.3581
  493PEP     CB16031   6.181  22.825   1.557  0.2719 -0.0177  0.1214
  493PEP     CB16032   5.726  22.687   1.530 -0.0607  0.0932  0.1550
  493PEP     CB16033   5.493  22.434   1.279  0.3573  0.1595  0.0745
  493PEP     CB16034   5.310  22.120   1.343  0.3633 -0.2761  0.0158
  493PEP     CB16035   5.182  21.822   1.580  0.1823 -0.1683  0.0552
  493PEP     CB16036   5.059  21.471   1.848 -0.2443  0.5340  0.3729
  493PEP     CB16037   4.721  21.059   2.021 -0.1811 -0.1394 -0.0774
  493PEP     CB16038   4.644  20.591   1.749  0.3085 -0.3517  0.0921
  493PEP     CB16039   4.856  20.172   1.680 -0.1399  0.7587 -0.1792
  493PEP     CB16040   5.100  19.792   1.871  0.1110 -0.3740 -0.1608
  494PEP     CB16041  20.812  11.342   5.717  0.2708 -0.1209 -0.1535
  494PEP     CB16042  20.387  11.213   5.981  0.2268  0.1358  0.0970
  494PEP     CB16043  20.295  11.409   6.461  0.1980 -0.0939  0.0671
  494PEP     CB16044  20.363  11.513   6.829  0.1315 -0.2159  0.1576
  494PEP     CB16045  20.436  11.476   7.279 -0.1207  0.1314 -0.2095
  494PEP     CB16046  20.660  11.352   7.583 -0.0049 -0.1203 -0.7633
  494PEP     CB16047  20.911  11.202   7.927  0.1710 -0.0762 -0.0826
  494PEP     CB16048  21.092  10.938   8.129 -0.5449  0.1318 -0.1734
  494PEP     CB16049  21.065  10.551   8.253  0.4315 -0.2703  0.2397
  494PEP     CB16050  21.035  10.298   8.538 -0.0198  0.2001 -0.1623
  494PEP     CB16051  21.042  10.181   8.971  0.1042 -0.2844  0.0201
  494PEP     CB16052  20.812  10.218   9.321 -0.0107 -0.1008 -0.4604
  494PEP     CB16053  20.631  10.421   9.602  0.2711  0.5290  0.1949
  494PEP     CB16054  20.815  10.878   9.736 -0.2023 -0.2992  0.0447
  494PEP     CB16055  21.027  11.187   9.370  0.3388 -0.0197  0.0580
  494PEP     CB16056  20.957  11.136   9.007 -0.1500  0.4121 -0.2166
  494PEP     CB16057  20.484  10.925   8.889  0.2659  0.3963 -0.0983
  494PEP     CB16058  20.323  10.693   9.205  0.2528  0.2582 -0.2335
  494PEP     CB16059  20.209  10.759   9.677  0.2001  0.1371 -0.0135
  494PEP     CB16060  20.326  10.609  10.021 -0.2837 -0.1366 -0.0785
  494PEP     CB16061  20.356  10.310  10.344 -0.4236 -0.0956 -0.3341
  494PEP     CB16062  20.248   9.839  10.353 -0.6453 -0.3143 -0.1277
  494PEP     CB16063  20.596   9.545  10.395 -0.0044  0.2605 -0.0245
  494PEP     CB16064  20.963   9.447  10.170  0.0497 -0.1881 -0.0350
  494PEP     CB16065  21.241   9.659   9.871  0.4009  0.1337  0.0442
  494PEP     CB16066  21.131  10.111   9.758 -0.0735  0.0979  0.2608
  494PEP     CB16067  21.062  10.448   9.958 -0.1233  0.2648 -0.3488
  494PEP     CB16068  20.871  10.488  10.334  0.0430  0.1344  0.1284
  494PEP     CB16069  21.071  10.442  10.801  0.1646  0.1690 -0.2991
  494PEP     CB16070  21.186  10.071  10.933  0.3592 -0.1635 -0.0107
  494PEP     CB16071  21.024   9.680  11.025  0.0975  0.1100  0.1017
  494PEP     CB16072  21.131   9.198  11.045 -0.4762  0.0239 -0.1231
  494PEP     CB16073  21.131   8.778  11.065 -0.2265 -0.1574  0.3560
  494PEP     CB16074  20.968   8.405  11.036 -0.0615  0.0424 -0.2176
  494PEP     CB16075  21.005   7.957  11.073  0.1585  0.0417  0.2484
  494PEP     CB16076  21.417   7.649  11.256  0.1132 -0.2025  0.3519
  494PEP     CB16077  21.639   7.669  11.552 -0.0534  0.0685  0.3449
  494PEP     CB16078  21.466   7.933  11.860  0.0504 -0.1171 -0.0220
  494PEP     CB16079  21.191   8.062  12.185 -0.0524 -0.0480 -0.1442
  494PEP     CB16080  20.940   8.100  12.488 -0.0909  0.1191  0.0244
  495PEP     CB16081  20.327  11.145  15.181  0.0224 -0.2027  0.1013
  495PEP     CB16082  20.535  10.932  14.828 -0.0025  0.0451 -0.2255
  495PEP     CB16083  20.833  10.758  14.571  0.1920 -0.0962 -0.3147
  495PEP     CB16084  21.209  10.596  14.530  0.0774 -0.0229 -0.0851
  495PEP     CB16085  21.374  10.232  14.440 -0.1575  0.3407  0.2685
  495PEP     CB16086  21.518   9.817  14.511 -0.1047 -0.1818 -0.0453
  495PEP     CB16087  21.578   9.481  14.275 -0.3818  0.0862  0.0504
  495PEP     CB16088  21.310   9.390  13.879 -0.2432 -0.0527 -0.1634
  495PEP     CB16089  21.134   9.613  13.470  0.1808  0.0803  0.0725
  495PEP     CB16090  20.635   9.623  13.394  0.1175 -0.2425  0.1494
  495PEP     CB16091  20.274   9.538  13.702 -0.0685 -0.0354 -0.2638
  495PEP     CB16092  20.090   9.746  14.040 -0.2998 -0.1150  0.6472
  495PEP     CB16093  20.051  10.101  14.328 -0.0175  0.3009 -0.2928
  495PEP     CB16094  19.776  10.361  14.356  0.0962 -0.3095 -0.0369
  495PEP     CB16095  19.361  10.439  14.397  0.2455  0.3766 -0.1932
  495PEP     CB16096  19.077  10.762  14.525 -0.1022 -0.0460  0.1570
  495PEP     CB16097  19.059  11.163  14.344  0.1949 -0.4054 -0.1587
  495PEP     CB16098  19.354  11.532  14.143  0.0819 -0.2339 -0.0599
  495PEP     CB16099  19.359  11.668  13.810  0.1710 -0.1134  0.2506
  495PEP     CB16100  19.234  11.577  13.298  0.5287 -0.1119 -0.2271
  495PEP     CB16101  18.881  11.600  13.022  0.2814  0.2662  0.2870
  495PEP     CB16102  18.500  11.535  12.808 -0.0346 -0.2013  0.1555
  495PEP     CB16103  18.112  11.668  12.687  0.4038  0.0546 -0.0258
  495PEP     CB16104  17.707  11.673  12.719  0.0021  0.0949  0.0871
  495PEP     CB16105  17.437  11.479  13.123 -0.2739 -0.1610 -0.1905
  495PEP     CB16106  17.627  11.290  13.506 -0.1028 -0.4736  0.2349
  495PEP     CB16107  18.056  11.179  13.644 -0.1187  0.1311  0.1204
  495PEP     CB16108  18.269  10.812  13.657 -0.0898 -0.0178  0.1655
  495PEP     CB16109  18.377  10.412  13.810 -0.0897  0.0684 -0.0108
  495PEP     CB16110  18.436  10.084  14.110  0.0486  0.0521 -0.0370
  495PEP     CB16111  18.354  10.073  14.552  0.0163 -0.0862 -0.1060
  495PEP     CB16112  18.222  10.477  14.736  0.2034  0.0302  0.0404
  495PEP     CB16113  17.828  10.714  14.692  0.3559  0.0947  0.1060
  495PEP     CB16114  17.455  10.738  14.331  0.2661  0.1245  0.0972
  495PEP     CB16115  17.043  10.887  14.108 -0.2167 -0.3961 -0.1598
  495PEP     CB16116  16.619  11.065  14.109 -0.0531  0.0504 -0.1463
  495PEP     CB16117  16.301  10.865  13.976  0.3588  0.1433  0.1042
  495PEP     CB16118  15.995  10.530  13.820  0.0160  0.1641 -0.1644
  495PEP     CB16119  15.893  10.129  13.787 -0.5361 -0.1473 -0.0234
  495PEP     CB16120  15.542   9.888  13.836  0.1444  0.2713 -0.1267
  496PEP     CB16121   2.993   6.034   2.054  0.5759  0.4213 -0.3298
  496PEP     CB16122   2.959   5.645   1.902 -0.1139  0.4238  0.0016
  496PEP     CB16123   2.818   5.352   1.736 -0.0834 -0.1244 -0.2142
  496PEP     CB16124   3.047   4.983   1.643  0.3439  0.0926  0.0233
  496PEP     CB16125   3.344   4.789   1.953 -0.2402  0.2733  0.0622
  496PEP     CB16126   3.376   4.857   2.424  0.3025 -0.0349  0.1589
  496PEP     CB16127   3.004   4.932   2.696 -0.1172  0.1062 -0.0245
  496PEP     CB16128   3.058   5.214   2.975 -0.1126  0.1895  0.0483
  496PEP     CB16129   3.454   5.244   3.306  0.0674  0.0812  0.1948
  496PEP     CB16130   3.697   4.933   3.575  0.5807 -0.0534 -0.2484
  496PEP     CB16131   4.034   4.832   3.862 -0.0757 -0.1858 -0.2133
  496PEP     CB16132   4.363   4.872   4.056  0.1433 -0.0390 -0.4582
  496PEP     CB16133   4.693   5.086   4.241 -0.2003 -0.2941 -0.1053
  496PEP     CB16134   4.853   5.514   4.262  0.1177 -0.0479 -0.2929
  496PEP     CB16135   5.207   5.682   4.098  0.2967 -0.0507 -0.2738
  496PEP     CB16136   5.410   5.986   4.254  0.1448  0.1593 -0.1172
  496PEP     CB16137   5.158   6.424   4.394  0.0642  0.1986  0.2072
  496PEP     CB16138   4.757   6.373   4.503  0.1779 -0.4207 -0.0575
  496PEP     CB16139   4.519   6.056   4.379 -0.1577 -0.1250 -0.6022
  496PEP     CB16140   4.503   5.789   4.082 -0.1331  0.1979  0.0179
  496PEP     CB16141   4.685   5.904   3.734  0.0352 -0.2981  0.1288
  496PEP     CB16142   4.569   6.309   3.437  0.1819 -0.0372  0.0279
  496PEP     CB16143   4.281   6.605   3.234 -0.0733 -0.1303 -0.0168
  496PEP     CB16144   3.869   6.651   2.978  0.0058 -0.2064  0.0407
  496PEP     CB16145   3.599   6.698   2.624 -0.1722  0.0695 -0.2386
  496PEP     CB16146   3.328   6.962   2.451  0.1940 -0.0807 -0.2762
  496PEP     CB16147   3.227   7.410   2.343  0.1921 -0.0062  0.0383
  496PEP     CB16148   3.007   7.789   2.346 -0.0733  0.3525  0.2665
  496PEP     CB16149   2.651   7.923   2.256  0.1114  0.0341 -0.1235
  496PEP     CB16150   2.246   7.618   2.236 -0.2008 -0.1013  0.0701
  496PEP     CB16151   1.960   7.277   2.367 -0.3801  0.0048  0.1891
  496PEP     CB16152   1.935   6.947   2.692  0.0978  0.0796 -0.2677
  496PEP     CB16153   2.090   6.673   3.097  0.0519  0.5157 -0.2111
  496PEP     CB16154   2.272   6.171   3.184 -0.1879  0.1315  0.3427
  496PEP     CB16155   2.245   5.806   3.055 -0.1164  0.1615  0.4116
  496PEP     CB16156   2.004   5.375   2.983  0.2089  0.2973 -0.2622
  496PEP     CB16157   1.747   5.058   2.988 -0.0074 -0.0821  0.1849
  496PEP     CB16158   1.679   4.567   3.036 -0.1204  0.0488 -0.1739
  496PEP     CB16159   1.653   4.164   3.264 -0.3210 -0.5146 -0.1716
  496PEP     CB16160   1.709   3.891   3.619  0.1803  0.2328 -0.0545
  497PEP     CB16161   1.119  13.722  15.136  0.1952 -0.4084 -0.1852
  497PEP     CB16162   1.239  13.337  14.816 -0.2808 -0.0122  0.0215
  497PEP     CB16163   1.109  12.964  14.582  0.0084  0.1701 -0.1209
  497PEP     CB16164   1.168  12.642  14.488 -0.0504  0.0866  0.1956
  497PEP     CB16165   0.971  12.247  14.464  0.7052 -0.2804  0.1692
  497PEP     CB16166   0.585  12.118  14.607  0.2335  0.1009  0.0467
  497PEP     CB16167   0.434  12.198  15.026  0.4256  0.0045 -0.1459
  497PEP     CB16168   0.206  12.140  15.398 -0.2671 -0.5052 -0.3697
  497PEP     CB16169  -0.068  12.034  15.712 -0.0515  0.2131  0.1552
  497PEP     CB16170  -0.243  12.080  16.142 -0.1194 -0.2486 -0.0191
  497PEP     CB16171  -0.110  12.284  16.450  0.1387  0.2229  0.0030
  497PEP     CB16172   0.108  12.697  16.490  0.0873 -0.1731 -0.1034
  497PEP     CB16173   0.217  12.918  16.155  0.0331  0.1434 -0.1771
  497PEP     CB16174   0.224  13.201  15.788 -0.2675  0.2416 -0.1131
  497PEP     CB16175   0.191  13.557  15.575 -0.0760  0.2581 -0.0200
  497PEP     CB16176   0.068  13.933  15.326 -0.1422  0.2100  0.0896
  497PEP     CB16177  -0.171  14.196  15.293 -0.1215 -0.1907  0.2601
  497PEP     CB16178  -0.443  14.491  15.327  0.2017 -0.3181  0.0042
  497PEP     CB16179  -0.831  14.699  15.279 -0.1557 -0.1200  0.1613
  497PEP     CB16180  -1.100  14.530  14.918  0.0208 -0.0536  0.0613
  497PEP     CB16181  -1.246  14.077  14.853  0.4643  0.2611 -0.1518
  497PEP     CB16182  -0.998  13.701  14.734  0.1288  0.4383 -0.0670
  497PEP     CB16183  -0.542  13.667  14.840  0.2888 -0.0020  0.0910
  497PEP     CB16184  -0.208  13.946  14.869  0.3006 -0.1601  0.1962
  497PEP     CB16185  -0.254  14.408  14.834  0.3062 -0.0658  0.4012
  497PEP     CB16186  -0.535  14.781  14.782 -0.2643  0.2551 -0.2167
  497PEP     CB16187  -0.895  14.871  14.621 -0.0839  0.2989 -0.0523
  497PEP     CB16188  -1.317  14.984  14.535 -0.1342  0.0974 -0.0334
  497PEP     CB16189  -1.682  14.887  14.561 -0.0332 -0.0439  0.0398
  497PEP     CB16190  -2.100  14.792  14.628  0.0116  0.0542 -0.2031
  497PEP     CB16191  -2.316  14.501  14.896  0.0843  0.1828  0.2239
  497PEP     CB16192  -2.402  14.274  15.188 -0.1039 -0.3639 -0.0555
  497PEP     CB16193  -2.275  14.375  15.533  0.1169 -0.0973 -0.1036
  497PEP     CB16194  -2.254  14.814  15.661  0.2016 -0.1392 -0.2802
  497PEP     CB16195  -2.546  15.170  15.637  0.1909  0.0032  0.1240
  497PEP     CB16196  -2.887  15.095  15.876 -0.4464  0.3075  0.2179
  497PEP     CB16197  -2.974  14.733  16.128  0.2656  0.3407  0.2396
  497PEP     CB16198  -3.023  14.637  16.542 -0.0196 -0.1200  0.1862
  497PEP     CB16199  -3.165  14.652  16.950  0.0496  0.3195 -0.0439
  497PEP     CB16200  -2.941  14.681  17.293  0.2501  0.1622  0.2187
  498PEP     CB16201   7.814   4.053   2.135  0.1557 -0.0613 -0.1475
  498PEP     CB16202   8.115   3.819   1.945 -0.0440  0.3810  0.5213
  498PEP     CB16203   8.234   3.358   1.929  0.1902  0.3233  0.1065
  498PEP     CB16204   8.342   2.972   2.187  0.0436  0.1159 -0.0735
  498PEP     CB16205   8.509   2.573   2.232  0.1465 -0.1052  0.2033
  498PEP     CB16206   8.859   2.470   2.050 -0.1344 -0.1819 -0.0769
  498PEP     CB16207   9.105   2.637   1.837  0.0177  0.0654 -0.0320
  498PEP     CB16208   8.990   3.039   1.489 -0.0866 -0.2239  0.3327
  498PEP     CB16209   8.625   3.246   1.501 -0.2863 -0.1044  0.0574
  498PEP     CB16210   8.268   3.045   1.405  0.1707  0.0124 -0.0405
  498PEP     CB16211   8.257   2.658   1.229 -0.3169  0.0751 -0.1224
  498PEP     CB16212   8.547   2.307   1.179 -0.1578 -0.0040  0.0217
  498PEP     CB16213   8.879   2.025   1.066 -0.2933  0.5748  0.0619
  498PEP     CB16214   9.219   2.112   0.861  0.1364  0.0845  0.1802
  498PEP     CB16215   9.225   2.540   0.704 -0.2777  0.0742 -0.0978
  498PEP     CB16216   8.756   2.797   0.649  0.0240  0.2755  0.0119
  498PEP     CB16217   8.378   2.543   0.753 -0.2935  0.1017 -0.1500
  498PEP     CB16218   8.320   2.060   0.591 -0.0750  0.3681 -0.2737
  498PEP     CB16219   8.423   1.808   0.251 -0.2595  0.1639 -0.1234
  498PEP     CB16220   8.901   1.728   0.200  0.3848  0.5855 -0.1169
  498PEP     CB16221   9.230   1.503   0.328 -0.1129 -0.5620 -0.2385
  498PEP     CB16222   9.719   1.530   0.288  0.2229  0.2470  0.1729
  498PEP     CB16223  10.139   1.689   0.400  0.0314 -0.1521 -0.5041
  498PEP     CB16224  10.530   1.843   0.321  0.0548 -0.2430 -0.0188
  498PEP     CB16225  10.897   1.974   0.230  0.1666  0.0286  0.0725
  498PEP     CB16226  11.253   2.254   0.322  0.1475  0.3271  0.3235
  498PEP     CB16227  11.222   2.412   0.664  0.1564  0.4150 -0.0647
  498PEP     CB16228  10.894   2.499   1.050  0.0152  0.0797  0.2576
  498PEP     CB16229  10.467   2.346   1.105  0.0063  0.1180  0.3755
  498PEP     CB16230  10.220   1.963   0.918 -0.0277  0.2303  0.1990
  498PEP     CB16231  10.140   1.453   0.958 -0.1324  0.3792  0.1242
  498PEP     CB16232   9.903   1.140   1.106 -0.0355 -0.3526  0.4657
  498PEP     CB16233   9.627   0.959   1.374  0.2768  0.5163 -0.2545
  498PEP     CB16234   9.363   0.689   1.609  0.1085  0.1663  0.2291
  498PEP     CB16235   8.886   0.647   1.732  0.3852  0.2787  0.0189
  498PEP     CB16236   8.570   0.876   2.082 -0.0867  0.4059 -0.0407
  498PEP     CB16237   8.486   0.983   2.493  0.0469  0.2062  0.1720
  498PEP     CB16238   8.190   1.198   2.733 -0.0470 -0.3128  0.3326
  498PEP     CB16239   7.726   1.155   2.883 -0.0434 -0.1589 -0.1911
  498PEP     CB16240   7.355   1.223   2.962 -0.2028 -0.2604  0.1051
  499PEP     CB16241  16.309  12.137   0.088  0.3871 -0.5305  0.1320
  499PEP     CB16242  16.362  12.354  -0.174 -0.2589 -0.0923  0.2177
  499PEP     CB16243  16.197  12.715  -0.272  0.2108 -0.0365  0.1253
  499PEP     CB16244  15.988  13.163  -0.230  0.4930  0.3602 -0.0478
  499PEP     CB16245  15.645  13.380  -0.275  0.0477  0.0441  0.1708
  499PEP     CB16246  15.522  13.708  -0.555  0.2065 -0.2582  0.0007
  499PEP     CB16247  15.306  13.613  -0.965 -0.1978  0.0818 -0.2272
  499PEP     CB16248  15.040  13.300  -1.002 -0.3072 -0.0695 -0.2986
  499PEP     CB16249  14.918  12.900  -0.686  0.1607 -0.1949  0.1082
  499PEP     CB16250  14.936  12.723  -0.303 -0.4321 -0.0299 -0.0096
  499PEP     CB16251  14.878  12.466   0.110 -0.0260 -0.1459  0.4076
  499PEP     CB16252  15.136  12.221   0.385  0.2030 -0.1491  0.3591
  499PEP     CB16253  15.425  11.895   0.638  0.3818 -0.2177  0.1010
  499PEP     CB16254  15.736  12.026   0.904 -0.2478  0.3886  0.0448
  499PEP     CB16255  15.860  12.434   1.020  0.0378 -0.2215 -0.1655
  499PEP     CB16256  15.819  12.827   0.811  0.5992  0.3489  0.0557
  499PEP     CB16257  15.520  12.977   0.586  0.0949  0.1325 -0.2525
  499PEP     CB16258  15.143  12.833   0.568 -0.0163  0.1789  0.0093
  499PEP     CB16259  14.792  12.971   0.904 -0.1538 -0.0677 -0.0087
  499PEP     CB16260  14.588  12.948   1.221  0.0959 -0.1558  0.1014
  499PEP     CB16261  14.282  12.768   1.474 -0.0584 -0.0755  0.0831
  499PEP     CB16262  14.149  12.652   1.843  0.0375  0.0971  0.0594
  499PEP     CB16263  13.992  12.863   2.219 -0.1061  0.4457 -0.2608
  499PEP     CB16264  13.857  13.270   2.271  0.0597  0.3877  0.1676
  499PEP     CB16265  13.700  13.600   1.998  0.1206  0.1178  0.1644
  499PEP     CB16266  13.422  13.954   2.167  0.0908  0.1907 -0.0862
  499PEP     CB16267  13.307  13.983   2.583 -0.2409  0.1415 -0.1467
  499PEP     CB16268  13.244  13.611   2.889 -0.1902 -0.0293 -0.3914
  499PEP     CB16269  12.898  13.268   2.863 -0.2663 -0.1490 -0.2178
  499PEP     CB16270  12.602  13.151   3.034  0.0117 -0.4133  0.0393
  499PEP     CB16271  12.361  12.814   3.158  0.1034 -0.1832 -0.3770
  499PEP     CB16272  12.034  12.605   3.237 -0.1517 -0.1484  0.4706
  499PEP     CB16273  11.713  12.390   2.984 -0.0890  0.0436 -0.0790
  499PEP     CB16274  11.690  12.215   2.592 -0.0360 -0.2551  0.2148
  499PEP     CB16275  11.813  12.247   2.220  0.3390 -0.0163 -0.0663
  499PEP     CB16276  11.976  12.363   1.872 -0.4308  0.1005  0.0755
  499PEP     CB16277  11.934  12.403   1.407  0.0837  0.0702  0.1500
  499PEP     CB16278  11.841  12.429   0.948 -0.0836  0.3026 -0.2998
  499PEP     CB16279  11.619  12.305   0.514 -0.1504 -0.0619  0.1406
  499PEP     CB16280  11.637  12.234   0.119  0.2842 -0.1821  0.3199
  500PEP     CB16281  18.798   7.422  12.790 -0.3620  0.0387  0.3734
  500PEP     CB16282  18.643   7.563  13.253  0.1286  0.0144 -0.2486
  500PEP     CB16283  18.606   7.375  13.701  0.1316 -0.2214  0.2784
  500PEP     CB16284  18.561   7.338  14.163 -0.1538 -0.1380  0.2208
  500PEP     CB16285  18.383   7.553  14.591 -0.0634 -0.0385 -0.1982
  500PEP     CB16286  18.457   7.934  14.867 -0.3380  0.2948 -0.0076
  500PEP     CB16287  18.896   8.194  14.870  0.0350 -0.2090  0.0081
  500PEP     CB16288  19.297   8.062  14.621 -0.0899 -0.0413  0.0817
  500PEP     CB16289  19.699   7.959  14.571  0.0302 -0.4288 -0.4277
  500PEP     CB16290  19.856   7.736  14.321 -0.2107 -0.0363  0.1066
  500PEP     CB16291  20.235   7.685  13.959 -0.1074  0.2186  0.2000
  500PEP     CB16292  20.549   7.935  13.724 -0.1198  0.0757  0.0502
  500PEP     CB16293  20.866   8.122  14.041  0.2232 -0.1371 -0.0635
  500PEP     CB16294  20.907   8.041  14.424 -0.2251  0.0366 -0.2317
  500PEP     CB16295  20.742   8.022  14.797  0.0125  0.2629  0.2516
  500PEP     CB16296  20.608   8.230  15.257  0.0223 -0.2153 -0.0605
  500PEP     CB16297  20.625   8.407  15.668  0.1499  0.1851  0.1825
  500PEP     CB16298  20.489   8.554  16.140  0.0854  0.1637  0.2657
  500PEP     CB16299  20.340   8.326  16.479  0.0630 -0.0575 -0.0233
  500PEP     CB16300  20.321   8.343  16.979 -0.2682  0.0019 -0.0446
  500PEP     CB16301  20.169   8.223  17.394  0.2079 -0.1066 -0.0713
  500PEP     CB16302  20.117   7.957  17.748  0.2606 -0.1741  0.2757
  500PEP     CB16303  19.746   8.134  18.023 -0.0018 -0.2344 -0.2802
  500PEP     CB16304  19.409   8.430  17.980  0.3137  0.1976 -0.2329
  500PEP     CB16305  19.182   8.588  17.713  0.2614  0.0770 -0.1916
  500PEP     CB16306  18.754   8.556  17.600 -0.1657  0.0559  0.1683
  500PEP     CB16307  18.574   8.222  17.755 -0.2258 -0.1399  0.0996
  500PEP     CB16308  18.573   7.976  18.143  0.1150 -0.1482 -0.0939
  500PEP     CB16309  18.839   7.687  18.374 -0.1102 -0.1744  0.0745
  500PEP     CB16310  19.343   7.620  18.391  0.1111  0.1988  0.2216
  500PEP     CB16311  19.792   7.703  18.328  0.1494  0.2871 -0.4160
  500PEP     CB16312  20.062   8.001  18.337 -0.2048  0.0740  0.3745
  500PEP     CB16313  20.529   7.981  18.092  0.3720  0.1869 -0.0920
  500PEP     CB16314  20.846   7.560  18.264 -0.2205 -0.1256  0.0622
  500PEP     CB16315  21.036   7.605  18.732  0.2034 -0.0657 -0.3090
  500PEP     CB16316  21.283   7.976  18.898 -0.1095 -0.1665 -0.0909
  500PEP     CB16317  21.267   8.469  18.763  0.0116  0.1392 -0.2592
  500PEP     CB16318  21.214   8.675  18.345 -0.0922  0.1795  0.0628
  500PEP     CB16319  21.191   8.289  18.035  0.3350 -0.5577  0.1162
  500PEP     CB16320  21.197   7.944  18.003  0.1018 -0.0940  0.5788
  501PEP     CB16321   5.486   2.740  13.231  0.1185  0.2500 -0.2662
  501PEP     CB16322   5.425   3.140  13.243  0.0092  0.3212  0.2946
  501PEP     CB16323   5.229   3.556  13.275 -0.0327 -0.3361 -0.0148
  501PEP     CB16324   4.872   3.719  13.327 -0.0057 -0.2542  0.2728
  501PEP     CB16325   4.416   3.629  13.270 -0.0720  0.2922  0.0072
  501PEP     CB16326   4.222   3.542  12.907 -0.0704 -0.1269 -0.0350
  501PEP     CB16327   4.389   3.543  12.457  0.3627  0.2195  0.1719
  501PEP     CB16328   4.457   3.730  12.073 -0.1219  0.0042 -0.2344
  501PEP     CB16329   4.153   3.981  11.843  0.3057  0.3353 -0.2508
  501PEP     CB16330   4.132   4.545  11.812  0.3272 -0.0986  0.1205
  501PEP     CB16331   4.482   4.958  11.889 -0.0848  0.2623 -0.0860
  501PEP     CB16332   4.430   5.277  12.228  0.1471 -0.3396  0.2400
  501PEP     CB16333   4.155   5.554  12.405  0.0653 -0.0597 -0.1559
  501PEP     CB16334   3.916   5.912  12.668  0.0658  0.0612 -0.1030
  501PEP     CB16335   3.572   6.153  12.610  0.1609  0.1248  0.2983
  501PEP     CB16336   3.141   6.132  12.648 -0.2914 -0.0176 -0.2164
  501PEP     CB16337   2.738   5.975  12.681  0.5365 -0.0682  0.3832
  501PEP     CB16338   2.275   5.984  12.767 -0.0610  0.0864  0.2592
  501PEP     CB16339   1.898   5.745  12.674 -0.1001 -0.1712  0.0154
  501PEP     CB16340   1.545   5.708  12.677  0.0226 -0.3124  0.3020
  501PEP     CB16341   1.192   5.667  12.869 -0.4902 -0.1542 -0.3000
  501PEP     CB16342   1.149   5.676  13.287  0.3530  0.2503 -0.2516
  501PEP     CB16343   1.379   5.915  13.626 -0.1233  0.0383  0.4970
  501PEP     CB16344   1.766   5.902  13.607  0.0482  0.2856 -0.0664
  501PEP     CB16345   2.182   5.777  13.652  0.2302  0.1105 -0.1821
  501PEP     CB16346   2.530   5.424  13.468 -0.1910 -0.2349  0.3213
  501PEP     CB16347   2.800   5.060  13.417  0.0449 -0.1268 -0.3716
  501PEP     CB16348   2.873   4.679  13.152 -0.3108 -0.1208 -0.3591
  501PEP     CB16349   2.609   4.372  12.943 -0.2730 -0.0384 -0.1276
  501PEP     CB16350   2.489   3.917  12.650 -0.1660 -0.2340 -0.2941
  501PEP     CB16351   2.265   3.747  12.268  0.0736 -0.0052 -0.1181
  501PEP     CB16352   2.202   3.661  11.811  0.3152 -0.1367 -0.0484
  501PEP     CB16353   2.313   3.689  11.378 -0.3738  0.1116  0.0624
  501PEP     CB16354   2.623   3.872  11.018  0.2346  0.0380 -0.1455
  501PEP     CB16355   3.036   3.746  10.760 -0.0491  0.0708  0.1923
  501PEP     CB16356   3.284   3.348  10.864  0.1335 -0.1455 -0.1806
  501PEP     CB16357   3.444   3.226  11.238  0.1908  0.0116 -0.0083
  501PEP     CB16358   3.767   3.446  11.473 -0.2141  0.1789  0.5483
  501PEP     CB16359   4.131   3.352  11.790  0.1945 -0.0650 -0.1013
  501PEP     CB16360   4.209   3.116  12.143  0.2039  0.1613 -0.2125
  502PEP     CB16361   8.092   0.692  17.549 -0.0927  0.1855 -0.0033
  502PEP     CB16362   7.615   0.547  17.496  0.0721  0.0932  0.2371
  502PEP     CB16363   7.106   0.534  17.377  0.0853 -0.1915  0.1559
  502PEP     CB16364   6.814   0.351  17.554 -0.2345  0.0378  0.1501
  502PEP     CB16365   6.970  -0.048  17.672 -0.3016 -0.1198 -0.3374
  502PEP     CB16366   7.372  -0.198  17.695 -0.0355  0.1789  0.0342
  502PEP     CB16367   7.674  -0.061  17.527  0.0939 -0.0492  0.0456
  502PEP     CB16368   7.580   0.104  17.204  0.1997 -0.6402  0.0225
  502PEP     CB16369   7.101   0.003  17.107  0.1062  0.2912  0.4835
  502PEP     CB16370   7.096  -0.379  16.927 -0.3710  0.1842 -0.0486
  502PEP     CB16371   7.428  -0.764  16.821  0.5431 -0.3314 -0.0474
  502PEP     CB16372   7.567  -0.964  17.132  0.0899  0.3768  0.4915
  502PEP     CB16373   7.756  -0.754  17.505 -0.3378 -0.3125  0.1207
  502PEP     CB16374   8.159  -0.516  17.573  0.4221 -0.0757 -0.0045
  502PEP     CB16375   8.508  -0.759  17.551 -0.0209 -0.1347 -0.0241
  502PEP     CB16376   8.531  -1.132  17.771  0.1418  0.0967 -0.1217
  502PEP     CB16377   8.414  -1.527  17.988 -0.3600 -0.0633  0.0803
  502PEP     CB16378   8.166  -1.787  18.269 -0.1233  0.0453  0.0154
  502PEP     CB16379   7.812  -2.076  18.374  0.3280  0.0530  0.0472
  502PEP     CB16380   7.422  -2.125  18.599 -0.1248  0.2428 -0.2834
  502PEP     CB16381   7.142  -2.382  18.677 -0.0571 -0.0907 -0.0123
  502PEP     CB16382   6.943  -2.694  18.767  0.2177  0.4017 -0.1448
  502PEP     CB16383   6.880  -2.991  19.126 -0.0162 -0.0619  0.6577
  502PEP     CB16384   6.888  -3.024  19.564  0.0665 -0.4280 -0.0880
  502PEP     CB16385   6.806  -2.930  19.926 -0.0048  0.0552  0.0322
  502PEP     CB16386   6.669  -2.989  20.286  0.3092  0.0327  0.2216
  502PEP     CB16387   6.399  -3.095  20.666  0.2921  0.3082 -0.5211
  502PEP     CB16388   6.149  -3.230  20.954  0.1828 -0.1522 -0.2041
  502PEP     CB16389   5.878  -3.556  21.207 -0.3422  0.2014 -0.4562
  502PEP     CB16390   5.819  -3.932  21.446 -0.0603 -0.1967 -0.2430
  502PEP     CB16391   6.111  -4.236  21.760 -0.1427  0.4489 -0.0997
  502PEP     CB16392   6.580  -4.124  21.852  0.1009  0.1738  0.1154
  502PEP     CB16393   6.790  -3.960  21.508 -0.1005 -0.2234 -0.1383
  502PEP     CB16394   6.711  -4.202  21.063 -0.2199  0.0348  0.1229
  502PEP     CB16395   6.422  -4.369  20.802  0.4043 -0.1385 -0.2576
  502PEP     CB16396   6.121  -4.637  20.592  0.4950  0.1272  0.0212
  502PEP     CB16397   5.881  -4.686  20.271 -0.2878 -0.1959 -0.2100
  502PEP     CB16398   5.525  -4.803  20.054  0.2772  0.0320 -0.3675
  502PEP     CB16399   5.062  -5.098  19.997 -0.2680 -0.0769 -0.3269
  502PEP     CB16400   4.869  -5.504  20.045  0.1730 -0.4946  0.0366
  503PEP     CB16401  11.691   7.712  17.308  0.4910  0.4018 -0.0801
  503PEP     CB16402  11.283   7.902  17.127 -0.1783 -0.0285 -0.2252
  503PEP     CB16403  10.891   8.169  17.240 -0.1746 -0.1765 -0.5434
  503PEP     CB16404  10.567   8.499  17.215 -0.0740 -0.0058  0.3096
  503PEP     CB16405  10.187   8.680  17.094  0.1491  0.0651  0.2840
  503PEP     CB16406   9.784   8.897  17.046 -0.0528  0.0468 -0.1520
  503PEP     CB16407   9.389   8.824  16.858  0.5008 -0.2312  0.2060
  503PEP     CB16408   9.168   8.507  16.742  0.1352 -0.1495  0.1047
  503PEP     CB16409   9.292   8.183  16.695 -0.1589  0.2597  0.0133
  503PEP     CB16410   9.572   7.859  16.709 -0.4497  0.2800 -0.0898
  503PEP     CB16411   9.493   7.490  16.986  0.0433  0.0176 -0.0289
  503PEP     CB16412   9.364   7.302  17.336 -0.1016 -0.2036 -0.0718
  503PEP     CB16413   9.270   6.856  17.331  0.1588  0.0235 -0.1377
  503PEP     CB16414   9.322   6.639  16.944 -0.3057 -0.2791 -0.3331
  503PEP     CB16415   9.435   6.872  16.543  0.1415  0.3228 -0.1324
  503PEP     CB16416   9.591   7.105  16.250  0.2039 -0.1436  0.0885
  503PEP     CB16417   9.459   7.192  15.740 -0.3860  0.1361  0.3644
  503PEP     CB16418   9.412   6.843  15.450  0.2177  0.0562 -0.0284
  503PEP     CB16419   9.325   6.403  15.424  0.0967  0.0385 -0.0910
  503PEP     CB16420   9.184   6.008  15.707 -0.2056 -0.1623 -0.5670
  503PEP     CB16421   8.991   5.548  15.962  0.0800 -0.1667  0.6853
  503PEP     CB16422   9.146   5.489  16.309 -0.2094  0.3585 -0.5100
  503PEP     CB16423   9.579   5.378  16.433 -0.1298 -0.0245 -0.0178
  503PEP     CB16424  10.022   5.395  16.361  0.1170 -0.1114  0.2388
  503PEP     CB16425  10.459   5.655  16.145 -0.2948 -0.1301 -0.2349
  503PEP     CB16426  10.675   6.125  16.077  0.0570 -0.2018 -0.0009
  503PEP     CB16427  11.024   6.423  15.801  0.1313  0.0918 -0.1012
  503PEP     CB16428  11.233   6.397  15.435 -0.2825 -0.0482  0.2167
  503PEP     CB16429  11.105   6.137  15.181 -0.0083 -0.0024  0.0775
  503PEP     CB16430  11.136   5.728  14.992 -0.2232  0.1396  0.0583
  503PEP     CB16431  10.905   5.329  14.879  0.1294  0.0847  0.0190
  503PEP     CB16432  10.583   5.143  14.730  0.1404 -0.2992 -0.3620
  503PEP     CB16433  10.611   4.982  14.245  0.3169  0.2726  0.1187
  503PEP     CB16434  10.691   5.278  13.843  0.1380  0.2444 -0.0203
  503PEP     CB16435  10.599   5.664  13.836  0.0620  0.1150 -0.0980
  503PEP     CB16436  10.310   5.672  14.186 -0.0746  0.0321 -0.1670
  503PEP     CB16437  10.171   5.299  14.360  0.0837 -0.3803  0.1487
  503PEP     CB16438  10.048   4.860  14.072 -0.2167 -0.3600  0.0537
  503PEP     CB16439   9.775   4.886  13.808 -0.2122 -0.3460  0.0313
  503PEP     CB16440   9.515   5.284  13.790 -0.1292  0.2982  0.2696
  504PEP     CB16441  14.837  10.848  21.007 -0.2905  0.0186  0.2942
  504PEP     CB16442  14.497  11.129  21.131  0.5131 -0.1034  0.5340
  504PEP     CB16443  14.042  11.231  21.051  0.1968 -0.0417 -0.3473
  504PEP     CB16444  13.579  11.384  21.052  0.5586 -0.2276 -0.1438
  504PEP     CB16445  13.139  11.222  21.196  0.1648  0.0824 -0.0333
  504PEP     CB16446  12.899  11.445  21.513  0.2268 -0.0023  0.2004
  504PEP     CB16447  13.105  11.735  21.733  0.0778 -0.5088  0.0246
  504PEP     CB16448  13.455  12.024  21.650  0.3395  0.1873  0.2317
  504PEP     CB16449  13.807  12.003  21.396 -0.0181  0.0262 -0.3443
  504PEP     CB16450  13.966  11.803  21.027  0.0261 -0.1889 -0.2236
  504PEP     CB16451  14.062  11.956  20.603  0.2001  0.0744 -0.1758
  504PEP     CB16452  14.001  12.345  20.340 -0.0996 -0.4643  0.0305
  504PEP     CB16453  13.945  12.740  20.090 -0.3014 -0.3067 -0.0644
  504PEP     CB16454  13.708  13.228  20.067  0.4168 -0.0412 -0.2073
  504PEP     CB16455  13.721  13.676  20.004  0.2233  0.1244 -0.0064
  504PEP     CB16456  13.885  14.053  19.820 -0.1445 -0.0880 -0.2740
  504PEP     CB16457  14.149  14.439  19.839  0.0474 -0.1189  0.1086
  504PEP     CB16458  14.173  14.730  19.687 -0.1301  0.0118  0.2552
  504PEP     CB16459  14.005  15.173  19.828  0.2980 -0.1618 -0.0689
  504PEP     CB16460  13.994  15.617  19.617 -0.1099 -0.3084  0.0309
  504PEP     CB16461  14.336  15.708  19.319 -0.1244 -0.1220 -0.3141
  504PEP     CB16462  14.717  15.459  19.141 -0.0790 -0.1152 -0.1240
  504PEP     CB16463  14.860  14.980  19.256 -0.1024 -0.1882  0.1674
  504PEP     CB16464  15.092  14.727  19.539 -0.2027  0.2457 -0.2799
  504PEP     CB16465  15.451  14.734  19.786 -0.1689  0.1789 -0.2139
  504PEP     CB16466  15.722  14.614  20.124  0.1781  0.2405  0.4495
  504PEP     CB16467  16.078  14.641  20.451 -0.1284  0.0523  0.2760
  504PEP     CB16468  16.433  14.480  20.834  0.2109  0.0317 -0.1218
  504PEP     CB16469  16.708  14.130  20.699 -0.4915 -0.3420 -0.0240
  504PEP     CB16470  16.642  13.856  20.415  0.3711  0.0405  0.2689
  504PEP     CB16471  16.355  13.977  20.103 -0.1998 -0.0748  0.0743
  504PEP     CB16472  15.957  14.232  20.217 -0.2554 -0.0521  0.1355
  504PEP     CB16473  15.687  14.114  20.570  0.0803  0.3635 -0.6045
  504PEP     CB16474  15.257  14.103  20.602 -0.0135 -0.2015 -0.0380
  504PEP     CB16475  15.176  14.579  20.315  0.5163  0.0833 -0.2059
  504PEP     CB16476  14.992  14.895  19.993  0.2079 -0.1282  0.1012
  504PEP     CB16477  14.958  15.316  19.702 -0.0530  0.0967  0.2779
  504PEP     CB16478  15.135  15.698  19.592  0.0507 -0.3286  0.0012
  504PEP     CB16479  15.518  15.933  19.564  0.1197 -0.0968 -0.3441
  504PEP     CB16480  15.957  16.094  19.681  0.2226  0.0529  0.0543
  505PEP     CB16481  20.919  15.756   1.277 -0.2821 -0.1008  0.2501
  505PEP     CB16482  20.554  15.692   1.427  0.0629 -0.0354 -0.1735
  505PEP     CB16483  20.160  15.607   1.408  0.3996  0.0465 -0.2678
  505PEP     CB16484  19.830  15.603   1.200 -0.4414 -0.0307  0.3043
  505PEP     CB16485  19.461  15.562   1.048 -0.3040  0.0103 -0.3196
  505PEP     CB16486  19.191  15.371   1.103  0.0742 -0.0311  0.0668
  505PEP     CB16487  18.756  15.435   1.100  0.5977 -0.1426  0.1595
  505PEP     CB16488  18.485  15.723   1.145 -0.4687  0.2901  0.2090
  505PEP     CB16489  18.573  16.078   1.094 -0.3429  0.3926  0.4597
  505PEP     CB16490  18.764  16.347   0.675 -0.0146 -0.1907  0.1326
  505PEP     CB16491  18.764  16.657   0.354  0.0347 -0.1132  0.4349
  505PEP     CB16492  18.953  16.897   0.043  0.1591  0.1438  0.1854
  505PEP     CB16493  19.150  17.223  -0.154 -0.1986 -0.1105  0.2432
  505PEP     CB16494  19.192  17.539   0.018 -0.0038 -0.0504 -0.1509
  505PEP     CB16495  19.036  17.775   0.296  0.0186 -0.4508 -0.3491
  505PEP     CB16496  18.638  18.052   0.346 -0.3823 -0.3523  0.2617
  505PEP     CB16497  18.475  18.427   0.324  0.0448 -0.1298  0.0980
  505PEP     CB16498  18.235  18.815   0.292 -0.0424  0.1136  0.2660
  505PEP     CB16499  17.963  18.947   0.571 -0.1470  0.1142  0.0374
  505PEP     CB16500  17.868  18.806   1.080 -0.0224  0.0252  0.3265
  505PEP     CB16501  17.787  18.804   1.561  0.4196  0.3816  0.1211
  505PEP     CB16502  18.015  18.689   1.972 -0.1889  0.2960  0.1215
  505PEP     CB16503  18.135  18.883   2.246 -0.0014  0.0732  0.0767
  505PEP     CB16504  18.311  18.883   2.653  0.2707 -0.0621  0.0209
  505PEP     CB16505  18.585  18.988   3.011  0.3110  0.1896  0.2216
  505PEP     CB16506  18.874  18.913   3.353  0.0136 -0.1461  0.0480
  505PEP     CB16507  18.817  18.759   3.784 -0.0470 -0.2895 -0.0835
  505PEP     CB16508  18.684  18.575   4.124 -0.1911  0.2578  0.3615
  505PEP     CB16509  18.854  18.329   4.458  0.0687 -0.1668 -0.1153
  505PEP     CB16510  19.299  18.331   4.601  0.2023 -0.3635 -0.3304
  505PEP     CB16511  19.554  18.560   4.575  0.1189  0.3175  0.1644
  505PEP     CB16512  19.904  18.694   4.867  0.1540 -0.2489  0.2611
  505PEP     CB16513  20.119  18.439   5.168  0.0794  0.1152 -0.4887
  505PEP     CB16514  20.177  18.077   5.151  0.3494  0.1529 -0.0032
  505PEP     CB16515  20.600  17.852   5.152  0.2388  0.0095 -0.0028
  505PEP     CB16516  20.741  17.598   5.475  0.0510  0.0202 -0.1515
  505PEP     CB16517  20.609  17.207   5.600 -0.2336 -0.2853  0.1950
  505PEP     CB16518  20.664  16.800   5.419  0.0753 -0.1847  0.3582
  505PEP     CB16519  20.387  16.501   5.319  0.1833 -0.1394  0.2230
  505PEP     CB16520  20.051  16.424   5.610 -0.1197 -0.1157 -0.3032
  506PEP     CB16521   0.245  20.458  15.226 -0.0265 -0.2762 -0.0008
  506PEP     CB16522  -0.108  20.365  15.422  0.2814 -0.1900 -0.2610
  506PEP     CB16523  -0.318  20.542  15.778 -0.0429  0.0006  0.2740
  506PEP     CB16524  -0.098  20.806  16.030  0.1682  0.0639 -0.1449
  506PEP     CB16525  -0.119  21.244  16.144 -0.1971  0.1233 -0.1052
  506PEP     CB16526  -0.262  21.609  16.324  0.0778  0.1536  0.0160
  506PEP     CB16527  -0.309  21.949  16.097  0.1660  0.2797 -0.0264
  506PEP     CB16528  -0.440  22.398  15.926  0.0443  0.1724  0.3072
  506PEP     CB16529  -0.385  22.625  15.531 -0.1115  0.3383  0.1363
  506PEP     CB16530  -0.091  22.474  15.216 -0.0463 -0.1377  0.1438
  506PEP     CB16531   0.185  22.110  15.242  0.3157 -0.2285  0.1654
  506PEP     CB16532   0.375  21.729  15.308 -0.0547 -0.3514 -0.2023
  506PEP     CB16533   0.328  21.338  15.642  0.3331  0.2401  0.3936
  506PEP     CB16534   0.364  21.231  16.078  0.1367  0.0897  0.3790
  506PEP     CB16535   0.399  21.354  16.539  0.2514 -0.1218  0.0902
  506PEP     CB16536   0.609  21.687  16.642  0.0653  0.2837 -0.2670
  506PEP     CB16537   0.693  22.006  16.188  0.0710  0.2379 -0.1705
  506PEP     CB16538   0.666  21.748  15.838  0.3676  0.0163  0.0592
  506PEP     CB16539   0.819  21.294  15.898  0.1191  0.2418 -0.0229
  506PEP     CB16540   1.198  21.132  16.136  0.1696 -0.1286 -0.1234
  506PEP     CB16541   1.589  20.864  16.280 -0.4203 -0.2727 -0.0138
  506PEP     CB16542   2.018  21.010  16.246 -0.0484  0.2459 -0.1483
  506PEP     CB16543   2.185  21.433  16.205  0.3301 -0.0001 -0.2716
  506PEP     CB16544   2.431  21.737  16.423 -0.0663  0.0146 -0.0992
  506PEP     CB16545   2.547  22.200  16.576 -0.3575 -0.0028  0.5186
  506PEP     CB16546   2.328  22.491  16.569 -0.1673 -0.3173 -0.0908
  506PEP     CB16547   1.987  22.430  16.518  0.2285 -0.5060  0.1229
  506PEP     CB16548   1.791  22.183  16.671 -0.0309  0.3962 -0.1386
  506PEP     CB16549   1.844  21.910  16.982  0.4087 -0.1899 -0.2106
  506PEP     CB16550   2.029  21.694  17.308 -0.0242  0.2072  0.2028
  506PEP     CB16551   2.256  21.551  17.700  0.0755 -0.0412  0.1118
  506PEP     CB16552   2.514  21.159  17.869  0.1769  0.3246 -0.3555
  506PEP     CB16553   2.576  20.989  18.298  0.4135 -0.4715  0.2728
  506PEP     CB16554   2.489  21.174  18.745  0.0988  0.0257 -0.0912
  506PEP     CB16555   2.393  21.597  18.890 -0.2688  0.4172 -0.1420
  506PEP     CB16556   2.583  21.934  19.230  0.1209 -0.3682  0.1309
  506PEP     CB16557   2.925  22.059  19.462 -0.0879  0.2566  0.3948
  506PEP     CB16558   3.359  22.128  19.415  0.3512  0.1816  0.1243
  506PEP     CB16559   3.660  22.416  19.285  0.2028  0.3177 -0.2205
  506PEP     CB16560   3.741  22.845  19.136 -0.2349 -0.1239 -0.0428
  507PEP     CB16561   8.518   6.967   4.094 -0.1821  0.2254 -0.3755
  507PEP     CB16562   8.614   6.702   3.908  0.0838 -0.3268  0.1147
  507PEP     CB16563   8.506   6.599   3.465 -0.4459  0.0903  0.3146
  507PEP     CB16564   8.460   6.475   2.962 -0.3344 -0.0969 -0.1990
  507PEP     CB16565   8.465   6.419   2.555 -0.0133 -0.1110 -0.1021
  507PEP     CB16566   8.418   6.297   2.113 -0.4514  0.4393 -0.0180
  507PEP     CB16567   8.280   6.394   1.728  0.3967  0.2340  0.0118
  507PEP     CB16568   8.354   6.567   1.342 -0.1634 -0.0705  0.1413
  507PEP     CB16569   8.436   6.751   0.961  0.2974  0.0431  0.1980
  507PEP     CB16570   8.665   7.017   0.614  0.0831 -0.0025  0.1914
  507PEP     CB16571   8.758   7.108   0.204  0.1659  0.0752  0.1641
  507PEP     CB16572   8.815   7.216  -0.249 -0.3261 -0.1854 -0.2668
  507PEP     CB16573   8.937   7.353  -0.656  0.0131 -0.0363  0.0807
  507PEP     CB16574   8.978   7.482  -1.075  0.1396 -0.2318 -0.1057
  507PEP     CB16575   8.676   7.703  -1.442  0.1787  0.1317 -0.2227
  507PEP     CB16576   8.593   8.090  -1.751  0.0376  0.3020  0.1193
  507PEP     CB16577   8.274   8.391  -1.618 -0.0837 -0.0551 -0.1179
  507PEP     CB16578   8.273   8.514  -1.256 -0.1271  0.4101  0.0054
  507PEP     CB16579   8.451   8.502  -0.823 -0.3002 -0.1026 -0.1780
  507PEP     CB16580   8.823   8.490  -0.593  0.2619  0.2624 -0.2629
  507PEP     CB16581   9.109   8.113  -0.455  0.0610  0.1688 -0.1206
  507PEP     CB16582   8.924   7.766  -0.140 -0.0026  0.0069  0.2404
  507PEP     CB16583   8.494   7.598  -0.124  0.2207 -0.0965  0.0318
  507PEP     CB16584   8.104   7.530  -0.268 -0.0455 -0.2202 -0.1414
  507PEP     CB16585   7.704   7.723  -0.015 -0.1718  0.2891  0.2023
  507PEP     CB16586   7.693   7.811   0.372  0.4613 -0.1326 -0.4022
  507PEP     CB16587   8.031   7.716   0.640 -0.4417  0.0837 -0.1590
  507PEP     CB16588   8.463   7.646   0.806 -0.3739  0.1155 -0.0659
  507PEP     CB16589   8.798   7.927   0.872 -0.1657  0.0781  0.2482
  507PEP     CB16590   9.072   8.095   1.130 -0.1047 -0.0989 -0.2237
  507PEP     CB16591   9.385   8.052   1.405 -0.4994  0.3214  0.2592
  507PEP     CB16592   9.462   7.756   1.783 -0.1043  0.0651  0.3857
  507PEP     CB16593   9.502   7.313   1.910  0.2385  0.3088  0.0439
  507PEP     CB16594   9.262   7.014   2.176  0.0360  0.0322  0.0006
  507PEP     CB16595   8.938   6.896   2.574 -0.0696 -0.2003 -0.2208
  507PEP     CB16596   8.499   6.957   2.580  0.1068  0.0729  0.2026
  507PEP     CB16597   8.243   6.768   2.154  0.2093 -0.0755 -0.1822
  507PEP     CB16598   8.495   6.861   1.698 -0.2915  0.2380 -0.0787
  507PEP     CB16599   8.952   6.841   1.665 -0.2054  0.3685  0.0764
  507PEP     CB16600   9.355   6.601   1.773  0.1407  0.3042  0.0126
  508PEP     CB16601   7.252   0.254  19.380  0.2100 -0.0232  0.4117
  508PEP     CB16602   7.665   0.201  19.257 -0.0427  0.1336 -0.5436
  508PEP     CB16603   8.070  -0.056  19.308  0.0794  0.0888  0.3848
  508PEP     CB16604   8.248  -0.463  19.152  0.0530 -0.1047  0.3256
  508PEP     CB16605   8.469  -0.607  18.777  0.0572 -0.1649 -0.1465
  508PEP     CB16606   8.676  -0.464  18.367 -0.2939  0.1974 -0.1400
  508PEP     CB16607   8.845  -0.784  17.984 -0.2064  0.2689 -0.1504
  508PEP     CB16608   8.830  -1.249  18.083 -0.2743 -0.0024 -0.0757
  508PEP     CB16609   8.891  -1.677  18.136  0.1722 -0.0982  0.4969
  508PEP     CB16610   8.665  -2.063  18.248 -0.2994 -0.1967  0.3264
  508PEP     CB16611   8.395  -2.084  18.627 -0.0864 -0.0051 -0.4471
  508PEP     CB16612   8.197  -1.734  18.801  0.3173  0.5424  0.0035
  508PEP     CB16613   8.383  -1.410  18.539  0.0779 -0.3862 -0.1374
  508PEP     CB16614   8.338  -1.098  18.289 -0.0647 -0.2006  0.0000
  508PEP     CB16615   8.354  -0.634  18.071 -0.1455  0.0407  0.1192
  508PEP     CB16616   8.380  -0.252  17.984 -0.1661  0.1510  0.0557
  508PEP     CB16617   8.636   0.041  18.160  0.1798  0.2218 -0.2264
  508PEP     CB16618   8.874   0.103  18.500  0.5125  0.6989  0.1994
  508PEP     CB16619   9.054   0.236  18.882 -0.1100  0.3037  0.2388
  508PEP     CB16620   9.381   0.472  18.868 -0.2812  0.0963  0.1722
  508PEP     CB16621   9.773   0.333  18.791  0.1973 -0.1932  0.0079
  508PEP     CB16622  10.065   0.155  18.690 -0.0835 -0.3226  0.0818
  508PEP     CB16623  10.414   0.090  18.455 -0.1985 -0.1803  0.0562
  508PEP     CB16624  10.573  -0.339  18.202 -0.0362 -0.2257 -0.3660
  508PEP     CB16625  10.251  -0.577  18.032  0.1986  0.1725 -0.2435
  508PEP     CB16626   9.763  -0.559  17.761  0.2028 -0.1988  0.2600
  508PEP     CB16627   9.290  -0.472  17.628  0.3444 -0.0417 -0.2043
  508PEP     CB16628   8.774  -0.392  17.670 -0.1507  0.5054  0.0138
  508PEP     CB16629   8.447  -0.064  17.529  0.1365 -0.0335 -0.1667
  508PEP     CB16630   8.131   0.192  17.793  0.1456 -0.2787  0.3028
  508PEP     CB16631   7.721   0.340  17.933  0.0533 -0.1162  0.0164
  508PEP     CB16632   7.245   0.464  17.817 -0.2497  0.1548 -0.3183
  508PEP     CB16633   7.004   0.881  17.740 -0.2551  0.1000 -0.0288
  508PEP     CB16634   7.129   1.306  17.506  0.2252  0.3152  0.2244
  508PEP     CB16635   6.905   1.631  17.497 -0.3502  0.0530 -0.1327
  508PEP     CB16636   6.437   1.836  17.644  0.1546  0.0883  0.3529
  508PEP     CB16637   6.088   1.551  17.724 -0.2126 -0.1444 -0.4689
  508PEP     CB16638   6.104   1.194  17.993 -0.1711  0.5196 -0.1546
  508PEP     CB16639   6.221   0.992  18.357  0.2296 -0.1513  0.0662
  508PEP     CB16640   6.562   0.880  18.714  0.0957  0.2742  0.2471
  509PEP     CB16641  18.636   1.372  10.259  0.1602  0.5097  0.2922
  509PEP     CB16642  18.952   1.105  10.173 -0.4689 -0.1675 -0.1134
  509PEP     CB16643  18.980   0.757   9.776  0.0541  0.2414 -0.0165
  509PEP     CB16644  18.661   0.748   9.431  0.1651 -0.2262 -0.0223
  509PEP     CB16645  18.296   0.953   9.123 -0.1629  0.2430  0.3107
  509PEP     CB16646  17.834   1.078   9.133  0.3026  0.0588 -0.0609
  509PEP     CB16647  17.636   1.277   8.787 -0.1709 -0.1283  0.2921
  509PEP     CB16648  17.699   1.643   8.631  0.1418 -0.1123  0.0382
  509PEP     CB16649  17.450   1.968   8.736  0.1641  0.2859 -0.0009
  509PEP     CB16650  17.098   2.070   8.817  0.1207 -0.3583  0.2543
  509PEP     CB16651  16.700   2.035   8.713  0.0725  0.1453 -0.1005
  509PEP     CB16652  16.290   2.198   8.505 -0.0807  0.1878 -0.0607
  509PEP     CB16653  15.884   2.056   8.569  0.2238 -0.3364 -0.1189
  509PEP     CB16654  15.396   2.069   8.598 -0.1203  0.2096 -0.2295
  509PEP     CB16655  14.990   1.878   8.526 -0.1417 -0.0262 -0.0221
  509PEP     CB16656  14.573   1.849   8.373  0.1958 -0.0804 -0.1355
  509PEP     CB16657  14.084   1.912   8.407  0.1040  0.0360  0.0344
  509PEP     CB16658  13.790   2.035   8.617 -0.0808 -0.0709  0.0328
  509PEP     CB16659  13.345   2.071   8.921  0.0610 -0.2505  0.2408
  509PEP     CB16660  12.962   2.213   9.232  0.0683 -0.0033 -0.1869
  509PEP     CB16661  12.547   2.262   9.332  0.1984  0.1686  0.3705
  509PEP     CB16662  12.184   2.151   9.234 -0.0079  0.2467  0.3665
  509PEP     CB16663  11.710   2.053   9.325 -0.2233 -0.0785  0.2280
  509PEP     CB16664  11.256   1.866   9.420 -0.4378 -0.1875 -0.1786
  509PEP     CB16665  11.002   1.642   9.115  0.0853  0.0723  0.0812
  509PEP     CB16666  10.739   1.222   9.035  0.0735  0.1574 -0.0345
  509PEP     CB16667  10.453   0.984   9.100 -0.1855 -0.1526 -0.1669
  509PEP     CB16668  10.112   0.823   8.861  0.5785 -0.1832  0.2072
  509PEP     CB16669   9.695   0.691   8.804 -0.1995 -0.3072  0.0103
  509PEP     CB16670   9.338   0.456   8.787  0.2457  0.1282 -0.0358
  509PEP     CB16671   9.050   0.257   8.511 -0.4079 -0.0015 -0.0645
  509PEP     CB16672   8.699   0.154   8.254 -0.0546  0.2431 -0.1274
  509PEP     CB16673   8.541  -0.198   8.002 -0.3321 -0.1721 -0.0909
  509PEP     CB16674   8.503  -0.472   7.601 -0.3122  0.5257 -0.2067
  509PEP     CB16675   8.353  -0.402   7.165 -0.0728 -0.1195 -0.4747
  509PEP     CB16676   8.106  -0.111   6.862  0.0838 -0.2443 -0.0223
  509PEP     CB16677   7.687   0.048   6.688 -0.2077 -0.0960  0.0265
  509PEP     CB16678   7.342   0.016   6.459 -0.2828  0.0181  0.1854
  509PEP     CB16679   6.993   0.199   6.501  0.3720  0.0754  0.4050
  509PEP     CB16680   6.798   0.391   6.941  0.0137  0.3295  0.3225
  510PEP     CB16681  16.902  21.949  18.109 -0.1412 -0.0036 -0.2456
  510PEP     CB16682  17.100  21.963  18.525  0.0688  0.3752 -0.2197
  510PEP     CB16683  17.542  22.202  18.691 -0.0377 -0.0859  0.1103
  510PEP     CB16684  17.662  22.551  18.844 -0.4266 -0.2649 -0.0596
  510PEP     CB16685  17.668  22.938  18.649 -0.0311  0.1710  0.0788
  510PEP     CB16686  17.864  23.057  18.221 -0.2962  0.0725 -0.1456
  510PEP     CB16687  18.049  22.718  17.900  0.0713 -0.4039 -0.1203
  510PEP     CB16688  18.250  22.534  17.505 -0.3798  0.1787 -0.0520
  510PEP     CB16689  18.590  22.693  17.221  0.2755  0.0626 -0.0938
  510PEP     CB16690  19.030  22.877  17.265 -0.2831  0.3607 -0.0886
  510PEP     CB16691  19.401  23.139  17.446  0.1151 -0.4980 -0.4118
  510PEP     CB16692  19.563  23.534  17.469  0.1107  0.3785  0.2478
  510PEP     CB16693  19.626  23.967  17.527 -0.0177  0.0670 -0.0039
  510PEP     CB16694  19.949  24.177  17.590  0.3310  0.1224  0.0513
  510PEP     CB16695  20.288  23.946  17.868 -0.1199 -0.3239  0.0903
  510PEP     CB16696  20.447  23.594  17.957 -0.0371  0.3099 -0.1184
  510PEP     CB16697  20.303  23.172  17.892  0.1571  0.2284  0.1349
  510PEP     CB16698  20.279  22.764  18.061 -0.4552  0.1640  0.2638
  510PEP     CB16699  20.307  22.337  17.902  0.3160 -0.1557 -0.3291
  510PEP     CB16700  20.560  22.040  17.680  0.2059 -0.0241 -0.2624
  510PEP     CB16701  20.679  21.656  17.568 -0.1086  0.2025  0.0316
  510PEP     CB16702  20.753  21.198  17.585 -0.0840 -0.1966 -0.4680
  510PEP     CB16703  20.903  20.800  17.591  0.0796  0.2970 -0.0069
  510PEP     CB16704  21.068  20.459  17.563  0.1170 -0.2293  0.3216
  510PEP     CB16705  21.005  20.094  17.816 -0.2399  0.1062  0.1118
  510PEP     CB16706  20.662  19.931  18.085  0.3519 -0.0135 -0.1615
  510PEP     CB16707  20.457  19.917  18.557  0.1038  0.2929  0.1177
  510PEP     CB16708  20.270  19.673  18.876  0.1443  0.1472  0.1527
  510PEP     CB16709  20.057  19.218  18.910  0.2814 -0.2885  0.0833
  510PEP     CB16710  19.874  18.833  18.888  0.0729  0.0343 -0.2038
  510PEP     CB16711  19.616  18.441  18.929  0.1841 -0.2090  0.2946
  510PEP     CB16712  19.312  18.234  18.791  0.6108 -0.4936 -0.5461
  510PEP     CB16713  18.914  17.965  18.610 -0.1993  0.1051  0.2943
  510PEP     CB16714  18.933  17.659  18.355  0.1277 -0.1650  0.1559
  510PEP     CB16715  18.984  17.254  18.358 -0.1313  0.1313  0.1584
  510PEP     CB16716  19.027  16.813  18.221 -0.1899  0.0811  0.0874
  510PEP     CB16717  19.386  16.532  18.105  0.2466  0.0382  0.3803
  510PEP     CB16718  19.831  16.524  18.330 -0.2534  0.2086 -0.5030
  510PEP     CB16719  20.229  16.505  18.185  0.2038  0.1859  0.1164
  510PEP     CB16720  20.341  16.664  17.901 -0.5806  0.0664 -0.1623
  511PEP     CB16721  15.940  15.649   6.534  0.2481  0.0089  0.2435
  511PEP     CB16722  15.978  15.824   6.228 -0.0879 -0.0327  0.4911
  511PEP     CB16723  16.296  15.902   5.813  0.2260  0.1625 -0.1650
  511PEP     CB16724  16.528  15.755   5.563  0.1200  0.1439  0.3284
  511PEP     CB16725  16.750  15.874   5.278 -0.0985 -0.0406 -0.0617
  511PEP     CB16726  17.129  15.972   5.009  0.0632  0.2659 -0.0630
  511PEP     CB16727  17.315  16.181   4.704  0.3195 -0.0487 -0.3796
  511PEP     CB16728  17.440  16.213   4.156 -0.2209  0.1476  0.0035
  511PEP     CB16729  17.441  16.321   3.831  0.3718 -0.2141  0.2385
  511PEP     CB16730  17.431  16.715   3.666 -0.2194  0.1152 -0.2231
  511PEP     CB16731  17.401  17.064   3.911 -0.2101  0.2165  0.2250
  511PEP     CB16732  17.378  16.987   4.331 -0.0765 -0.0209  0.1644
  511PEP     CB16733  17.308  16.592   4.502 -0.0448 -0.1946  0.1343
  511PEP     CB16734  16.987  16.277   4.332  0.1798 -0.1429  0.0557
  511PEP     CB16735  16.946  16.247   3.852 -0.4678  0.3522  0.1264
  511PEP     CB16736  16.908  16.146   3.403 -0.4136 -0.0229 -0.1227
  511PEP     CB16737  16.773  16.151   3.109  0.4859 -0.3317  0.1096
  511PEP     CB16738  16.449  15.916   2.819 -0.0092  0.3091 -0.5764
  511PEP     CB16739  15.972  15.995   2.863  0.3456 -0.1231 -0.0938
  511PEP     CB16740  15.711  16.331   2.681 -0.1039  0.2868 -0.1435
  511PEP     CB16741  15.368  16.660   2.682  0.1401 -0.3450 -0.1469
  511PEP     CB16742  14.870  16.808   2.707 -0.2346  0.1550  0.1673
  511PEP     CB16743  14.517  16.922   2.669 -0.3935  0.1545 -0.1967
  511PEP     CB16744  14.183  17.104   2.873  0.0326 -0.0749  0.0116
  511PEP     CB16745  13.918  17.373   2.794  0.3306  0.2395 -0.1970
  511PEP     CB16746  13.736  17.886   2.693 -0.1895 -0.1575  0.1352
  511PEP     CB16747  13.803  18.308   2.546 -0.3916  0.0367 -0.2470
  511PEP     CB16748  13.931  18.740   2.669 -0.0771  0.1147 -0.4826
  511PEP     CB16749  13.668  19.065   2.702 -0.2389 -0.2463  0.1376
  511PEP     CB16750  13.277  19.038   2.776 -0.2604  0.2054 -0.3714
  511PEP     CB16751  12.880  19.028   2.702 -0.1399  0.0854  0.0703
  511PEP     CB16752  12.441  19.091   2.568 -0.2291 -0.0474 -0.1358
  511PEP     CB16753  12.036  19.235   2.559 -0.2631  0.1014  0.1194
  511PEP     CB16754  11.750  19.619   2.460  0.2608 -0.2689 -0.1120
  511PEP     CB16755  11.772  19.986   2.158  0.1599  0.2811 -0.0983
  511PEP     CB16756  11.605  20.071   1.752 -0.1859  0.1258  0.0562
  511PEP     CB16757  11.644  20.190   1.309  0.0873 -0.2617 -0.2722
  511PEP     CB16758  11.614  20.423   0.943  0.2023  0.0529 -0.3194
  511PEP     CB16759  11.753  20.641   0.698  0.3445 -0.2599  0.3798
  511PEP     CB16760  11.967  20.589   0.327 -0.1278 -0.1426 -0.2392
  512PEP     CB16761  16.998  18.076   4.242  0.5207  0.2743  0.0760
  512PEP     CB16762  16.845  17.653   4.280 -0.0838  0.3558  0.1431
  512PEP     CB16763  16.916  17.261   4.051  0.2515 -0.3869 -0.0009
  512PEP     CB16764  16.678  17.032   3.584 -0.2049  0.1825  0.1552
  512PEP     CB16765  16.355  17.276   3.464  0.3503 -0.0041 -0.0169
  512PEP     CB16766  16.172  17.695   3.508  0.4108  0.2376  0.4875
  512PEP     CB16767  16.146  18.116   3.729 -0.4633  0.0868 -0.0661
  512PEP     CB16768  16.177  18.389   4.169  0.3218  0.1643 -0.1934
  512PEP     CB16769  16.025  18.358   4.525 -0.1003 -0.0059 -0.4222
  512PEP     CB16770  16.185  18.319   4.953  0.0027 -0.1298 -0.0685
  512PEP     CB16771  16.547  18.158   5.161 -0.0480  0.1993 -0.1235
  512PEP     CB16772  16.999  17.920   5.187  0.0385 -0.0060  0.0726
  512PEP     CB16773  17.399  17.961   5.240 -0.0548  0.1355  0.5422
  512PEP     CB16774  17.583  17.775   5.666  0.4187 -0.2871  0.3019
  512PEP     CB16775  17.738  17.758   6.109 -0.1106 -0.5422  0.0143
  512PEP     CB16776  17.486  17.793   6.421  0.2763 -0.1661 -0.1002
  512PEP     CB16777  17.049  17.772   6.364 -0.2928  0.3411 -0.0491
  512PEP     CB16778  16.848  18.042   6.102  0.1817  0.2025  0.2468
  512PEP     CB16779  16.944  18.449   5.820 -0.1793  0.0561  0.2568
  512PEP     CB16780  16.893  18.888   5.666  0.0938 -0.3891  0.3590
  512PEP     CB16781  16.847  19.201   5.382  0.0042  0.0006 -0.0327
  512PEP     CB16782  17.089  19.479   5.161  0.1522  0.0509  0.0078
  512PEP     CB16783  17.278  19.690   4.740 -0.0736  0.2560 -0.1040
  512PEP     CB16784  17.218  19.704   4.320  0.0038 -0.2255  0.0629
  512PEP     CB16785  17.451  19.678   3.948  0.1527 -0.0004  0.0444
  512PEP     CB16786  17.852  19.525   3.947  0.2863 -0.2649  0.0913
  512PEP     CB16787  18.189  19.287   4.127 -0.1666  0.2804  0.2594
  512PEP     CB16788  18.446  19.084   3.889  0.4732  0.4144  0.1005
  512PEP     CB16789  18.536  19.306   3.573  0.0302 -0.2006 -0.2180
  512PEP     CB16790  18.237  19.652   3.587 -0.1408  0.2155  0.0956
  512PEP     CB16791  17.766  19.740   3.520  0.0553 -0.1201  0.1842
  512PEP     CB16792  17.529  20.023   3.505  0.1457 -0.1903 -0.0185
  512PEP     CB16793  17.658  20.412   3.624 -0.5155  0.1425 -0.0751
  512PEP     CB16794  17.997  20.598   3.845 -0.2751 -0.3888 -0.1951
  512PEP     CB16795  18.126  20.884   4.207 -0.2460  0.3532 -0.0037
  512PEP     CB16796  18.037  21.206   4.438  0.0206  0.3956 -0.3246
  512PEP     CB16797  17.778  21.352   4.737 -0.0084  0.1999  0.0980
  512PEP     CB16798  17.430  21.119   4.958  0.7725 -0.2870 -0.1996
  512PEP     CB16799  17.200  20.751   4.939  0.4126 -0.3182  0.2680
  512PEP     CB16800  17.073  20.424   5.261 -0.0216 -0.1261  0.2611
  513PEP     CB16801   0.104  12.319  21.995 -0.1329 -0.0725 -0.1822
  513PEP     CB16802   0.291  12.152  21.683  0.1907 -0.0464 -0.1074
  513PEP     CB16803   0.644  11.961  21.473 -0.2153  0.4084  0.2013
  513PEP     CB16804   1.041  11.795  21.511  0.0808 -0.0356 -0.3886
  513PEP     CB16805   1.284  11.669  21.839  0.0880  0.0322  0.0767
  513PEP     CB16806   1.436  11.919  22.227  0.0973  0.2571  0.0235
  513PEP     CB16807   1.319  12.242  22.394 -0.4339 -0.1087  0.1976
  513PEP     CB16808   1.068  12.503  22.265 -0.0876 -0.0856  0.0166
  513PEP     CB16809   1.079  12.737  21.830  0.1475 -0.0994 -0.3320
  513PEP     CB16810   1.031  13.088  21.588 -0.3105  0.0554 -0.2203
  513PEP     CB16811   1.178  13.482  21.409  0.2648  0.2765  0.1333
  513PEP     CB16812   1.158  13.890  21.110 -0.0176  0.0385 -0.0246
  513PEP     CB16813   1.215  13.879  20.724  0.3008  0.0814 -0.4318
  513PEP     CB16814   1.269  14.095  20.318  0.2343 -0.2644 -0.3872
  513PEP     CB16815   1.469  14.494  20.155  0.1514  0.0574 -0.0108
  513PEP     CB16816   1.259  14.880  20.205  0.1338 -0.3752  0.1152
  513PEP     CB16817   0.798  14.752  20.142  0.0899 -0.0931 -0.2775
  513PEP     CB16818   0.625  14.663  19.761  0.1614  0.2892 -0.1779
  513PEP     CB16819   0.614  14.267  19.682  0.0839 -0.0422 -0.3962
  513PEP     CB16820   0.917  13.960  19.638  0.2143 -0.0451  0.0518
  513PEP     CB16821   1.390  13.969  19.792 -0.2850  0.0738  0.2966
  513PEP     CB16822   1.794  13.936  19.517 -0.0978  0.3100  0.0325
  513PEP     CB16823   1.770  13.824  19.030 -0.4038 -0.1873  0.5304
  513PEP     CB16824   1.352  13.728  18.881 -0.1511  0.1932  0.0965
  513PEP     CB16825   1.100  13.403  18.834  0.3979  0.3112  0.1349
  513PEP     CB16826   0.770  13.119  18.957 -0.0659 -0.1932  0.2585
  513PEP     CB16827   0.543  13.066  19.383  0.2141  0.3364  0.0305
  513PEP     CB16828   0.588  13.302  19.812  0.1389 -0.3838 -0.1350
  513PEP     CB16829   0.983  13.297  20.175  0.2177  0.1715  0.0037
  513PEP     CB16830   1.364  13.569  20.199 -0.3222  0.3182  0.0897
  513PEP     CB16831   1.716  13.869  20.161  0.4759 -0.1490 -0.3200
  513PEP     CB16832   1.886  14.247  19.984 -0.0660 -0.3403  0.1865
  513PEP     CB16833   2.110  14.355  19.591  0.0791 -0.0336 -0.2632
  513PEP     CB16834   2.171  14.613  19.180 -0.2406 -0.0739 -0.1626
  513PEP     CB16835   2.275  14.946  18.909  0.0339 -0.0632  0.2561
  513PEP     CB16836   2.379  15.268  18.601 -0.1380 -0.2080  0.1998
  513PEP     CB16837   2.520  15.434  18.265  0.1698 -0.0766 -0.3801
  513PEP     CB16838   2.520  15.573  17.822  0.1133 -0.1112 -0.0395
  513PEP     CB16839   2.450  15.744  17.383 -0.1376 -0.1307  0.3369
  513PEP     CB16840   2.197  16.094  17.170  0.0432 -0.1774  0.0254
  514PEP     CB16841   1.451   9.147  18.880  0.0174  0.1383  0.0158
  514PEP     CB16842   1.550   9.506  19.248 -0.0708  0.1203  0.2160
  514PEP     CB16843   1.555   9.940  19.368 -0.2171  0.5555 -0.3307
  514PEP     CB16844   1.210  10.230  19.261 -0.0891 -0.0598 -0.1047
  514PEP     CB16845   0.775  10.223  19.214  0.1489  0.2852 -0.3021
  514PEP     CB16846   0.327  10.339  19.505  0.1180 -0.1190  0.0240
  514PEP     CB16847  -0.066  10.702  19.584  0.1864 -0.4004  0.2201
  514PEP     CB16848  -0.181  11.009  19.309 -0.0135 -0.0015 -0.1743
  514PEP     CB16849   0.047  11.240  18.942  0.2086 -0.1255 -0.1289
  514PEP     CB16850   0.536  11.214  18.860  0.0276  0.0901  0.0318
  514PEP     CB16851   0.878  11.134  18.548 -0.1320  0.4042  0.3575
  514PEP     CB16852   0.885  11.056  18.122  0.0604 -0.1487  0.1047
  514PEP     CB16853   1.041  11.118  17.693  0.1572 -0.1654 -0.0171
  514PEP     CB16854   1.301  11.090  17.300  0.3575 -0.0899  0.2598
  514PEP     CB16855   1.451  10.891  16.847  0.1988 -0.0098 -0.3737
  514PEP     CB16856   1.341  10.825  16.446 -0.2370  0.1646  0.4223
  514PEP     CB16857   1.391  10.561  16.100 -0.0081 -0.1366 -0.0962
  514PEP     CB16858   1.444  10.448  15.695  0.5432  0.4019  0.1346
  514PEP     CB16859   1.412  10.469  15.307  0.0909  0.6564 -0.0130
  514PEP     CB16860   1.505  10.528  14.891  0.1052  0.0935 -0.5230
  514PEP     CB16861   1.652  10.820  14.570  0.2918 -0.0394 -0.1777
  514PEP     CB16862   1.824  10.823  14.107  0.0139  0.2167 -0.4422
  514PEP     CB16863   2.162  10.873  13.912 -0.4082  0.2103  0.3798
  514PEP     CB16864   2.413  10.744  13.648 -0.1075 -0.3055  0.1175
  514PEP     CB16865   2.539  10.559  13.322  0.1844  0.3067  0.0396
  514PEP     CB16866   2.565  10.150  13.297  0.0843  0.0085 -0.2753
  514PEP     CB16867   2.257   9.894  13.447  0.6404 -0.1252 -0.1393
  514PEP     CB16868   1.889   9.904  13.737 -0.4041  0.1168 -0.0963
  514PEP     CB16869   1.564   9.770  13.608  0.2817 -0.0887  0.3492
  514PEP     CB16870   1.347   9.879  13.218  0.1280  0.1013 -0.2447
  514PEP     CB16871   1.276   9.752  12.818 -0.1299 -0.3981  0.2264
  514PEP     CB16872   1.349   9.439  12.424  0.0361  0.3176  0.0932
  514PEP     CB16873   1.595   9.110  12.354 -0.0623  0.2350  0.2841
  514PEP     CB16874   1.897   8.877  12.568 -0.0504  0.0965  0.0586
  514PEP     CB16875   2.324   8.648  12.768  0.5734  0.0588  0.1965
  514PEP     CB16876   2.688   8.402  12.876 -0.3971 -0.0534 -0.0748
  514PEP     CB16877   2.909   8.143  13.186 -0.3063  0.1678  0.2641
  514PEP     CB16878   3.002   7.862  13.506  0.1675 -0.0528  0.2081
  514PEP     CB16879   3.355   7.786  13.751 -0.0514 -0.0918  0.0214
  514PEP     CB16880   3.562   7.514  14.111 -0.1303  0.2422 -0.0149
  515PEP     CB16881  15.811  19.954  14.912 -0.1821 -0.5167  0.2977
  515PEP     CB16882  15.958  20.146  15.284 -0.0135  0.0527 -0.0071
  515PEP     CB16883  16.203  20.491  15.374  0.1190 -0.0094  0.0474
  515PEP     CB16884  16.312  20.735  15.105 -0.1599 -0.0691  0.0427
  515PEP     CB16885  16.457  20.741  14.653 -0.4483 -0.0603  0.2444
  515PEP     CB16886  16.490  21.055  14.195 -0.4229  0.0027 -0.2681
  515PEP     CB16887  16.821  21.397  14.159 -0.1339  0.0446 -0.1266
  515PEP     CB16888  17.184  21.403  14.192 -0.3775 -0.1079  0.5115
  515PEP     CB16889  17.494  21.108  14.327 -0.1484 -0.1172 -0.3042
  515PEP     CB16890  17.771  20.802  14.388  0.1871  0.1435  0.1806
  515PEP     CB16891  18.238  20.604  14.437  0.0008  0.4506 -0.0766
  515PEP     CB16892  18.627  20.417  14.329  0.3735 -0.1268 -0.6014
  515PEP     CB16893  19.035  20.573  14.269  0.3698  0.2662 -0.0388
  515PEP     CB16894  19.316  20.850  14.292  0.0679  0.1455  0.1491
  515PEP     CB16895  19.537  21.043  14.535  0.2640  0.0034 -0.3691
  515PEP     CB16896  19.776  21.042  14.957 -0.0010 -0.1657  0.0965
  515PEP     CB16897  20.148  21.076  15.104 -0.4205 -0.2082 -0.3834
  515PEP     CB16898  20.534  20.852  15.245 -0.2975  0.2181 -0.1798
  515PEP     CB16899  20.863  20.823  15.091 -0.1780  0.2658  0.2748
  515PEP     CB16900  21.114  21.132  15.048 -0.0361  0.0382 -0.0535
  515PEP     CB16901  21.147  21.443  14.757  0.6118  0.0818 -0.1995
  515PEP     CB16902  21.277  21.779  14.594  0.1194  0.1110 -0.0574
  515PEP     CB16903  20.984  22.019  14.242  0.1826 -0.0386 -0.2962
  515PEP     CB16904  20.527  22.011  14.299  0.0071 -0.0179  0.4311
  515PEP     CB16905  20.235  21.654  14.390  0.3652  0.3580  0.0517
  515PEP     CB16906  20.062  21.398  14.727  0.0730 -0.4265  0.1585
  515PEP     CB16907  19.975  21.511  15.208  0.1351 -0.2893  0.4814
  515PEP     CB16908  20.003  22.010  15.297 -0.6640  0.1517 -0.2402
  515PEP     CB16909  20.186  22.285  14.998 -0.3669 -0.0900  0.1531
  515PEP     CB16910  20.065  22.377  14.572 -0.1299  0.1470  0.4693
  515PEP     CB16911  19.780  22.500  14.284  0.1652 -0.1605  0.1372
  515PEP     CB16912  19.684  22.880  14.125  0.2782  0.2152  0.0379
  515PEP     CB16913  19.407  23.140  13.964  0.1708  0.1202 -0.4724
  515PEP     CB16914  18.986  23.194  14.154 -0.1250 -0.1679  0.4027
  515PEP     CB16915  18.566  23.344  13.985  0.4390  0.4070  0.0268
  515PEP     CB16916  18.581  23.632  13.627 -0.2789  0.0072  0.0482
  515PEP     CB16917  18.774  23.776  13.290 -0.1154  0.2519 -0.1430
  515PEP     CB16918  18.848  24.147  13.062  0.1667 -0.5955  0.1951
  515PEP     CB16919  18.833  24.403  12.703 -0.0413 -0.1426 -0.1162
  515PEP     CB16920  18.838  24.412  12.328 -0.1895  0.0056 -0.2026
  516PEP     CB16921   9.139  18.314   1.233  0.5116  0.4341  0.3295
  516PEP     CB16922   8.875  18.806   1.167 -0.0592 -0.1860 -0.0952
  516PEP     CB16923   8.492  19.002   0.865  0.3427 -0.2716  0.1893
  516PEP     CB16924   8.421  18.960   0.487  0.0920  0.0226 -0.2424
  516PEP     CB16925   8.617  18.847   0.102  0.2767  0.1146 -0.2365
  516PEP     CB16926   9.004  18.757  -0.142  0.1583 -0.0096 -0.2543
  516PEP     CB16927   9.398  18.813  -0.143 -0.2725 -0.0343 -0.1071
  516PEP     CB16928   9.757  18.917  -0.025 -0.0056 -0.0263 -0.0852
  516PEP     CB16929  10.014  19.120   0.297 -0.0955  0.0466 -0.0359
  516PEP     CB16930  10.048  18.857   0.715 -0.0176 -0.2971  0.0470
  516PEP     CB16931   9.805  18.585   0.905  0.0496  0.4843  0.0675
  516PEP     CB16932   9.655  18.189   1.143  0.1839  0.1724 -0.2297
  516PEP     CB16933   9.354  17.841   1.165 -0.0143 -0.3296 -0.0576
  516PEP     CB16934   9.365  17.433   1.212  0.0148  0.0813 -0.0480
  516PEP     CB16935   9.486  17.078   1.036 -0.0405 -0.0820 -0.3835
  516PEP     CB16936   9.490  16.809   0.761 -0.0913  0.0958 -0.0636
  516PEP     CB16937   9.764  16.623   0.310  0.0088  0.1311 -0.0823
  516PEP     CB16938   9.904  16.451  -0.031 -0.3369  0.2875  0.2693
  516PEP     CB16939   9.926  16.244  -0.447  0.1034 -0.0705 -0.1133
  516PEP     CB16940  10.025  15.881  -0.698 -0.1635 -0.1853 -0.0092
  516PEP     CB16941  10.217  15.423  -0.750  0.1123  0.1452  0.1230
  516PEP     CB16942  10.382  15.030  -0.838  0.4084  0.1554  0.0099
  516PEP     CB16943  10.777  15.007  -1.180 -0.3552 -0.1383 -0.2720
  516PEP     CB16944  11.130  15.226  -1.234 -0.1871 -0.3511 -0.1176
  516PEP     CB16945  11.230  15.587  -1.140  0.1954 -0.2575  0.3885
  516PEP     CB16946  11.026  15.825  -0.788 -0.4348 -0.2071  0.2847
  516PEP     CB16947  10.977  15.830  -0.350 -0.0617  0.2310 -0.1072
  516PEP     CB16948  11.195  15.914   0.175  0.0739  0.3783  0.0287
  516PEP     CB16949  11.048  16.294   0.413 -0.3645 -0.1272 -0.2124
  516PEP     CB16950  10.938  16.636   0.083 -0.1890  0.2799 -0.1065
  516PEP     CB16951  10.747  16.506  -0.371 -0.2721 -0.2127  0.2796
  516PEP     CB16952  10.442  16.139  -0.407 -0.1734 -0.3495  0.0469
  516PEP     CB16953  10.437  15.779  -0.322  0.3317 -0.0142  0.0368
  516PEP     CB16954  10.656  15.464  -0.610  0.0719 -0.0456 -0.0708
  516PEP     CB16955  10.608  15.515  -1.136  0.0751  0.3819 -0.2756
  516PEP     CB16956  10.563  15.936  -1.363 -0.0079 -0.1253 -0.0581
  516PEP     CB16957  10.701  16.417  -1.240 -0.1982 -0.1678  0.2107
  516PEP     CB16958  10.693  16.824  -0.954  0.0985  0.3050  0.3072
  516PEP     CB16959  10.565  17.168  -0.822  0.3556 -0.2276 -0.4588
  516PEP     CB16960  10.326  17.519  -0.705 -0.0756  0.1070 -0.1699
  517PEP     CB16961   0.688  13.080  13.166 -0.1586 -0.1247  0.3523
  517PEP     CB16962   0.621  12.699  13.312 -0.4262  0.0919  0.1760
  517PEP     CB16963   0.475  12.284  13.341 -0.2667  0.1172  0.0126
  517PEP     CB16964   0.349  11.824  13.422 -0.0737  0.0744 -0.2891
  517PEP     CB16965  -0.004  11.567  13.125  0.0239  0.2398  0.0742
  517PEP     CB16966  -0.275  11.563  12.846  0.0569 -0.1780  0.1821
  517PEP     CB16967  -0.710  11.739  12.917 -0.0019  0.1680 -0.0158
  517PEP     CB16968  -0.992  12.085  12.883 -0.0807  0.0199 -0.2951
  517PEP     CB16969  -0.937  12.439  12.555  0.3387 -0.2672 -0.1071
  517PEP     CB16970  -0.655  12.686  12.267 -0.3225  0.1405  0.2289
  517PEP     CB16971  -0.526  13.030  12.133  0.4841  0.1369 -0.0124
  517PEP     CB16972  -0.233  13.361  12.172  0.1354 -0.0850  0.2443
  517PEP     CB16973  -0.247  13.838  12.028  0.1105  0.1608 -0.2295
  517PEP     CB16974  -0.503  13.949  11.652 -0.1035 -0.2972  0.0161
  517PEP     CB16975  -0.403  13.837  11.205 -0.1688  0.0341  0.2567
  517PEP     CB16976  -0.332  13.721  10.673 -0.2559  0.4890  0.1534
  517PEP     CB16977  -0.211  13.392  10.578 -0.2353 -0.3436  0.0026
  517PEP     CB16978   0.176  13.132  10.771 -0.1875  0.2220 -0.1474
  517PEP     CB16979   0.588  13.246  10.867  0.3269 -0.1277  0.0967
  517PEP     CB16980   0.989  13.436  10.963  0.2189 -0.1144  0.0807
  517PEP     CB16981   1.279  13.117  10.873  0.1298 -0.3101 -0.2328
  517PEP     CB16982   1.237  12.779  10.798 -0.1305 -0.2017 -0.1719
  517PEP     CB16983   1.518  12.398  10.876 -0.0048 -0.0814  0.3300
  517PEP     CB16984   1.909  12.447  10.971 -0.1539 -0.3680  0.2105
  517PEP     CB16985   2.068  12.736  11.277 -0.0380 -0.3940 -0.1150
  517PEP     CB16986   1.972  13.150  11.353  0.1947  0.0628 -0.5255
  517PEP     CB16987   1.689  13.445  11.193  0.0307 -0.0518 -0.2750
  517PEP     CB16988   1.633  13.872  11.436  0.0752  0.4616 -0.1209
  517PEP     CB16989   1.879  14.062  11.718 -0.0718  0.3254  0.3016
  517PEP     CB16990   2.293  13.895  11.878 -0.1241  0.0279  0.0389
  517PEP     CB16991   2.415  13.531  12.109 -0.0802  0.1463  0.2566
  517PEP     CB16992   2.726  13.153  12.054  0.3030  0.1286 -0.1219
  517PEP     CB16993   3.076  12.992  11.909  0.3991  0.0965  0.2343
  517PEP     CB16994   3.499  12.883  12.011  0.2639  0.1271 -0.0975
  517PEP     CB16995   3.860  12.871  12.235 -0.2451 -0.0156 -0.1484
  517PEP     CB16996   3.991  12.896  12.690 -0.2456  0.0119  0.0984
  517PEP     CB16997   3.861  12.853  13.143 -0.0239 -0.1903  0.0818
  517PEP     CB16998   3.505  12.753  13.459  0.1824 -0.3160  0.1263
  517PEP     CB16999   3.407  12.464  13.739  0.3343  0.3727  0.0004
  517PEP     CB17000   3.414  12.316  14.174 -0.0729 -0.3017 -0.0899
  518PEP     CB17001  13.510  20.755  11.790 -0.1302 -0.4222 -0.0356
  518PEP     CB17002  13.720  20.437  11.402 -0.0087 -0.1462 -0.2774
  518PEP     CB17003  13.961  20.654  11.040 -0.2217 -0.0924 -0.2096
  518PEP     CB17004  13.815  20.924  10.639  0.0365  0.1248  0.0004
  518PEP     CB17005  13.670  20.915  10.268  0.3825 -0.1544  0.0436
  518PEP     CB17006  13.325  20.969   9.964  0.5258  0.0796  0.4130
  518PEP     CB17007  12.898  21.123  10.081 -0.0044 -0.1277  0.3728
  518PEP     CB17008  12.736  21.366  10.433  0.1434  0.0260 -0.1155
  518PEP     CB17009  12.594  21.347  10.882  0.0528  0.0589  0.1924
  518PEP     CB17010  12.394  21.000  11.046 -0.0643  0.1768  0.3450
  518PEP     CB17011  12.331  20.596  10.799  0.0930 -0.3045 -0.0029
  518PEP     CB17012  12.640  20.383  10.490 -0.1141 -0.0791 -0.0474
  518PEP     CB17013  13.030  20.199  10.617  0.1358  0.2827  0.1582
  518PEP     CB17014  13.183  19.896  10.940  0.5667 -0.2215  0.0127
  518PEP     CB17015  13.145  19.530  11.188 -0.1249  0.1487 -0.0181
  518PEP     CB17016  13.262  19.320  11.575  0.0141  0.7105  0.0221
  518PEP     CB17017  13.443  19.087  11.950 -0.4019 -0.1013 -0.0752
  518PEP     CB17018  13.672  19.254  12.311  0.1143  0.4146 -0.0994
  518PEP     CB17019  13.869  19.564  12.490  0.2511  0.4029 -0.0028
  518PEP     CB17020  14.037  19.958  12.338  0.2867  0.0427  0.0053
  518PEP     CB17021  14.445  20.015  12.109 -0.1883 -0.3407 -0.0485
  518PEP     CB17022  14.688  19.800  11.758 -0.1337  0.0468 -0.2863
  518PEP     CB17023  14.862  19.381  11.744  0.2112  0.7395  0.0022
  518PEP     CB17024  14.914  19.058  11.979  0.1860 -0.0564 -0.0587
  518PEP     CB17025  14.697  18.847  12.281  0.5383  0.1035  0.0609
  518PEP     CB17026  14.651  18.453  12.555  0.0540 -0.1405  0.0818
  518PEP     CB17027  14.693  18.043  12.797  0.1426 -0.0675  0.0549
  518PEP     CB17028  14.807  17.590  12.785 -0.3145 -0.2729  0.0876
  518PEP     CB17029  14.679  17.210  12.749  0.2111 -0.3544  0.1592
  518PEP     CB17030  14.704  16.989  12.367  0.0289 -0.0536 -0.2006
  518PEP     CB17031  14.716  17.140  11.885  0.4004  0.0282 -0.0672
  518PEP     CB17032  15.020  17.341  11.634  0.8013  0.0934 -0.2824
  518PEP     CB17033  15.229  17.637  11.351 -0.1263 -0.0833  0.2995
  518PEP     CB17034  15.405  17.633  10.962  0.0381  0.0753 -0.1316
  518PEP     CB17035  15.467  17.359  10.818 -0.0707 -0.0031 -0.1031
  518PEP     CB17036  15.445  17.000  10.614 -0.3926  0.0603 -0.1661
  518PEP     CB17037  15.555  16.588  10.528  0.0345 -0.0284  0.0447
  518PEP     CB17038  15.321  16.215  10.602  0.0383 -0.4710 -0.1697
  518PEP     CB17039  15.183  15.838  10.723  0.0069  0.1238 -0.0277
  518PEP     CB17040  15.102  15.416  10.706  0.3699 -0.0185  0.0046
  519PEP     CB17041   3.624  21.181   9.990  0.0112 -0.1717  0.4559
  519PEP     CB17042   3.758  20.860   9.688 -0.0823  0.1288 -0.1616
  519PEP     CB17043   3.929  20.906   9.245 -0.1531  0.1005 -0.1341
  519PEP     CB17044   3.990  21.068   8.836 -0.0224  0.1946  0.0517
  519PEP     CB17045   3.912  21.183   8.361 -0.0748 -0.4070  0.2318
  519PEP     CB17046   4.268  21.131   8.149 -0.2697 -0.1579 -0.0695
  519PEP     CB17047   4.642  20.815   8.332 -0.2619  0.0491  0.5086
  519PEP     CB17048   4.514  20.599   8.657 -0.0752 -0.4066 -0.1603
  519PEP     CB17049   4.087  20.614   8.802  0.1677  0.0671 -0.5197
  519PEP     CB17050   3.804  20.509   9.044 -0.3056  0.0887  0.5185
  519PEP     CB17051   3.701  20.397   9.491  0.0775  0.0844 -0.1644
  519PEP     CB17052   3.406  20.158   9.776  0.3810 -0.1183 -0.0970
  519PEP     CB17053   3.034  19.834   9.844 -0.1190  0.1001  0.0309
  519PEP     CB17054   2.625  19.727   9.854  0.3449 -0.1503 -0.1324
  519PEP     CB17055   2.316  19.387   9.753 -0.0525  0.0068 -0.0483
  519PEP     CB17056   2.392  18.950   9.685 -0.1032 -0.1476  0.0998
  519PEP     CB17057   2.369  18.581   9.417  0.0819 -0.0727  0.1115
  519PEP     CB17058   2.036  18.392   9.175  0.0173  0.0752 -0.2364
  519PEP     CB17059   1.731  18.701   9.107  0.1469 -0.1560  0.3100
  519PEP     CB17060   1.794  19.096   9.294  0.1836 -0.0000 -0.3873
  519PEP     CB17061   2.011  19.520   9.392 -0.0264  0.1529 -0.0966
  519PEP     CB17062   2.294  19.941   9.452  0.2767  0.0311 -0.1067
  519PEP     CB17063   2.223  20.424   9.659  0.4136  0.0102  0.0857
  519PEP     CB17064   2.198  20.659   9.990  0.0505  0.1375 -0.0913
  519PEP     CB17065   2.192  20.823  10.401  0.0561 -0.3055  0.1071
  519PEP     CB17066   2.386  20.822  10.884  0.0032  0.0168  0.0976
  519PEP     CB17067   2.542  20.592  11.274  0.4001  0.2127  0.1801
  519PEP     CB17068   2.539  20.389  11.622  0.2525  0.0194  0.1596
  519PEP     CB17069   2.714  20.339  12.075 -0.0359  0.0487 -0.1343
  519PEP     CB17070   2.910  20.070  12.258 -0.3742 -0.1367  0.3432
  519PEP     CB17071   3.179  19.721  12.278 -0.3744  0.2030  0.1480
  519PEP     CB17072   3.601  19.639  12.353 -0.1728 -0.2290 -0.1653
  519PEP     CB17073   3.922  19.889  12.593  0.3099  0.5456  0.2370
  519PEP     CB17074   3.816  20.206  12.860  0.1954  0.1108 -0.2527
  519PEP     CB17075   3.494  20.503  12.966  0.0938 -0.0688 -0.0327
  519PEP     CB17076   3.112  20.475  12.955 -0.0371  0.0861  0.0716
  519PEP     CB17077   2.896  20.391  13.404 -0.1135 -0.1101  0.2420
  519PEP     CB17078   2.917  20.033  13.629 -0.1711 -0.1508  0.1976
  519PEP     CB17079   3.073  19.601  13.502 -0.1909  0.3833  0.2781
  519PEP     CB17080   3.111  19.370  13.126  0.5329 -0.3502  0.0288
  520PEP     CB17081  14.993  16.562  19.186  0.0838  0.0158 -0.0992
  520PEP     CB17082  15.233  16.808  19.487 -0.0107 -0.3156  0.0318
  520PEP     CB17083  15.409  17.047  19.792  0.1888  0.0972 -0.0090
  520PEP     CB17084  15.393  17.018  20.234  0.3068 -0.2786 -0.0066
  520PEP     CB17085  15.295  16.821  20.536  0.4000  0.0398 -0.2326
  520PEP     CB17086  15.364  16.350  20.689  0.1281 -0.3758  0.4099
  520PEP     CB17087  15.430  15.962  20.558 -0.2618  0.1940 -0.4017
  520PEP     CB17088  15.731  15.721  20.331  0.2040 -0.3031  0.3729
  520PEP     CB17089  16.144  15.589  20.397  0.0007  0.0592  0.0636
  520PEP     CB17090  16.493  15.470  20.450 -0.2127  0.0883  0.0032
  520PEP     CB17091  16.819  15.153  20.310  0.0700 -0.0564 -0.5238
  520PEP     CB17092  17.277  15.064  20.237 -0.0183  0.0702 -0.0538
  520PEP     CB17093  17.641  14.893  20.175 -0.3566  0.4543 -0.1232
  520PEP     CB17094  17.998  14.911  19.901  0.0153  0.1943  0.2538
  520PEP     CB17095  18.083  14.874  19.415 -0.0203  0.0708  0.0563
  520PEP     CB17096  18.194  14.717  19.028  0.1053  0.1605 -0.3100
  520PEP     CB17097  18.087  14.360  18.661  0.0156 -0.0257  0.3237
  520PEP     CB17098  17.807  14.134  18.561 -0.2522 -0.1103 -0.3936
  520PEP     CB17099  17.417  13.902  18.599 -0.0146 -0.1020 -0.2874
  520PEP     CB17100  17.142  13.819  19.040 -0.3848  0.0528 -0.3174
  520PEP     CB17101  17.297  13.615  19.418  0.1470 -0.0585  0.0597
  520PEP     CB17102  17.295  13.446  19.797  0.2517  0.1573 -0.0906
  520PEP     CB17103  17.421  13.229  20.220 -0.3096 -0.0074 -0.3039
  520PEP     CB17104  17.399  12.869  20.522 -0.4102  0.1717 -0.2863
  520PEP     CB17105  17.216  12.483  20.484 -0.1925  0.0900 -0.3043
  520PEP     CB17106  16.925  12.236  20.173 -0.1983 -0.0637  0.2174
  520PEP     CB17107  16.468  12.159  20.098  0.3623 -0.0588 -0.4150
  520PEP     CB17108  16.268  12.089  19.694 -0.2545  0.1497  0.0677
  520PEP     CB17109  16.538  12.033  19.286  0.0665  0.1623  0.5489
  520PEP     CB17110  16.878  12.108  19.113 -0.1694 -0.4054 -0.1302
  520PEP     CB17111  17.255  12.103  19.043  0.0440 -0.1354 -0.2041
  520PEP     CB17112  17.649  12.056  19.228 -0.1688 -0.2766 -0.4566
  520PEP     CB17113  18.093  11.999  19.419 -0.3987 -0.1486 -0.1009
  520PEP     CB17114  18.426  11.804  19.678 -0.1809 -0.2318 -0.2298
  520PEP     CB17115  18.501  11.538  20.083  0.0282 -0.0376  0.2772
  520PEP     CB17116  18.763  11.262  20.331  0.1637  0.2147 -0.2235
  520PEP     CB17117  18.827  10.861  20.596  0.0993  0.0610 -0.3538
  520PEP     CB17118  18.652  10.587  20.431 -0.3338 -0.3559 -0.1241
  520PEP     CB17119  18.547  10.639  20.050 -0.0362 -0.4157 -0.1968
  520PEP     CB17120  18.747  10.951  19.804  0.4151 -0.2457  0.3324
  521PEP     CB17121   1.973  10.402  19.588 -0.2643  0.2709  0.1230
  521PEP     CB17122   2.128  10.354  19.959  0.3141  0.0733 -0.0635
  521PEP     CB17123   2.311  10.569  20.314  0.2862 -0.0673 -0.0882
  521PEP     CB17124   2.402  10.882  20.451 -0.1952  0.0858  0.1596
  521PEP     CB17125   2.761  11.181  20.506  0.1074 -0.0079 -0.4787
  521PEP     CB17126   2.970  11.382  20.734 -0.0426 -0.0962  0.0257
  521PEP     CB17127   3.047  11.754  20.878  0.0416 -0.0925 -0.1711
  521PEP     CB17128   3.067  11.979  21.257  0.5125  0.1912  0.1180
  521PEP     CB17129   3.371  12.108  21.572  0.1523  0.1532  0.0064
  521PEP     CB17130   3.774  12.005  21.709 -0.0503  0.1458  0.3249
  521PEP     CB17131   4.124  11.776  21.514 -0.2487  0.1152  0.0363
  521PEP     CB17132   4.514  11.661  21.350 -0.3205 -0.0390 -0.1221
  521PEP     CB17133   4.743  11.387  21.373  0.5038  0.0032  0.3790
  521PEP     CB17134   5.210  11.412  21.382 -0.1518  0.1564 -0.3225
  521PEP     CB17135   5.508  11.456  21.680  0.3148  0.0626  0.0755
  521PEP     CB17136   5.714  11.780  21.879  0.0378 -0.1477  0.1117
  521PEP     CB17137   5.762  12.024  22.202  0.0535 -0.2138  0.0638
  521PEP     CB17138   5.830  12.298  22.591  0.0041 -0.0915 -0.4966
  521PEP     CB17139   6.124  12.679  22.519 -0.1869  0.1148 -0.0408
  521PEP     CB17140   6.239  12.858  22.090  0.1321  0.2424 -0.2442
  521PEP     CB17141   5.830  12.978  21.848 -0.1291 -0.2474  0.3682
  521PEP     CB17142   5.772  13.425  21.962 -0.1062  0.0878 -0.1270
  521PEP     CB17143   5.569  13.667  22.264  0.1073  0.0721  0.1486
  521PEP     CB17144   5.588  13.754  22.746 -0.0576 -0.0832 -0.1225
  521PEP     CB17145   5.536  13.756  23.197 -0.3597  0.1104 -0.0073
  521PEP     CB17146   5.309  13.722  23.528 -0.1985  0.1661  0.3476
  521PEP     CB17147   4.927  13.804  23.818 -0.2183 -0.6047  0.1894
  521PEP     CB17148   4.529  13.960  24.061 -0.2608  0.3472  0.2644
  521PEP     CB17149   4.275  13.904  24.346 -0.0197 -0.3310  0.0002
  521PEP     CB17150   3.981  13.782  24.662 -0.1065  0.0869  0.3608
  521PEP     CB17151   3.550  13.763  24.752  0.1289 -0.1989 -0.0994
  521PEP     CB17152   3.227  13.499  24.630  0.6343  0.0331 -0.0204
  521PEP     CB17153   2.943  13.131  24.616  0.2641 -0.0358 -0.1477
  521PEP     CB17154   2.792  12.623  24.573 -0.2018 -0.1781  0.3340
  521PEP     CB17155   2.458  12.462  24.407 -0.0348  0.2796 -0.4769
  521PEP     CB17156   2.076  12.503  24.298  0.0472  0.0734 -0.0103
  521PEP     CB17157   1.728  12.657  24.093  0.0185 -0.0130 -0.1831
  521PEP     CB17158   1.274  12.704  24.112  0.0649 -0.5429 -0.5165
  521PEP     CB17159   0.795  12.753  23.993 -0.2835  0.0061 -0.0465
  521PEP     CB17160   0.394  12.771  23.913  0.1409 -0.1288  0.2274
  522PEP     CB17161  18.637   3.035   5.801 -0.2473  0.3186 -0.1501
  522PEP     CB17162  18.354   3.451   5.891 -0.3491  0.1692 -0.1740
  522PEP     CB17163  18.516   3.598   6.313 -0.1941 -0.0327 -0.0909
  522PEP     CB17164  18.883   3.515   6.563  0.1298 -0.0661  0.2425
  522PEP     CB17165  19.115   3.832   6.788  0.1276  0.0865  0.0159
  522PEP     CB17166  18.848   4.109   6.870  0.0300  0.2936  0.0811
  522PEP     CB17167  18.452   3.994   6.639 -0.0256 -0.4175 -0.1137
  522PEP     CB17168  18.289   3.582   6.744 -0.2383 -0.1106 -0.1735
  522PEP     CB17169  18.501   3.128   6.570 -0.3033  0.1311 -0.0421
  522PEP     CB17170  18.833   3.145   6.223  0.3293  0.1299 -0.0163
  522PEP     CB17171  18.920   3.486   6.078 -0.0604 -0.3307  0.0539
  522PEP     CB17172  18.738   3.765   5.899  0.0279  0.5748 -0.1829
  522PEP     CB17173  18.427   3.763   5.552  0.1780  0.1030 -0.1797
  522PEP     CB17174  17.963   3.726   5.409 -0.5203  0.0422 -0.1268
  522PEP     CB17175  17.614   3.375   5.264 -0.3002 -0.1781  0.2598
  522PEP     CB17176  17.387   3.057   4.991 -0.0311 -0.1816 -0.4921
  522PEP     CB17177  17.552   2.848   4.718  0.0372  0.3048  0.1116
  522PEP     CB17178  17.397   2.467   4.562 -0.0252 -0.3400 -0.2040
  522PEP     CB17179  17.372   1.967   4.692  0.0431  0.0187  0.0828
  522PEP     CB17180  17.468   1.789   5.058  0.5380 -0.1948  0.1166
  522PEP     CB17181  17.754   1.457   5.339 -0.0783  0.1198 -0.0482
  522PEP     CB17182  17.820   1.043   5.402  0.1994  0.0368 -0.1368
  522PEP     CB17183  17.808   0.722   5.649 -0.0977 -0.0667 -0.0248
  522PEP     CB17184  17.650   0.253   5.532  0.0558  0.0225 -0.3084
  522PEP     CB17185  17.630  -0.109   5.181  0.1179  0.0952 -0.3158
  522PEP     CB17186  18.040  -0.292   4.955 -0.2700  0.0121  0.3660
  522PEP     CB17187  18.479  -0.258   5.014  0.0645  0.2231 -0.1367
  522PEP     CB17188  18.802  -0.361   5.390  0.1486 -0.4354  0.2543
  522PEP     CB17189  19.036  -0.152   5.708  0.1908 -0.1736 -0.3161
  522PEP     CB17190  19.207   0.205   5.903  0.2209  0.5177  0.5177
  522PEP     CB17191  19.321   0.608   5.873 -0.1817 -0.3841  0.0021
  522PEP     CB17192  19.511   1.105   5.812 -0.0633 -0.0847 -0.0347
  522PEP     CB17193  19.674   1.545   5.846 -0.1173 -0.0181 -0.3621
  522PEP     CB17194  20.022   1.865   5.812  0.1041  0.4025 -0.1663
  522PEP     CB17195  20.136   2.392   5.807  0.2534  0.1385 -0.1280
  522PEP     CB17196  20.069   2.807   5.856 -0.0504 -0.4891 -0.0739
  522PEP     CB17197  19.882   3.160   5.926 -0.1312 -0.4772  0.0126
  522PEP     CB17198  19.918   3.605   5.996 -0.0350  0.1385  0.3540
  522PEP     CB17199  20.041   3.851   6.325 -0.3858  0.0028 -0.0483
  522PEP     CB17200  20.312   4.168   6.488  0.0792 -0.0962 -0.0824
  523PEP     CB17201   5.428   7.289   3.802 -0.3059  0.1442 -0.2483
  523PEP     CB17202   5.167   7.691   3.667  0.0674  0.2194 -0.1221
  523PEP     CB17203   4.870   7.882   3.368  0.3123 -0.1629  0.0585
  523PEP     CB17204   4.677   8.071   3.037 -0.0139 -0.4000 -0.1270
  523PEP     CB17205   4.417   8.279   2.752  0.1657  0.0933 -0.0611
  523PEP     CB17206   4.131   8.395   2.413  0.0995  0.4261 -0.0027
  523PEP     CB17207   4.174   8.441   1.929 -0.3070  0.5634 -0.1219
  523PEP     CB17208   4.203   8.342   1.498  0.1005 -0.2234 -0.2199
  523PEP     CB17209   4.222   8.260   1.090  0.5149 -0.0285 -0.1645
  523PEP     CB17210   4.154   8.060   0.713  0.0055  0.1881  0.0276
  523PEP     CB17211   4.086   7.656   0.603  0.2004  0.2396 -0.1419
  523PEP     CB17212   4.161   7.238   0.758 -0.0098  0.2580  0.1675
  523PEP     CB17213   4.183   7.205   1.222 -0.3872  0.1163 -0.3307
  523PEP     CB17214   4.123   7.107   1.498  0.3048 -0.1876  0.5202
  523PEP     CB17215   3.868   7.236   1.985  0.0846  0.0624 -0.7448
  523PEP     CB17216   3.679   7.533   2.306 -0.4788  0.0968 -0.1416
  523PEP     CB17217   3.479   7.928   2.458 -0.2675  0.0195 -0.1374
  523PEP     CB17218   3.273   8.239   2.671 -0.0616 -0.0192 -0.1675
  523PEP     CB17219   3.111   8.632   2.757 -0.0359 -0.0962 -0.1915
  523PEP     CB17220   2.940   8.992   2.547  0.2110  0.0931  0.2781
  523PEP     CB17221   2.560   9.346   2.618  0.0534  0.2689  0.0314
  523PEP     CB17222   2.565   9.600   2.392 -0.2844 -0.3961 -0.0517
  523PEP     CB17223   2.927   9.906   2.307  0.0668 -0.1087  0.1371
  523PEP     CB17224   3.389   9.896   2.259 -0.1832  0.2004  0.0371
  523PEP     CB17225   3.776  10.006   2.391 -0.0643  0.0133 -0.1841
  523PEP     CB17226   4.224  10.133   2.437  0.1402 -0.1494  0.4909
  523PEP     CB17227   4.614   9.982   2.308  0.0371 -0.4384  0.0998
  523PEP     CB17228   4.947   9.771   2.130  0.1252 -0.2757 -0.1451
  523PEP     CB17229   5.264   9.767   1.857  0.0620  0.2219  0.4539
  523PEP     CB17230   5.291  10.060   1.579  0.1879 -0.0636  0.3616
  523PEP     CB17231   5.432  10.302   1.302 -0.0780 -0.0606 -0.2868
  523PEP     CB17232   5.517  10.710   1.062 -0.3938 -0.3531 -0.0838
  523PEP     CB17233   5.652  11.129   1.031 -0.3998  0.2159 -0.1485
  523PEP     CB17234   5.796  11.520   1.183 -0.1300  0.1962  0.0031
  523PEP     CB17235   6.046  11.672   1.514  0.3271 -0.3357 -0.1954
  523PEP     CB17236   6.234  11.514   1.896 -0.1349 -0.1008 -0.3737
  523PEP     CB17237   6.484  11.153   1.980  0.2485 -0.1935 -0.1883
  523PEP     CB17238   6.720  10.848   1.710  0.2691  0.1322 -0.3078
  523PEP     CB17239   6.992  10.727   1.393  0.2387 -0.0312 -0.1078
  523PEP     CB17240   7.327  10.926   1.154  0.3861  0.2437 -0.1007
  524PEP     CB17241  16.303  17.876  13.873  0.1029 -0.0085 -0.3806
  524PEP     CB17242  15.986  17.679  13.673  0.2286 -0.0868 -0.3405
  524PEP     CB17243  15.572  17.622  13.428 -0.0758 -0.2380  0.1161
  524PEP     CB17244  15.191  17.524  13.662  0.1848  0.1446  0.6666
  524PEP     CB17245  15.127  17.738  13.999 -0.2287  0.1696  0.0821
  524PEP     CB17246  15.169  18.206  14.206  0.0276  0.2140  0.1022
  524PEP     CB17247  15.052  18.488  14.482 -0.0996  0.1435 -0.0544
  524PEP     CB17248  14.819  18.832  14.830 -0.2969 -0.0622  0.5756
  524PEP     CB17249  14.619  18.980  15.177  0.1419  0.4265  0.0975
  524PEP     CB17250  14.513  19.103  15.585 -0.0830  0.2236 -0.0262
  524PEP     CB17251  14.395  19.199  16.006  0.0319  0.3200  0.1661
  524PEP     CB17252  14.079  19.330  16.304  0.0143  0.0044 -0.3030
  524PEP     CB17253  13.777  19.617  16.565 -0.3778  0.0543 -0.0557
  524PEP     CB17254  13.482  19.739  16.883 -0.1305 -0.2783  0.1680
  524PEP     CB17255  13.036  19.765  17.091  0.0070  0.2714  0.0064
  524PEP     CB17256  12.545  19.929  17.101  0.1124 -0.0358  0.2583
  524PEP     CB17257  12.231  20.209  17.074  0.1754 -0.3016 -0.0017
  524PEP     CB17258  11.977  20.255  17.309  0.1845 -0.1262 -0.1330
  524PEP     CB17259  11.833  20.646  17.531  0.5096  0.0870  0.4962
  524PEP     CB17260  11.836  20.664  18.011 -0.0925  0.1350 -0.0075
  524PEP     CB17261  12.258  20.649  18.246 -0.1011 -0.2214 -0.1467
  524PEP     CB17262  12.703  20.768  18.460  0.0233  0.1350 -0.1036
  524PEP     CB17263  12.804  21.174  18.653 -0.0949 -0.0361  0.1637
  524PEP     CB17264  12.399  21.448  18.828  0.1081  0.1851  0.2654
  524PEP     CB17265  11.844  21.277  18.893  0.2037 -0.0616 -0.0054
  524PEP     CB17266  11.379  21.354  18.761  0.0643  0.0781  0.2200
  524PEP     CB17267  10.961  21.141  18.446  0.2212  0.4002 -0.2019
  524PEP     CB17268  10.867  20.756  18.595 -0.0351 -0.1808  0.0613
  524PEP     CB17269  11.133  20.372  18.706 -0.1611  0.0457 -0.0821
  524PEP     CB17270  11.621  20.304  18.756  0.1020  0.1004 -0.1701
  524PEP     CB17271  11.843  20.393  19.172  0.1683  0.0120  0.3701
  524PEP     CB17272  12.139  20.401  19.487  0.0251  0.0727 -0.2811
  524PEP     CB17273  12.293  20.191  19.746 -0.2725 -0.2112 -0.0314
  524PEP     CB17274  12.323  19.895  20.060  0.1356  0.2522  0.1055
  524PEP     CB17275  12.263  19.516  20.261  0.2192  0.0792 -0.0034
  524PEP     CB17276  11.931  19.223  20.344 -0.0157 -0.1038  0.0676
  524PEP     CB17277  11.593  19.106  20.078  0.5928 -0.1961  0.0442
  524PEP     CB17278  11.539  19.230  19.641  0.3488  0.3110 -0.1128
  524PEP     CB17279  11.566  19.659  19.526  0.1764  0.1953 -0.1884
  524PEP     CB17280  11.903  19.960  19.468 -0.0347  0.0263 -0.2118
  525PEP     CB17281   1.781  19.055   1.225 -0.1228  0.0328 -0.0181
  525PEP     CB17282   1.960  18.825   0.792  0.1338  0.2045  0.3236
  525PEP     CB17283   1.863  18.543   0.498 -0.2745  0.1828  0.4581
  525PEP     CB17284   1.781  18.113   0.644 -0.2514 -0.3281 -0.2711
  525PEP     CB17285   1.924  18.057   1.120  0.0615 -0.3609 -0.0688
  525PEP     CB17286   1.881  18.331   1.492 -0.2146 -0.1546  0.0059
  525PEP     CB17287   2.069  18.462   1.869  0.6687  0.1741  0.0598
  525PEP     CB17288   2.464  18.667   1.882  0.0289  0.0057 -0.0311
  525PEP     CB17289   2.699  18.932   1.644  0.0418 -0.0459 -0.2940
  525PEP     CB17290   2.770  19.425   1.828  0.0556  0.0032 -0.2528
  525PEP     CB17291   2.767  19.516   2.276 -0.3198  0.4059  0.4645
  525PEP     CB17292   2.608  19.333   2.599  0.1906  0.2032  0.3246
  525PEP     CB17293   2.397  18.967   2.688 -0.3049  0.4022 -0.2905
  525PEP     CB17294   2.161  18.621   2.858  0.2273  0.0313 -0.0325
  525PEP     CB17295   1.694  18.431   2.855 -0.0917  0.4940  0.1502
  525PEP     CB17296   1.330  18.625   2.820 -0.2890 -0.0635 -0.0480
  525PEP     CB17297   0.930  18.802   2.801  0.0092  0.0516 -0.0974
  525PEP     CB17298   0.421  18.842   2.726 -0.0429  0.0016  0.2464
  525PEP     CB17299   0.070  18.814   3.089 -0.1805 -0.1313  0.3291
  525PEP     CB17300   0.084  18.997   3.551  0.2249  0.0658 -0.1238
  525PEP     CB17301   0.492  19.264   3.643 -0.1249 -0.0187 -0.1517
  525PEP     CB17302   0.941  19.074   3.580 -0.0640 -0.1102  0.1747
  525PEP     CB17303   1.069  18.588   3.641 -0.2058 -0.2830 -0.2291
  525PEP     CB17304   0.905  18.313   4.032  0.0835 -0.3385 -0.1444
  525PEP     CB17305   0.606  18.431   4.282  0.4665 -0.2679  0.3521
  525PEP     CB17306   0.216  18.746   4.259  0.1263  0.0345 -0.0530
  525PEP     CB17307  -0.006  18.740   3.975  0.0056 -0.3109 -0.4167
  525PEP     CB17308  -0.089  18.498   3.659  0.2170 -0.2014  0.1232
  525PEP     CB17309   0.015  18.141   3.277  0.5362 -0.1759 -0.0434
  525PEP     CB17310   0.036  17.704   3.083 -0.0150  0.1942  0.0886
  525PEP     CB17311   0.425  17.411   2.955  0.0329 -0.1227 -0.4858
  525PEP     CB17312   0.764  17.274   3.048  0.2319  0.2499 -0.0371
  525PEP     CB17313   0.843  16.972   3.330  0.1002  0.3616 -0.1339
  525PEP     CB17314   0.775  16.703   3.629  0.2683  0.0322 -0.1398
  525PEP     CB17315   1.116  16.567   3.964 -0.1648  0.0833  0.3598
  525PEP     CB17316   1.343  16.574   4.330  0.5156 -0.2781  0.5325
  525PEP     CB17317   1.464  16.707   4.686 -0.0406  0.0989 -0.3270
  525PEP     CB17318   1.559  17.029   5.109  0.0809  0.4145  0.0183
  525PEP     CB17319   1.879  17.262   5.328  0.0115  0.0480 -0.0351
  525PEP     CB17320   2.033  17.704   5.350  0.1279  0.0183 -0.1673
  526PEP     CB17321   7.392  13.613   2.072 -0.0115  0.3768 -0.6771
  526PEP     CB17322   7.826  13.578   2.268  0.1268 -0.2084 -0.2040
  526PEP     CB17323   8.085  13.462   2.705 -0.3409  0.2250  0.1280
  526PEP     CB17324   8.104  13.511   3.129  0.0346  0.0269 -0.3235
  526PEP     CB17325   7.904  13.718   3.614  0.1730 -0.0187 -0.0903
  526PEP     CB17326   7.512  14.060   3.834  0.1887 -0.5111  0.0659
  526PEP     CB17327   7.262  13.958   4.258  0.2144  0.0264 -0.0228
  526PEP     CB17328   7.021  13.727   4.530 -0.1502 -0.2074 -0.0056
  526PEP     CB17329   7.131  13.412   4.892  0.1115  0.1489  0.0744
  526PEP     CB17330   7.579  13.352   5.025  0.3454 -0.2371 -0.0728
  526PEP     CB17331   7.892  13.750   4.993  0.4332 -0.0884  0.1716
  526PEP     CB17332   7.784  14.255   4.754  0.1441 -0.3938 -0.0724
  526PEP     CB17333   7.511  14.349   4.479 -0.1950  0.2883  0.2721
  526PEP     CB17334   7.269  14.420   4.089  0.4137 -0.1034 -0.2918
  526PEP     CB17335   6.962  14.413   3.872 -0.1193  0.0115 -0.1418
  526PEP     CB17336   6.719  14.159   3.688  0.2715  0.0107  0.1226
  526PEP     CB17337   6.363  13.902   3.571  0.1164 -0.1201 -0.2142
  526PEP     CB17338   6.167  13.610   3.706 -0.0186  0.1148 -0.3393
  526PEP     CB17339   6.233  13.301   4.042  0.0622  0.3971  0.2807
  526PEP     CB17340   6.544  12.971   4.102 -0.0312 -0.3857 -0.0879
  526PEP     CB17341   6.533  12.660   3.841  0.1194 -0.0276  0.0422
  526PEP     CB17342   6.351  12.824   3.419 -0.1320 -0.0134  0.0293
  526PEP     CB17343   6.138  13.200   3.428  0.0909 -0.0485 -0.2289
  526PEP     CB17344   5.794  13.460   3.347 -0.3910 -0.3844  0.2798
  526PEP     CB17345   5.542  13.827   3.233 -0.3320  0.1284 -0.3818
  526PEP     CB17346   5.371  14.103   2.938  0.0813 -0.2976 -0.1396
  526PEP     CB17347   5.115  13.989   2.596  0.3477 -0.2036  0.1060
  526PEP     CB17348   5.257  13.977   2.160 -0.4113 -0.0596  0.3759
  526PEP     CB17349   5.658  14.263   1.953 -0.0876  0.0062  0.1415
  526PEP     CB17350   5.776  14.638   1.963  0.3060  0.1935  0.0005
  526PEP     CB17351   5.857  15.028   1.893  0.0942  0.1078 -0.3879
  526PEP     CB17352   5.640  15.441   1.811  0.0934 -0.1999  0.0875
  526PEP     CB17353   5.715  15.933   1.852  0.3605  0.4123 -0.1473
  526PEP     CB17354   6.140  16.042   2.043  0.1272  0.0217 -0.0515
  526PEP     CB17355   6.453  16.130   2.405  0.0235 -0.0187 -0.1357
  526PEP     CB17356   6.841  15.985   2.613  0.0097  0.3513  0.5209
  526PEP     CB17357   7.169  15.780   2.629  0.1339  0.3507  0.1965
  526PEP     CB17358   7.483  15.540   2.813  0.2905 -0.3282  0.1508
  526PEP     CB17359   7.764  15.462   3.126 -0.1194  0.2056  0.0662
  526PEP     CB17360   7.756  15.428   3.564 -0.1483 -0.0270  0.1814
  527PEP     CB17361   5.914  12.535  14.735  0.0856  0.6520  0.1233
  527PEP     CB17362   5.748  12.271  15.014  0.0136 -0.0095 -0.5584
  527PEP     CB17363   5.633  11.820  15.141 -0.0055  0.1477 -0.0580
  527PEP     CB17364   5.315  11.482  15.334 -0.1987 -0.1625  0.2447
  527PEP     CB17365   4.991  11.329  15.517 -0.2845  0.4627  0.0355
  527PEP     CB17366   4.928  11.022  15.817 -0.1796 -0.6452  0.3631
  527PEP     CB17367   4.613  10.843  16.018 -0.0258  0.1787 -0.1691
  527PEP     CB17368   4.188  10.584  15.881  0.0978  0.0055 -0.1732
  527PEP     CB17369   4.242  10.161  15.601 -0.1905 -0.2022  0.0364
  527PEP     CB17370   4.375   9.830  15.452  0.3404  0.0346  0.1566
  527PEP     CB17371   4.714   9.687  15.286 -0.0879  0.3037  0.1225
  527PEP     CB17372   4.750   9.279  14.949  0.0735 -0.0289 -0.2802
  527PEP     CB17373   4.397   9.048  14.860 -0.4172  0.2179 -0.0775
  527PEP     CB17374   3.994   9.149  14.775  0.0347  0.3026 -0.0500
  527PEP     CB17375   3.816   9.498  14.656  0.0281 -0.0920 -0.3248
  527PEP     CB17376   3.498   9.552  14.418  0.0100  0.2788  0.3334
  527PEP     CB17377   3.528   9.578  13.998 -0.1604 -0.1427 -0.1262
  527PEP     CB17378   3.844   9.812  13.868 -0.2110 -0.1318  0.3814
  527PEP     CB17379   4.229  10.128  13.883 -0.2525 -0.2973 -0.0438
  527PEP     CB17380   4.492  10.228  14.135 -0.0582  0.1376  0.4084
  527PEP     CB17381   4.473  10.051  14.547  0.1270  0.0536  0.1056
  527PEP     CB17382   4.012  10.050  14.678  0.5168 -0.0004 -0.4920
  527PEP     CB17383   3.709   9.998  14.417 -0.1650  0.3459  0.2897
  527PEP     CB17384   3.539  10.160  14.094  0.3032  0.3944 -0.4031
  527PEP     CB17385   3.392   9.979  13.703  0.1486 -0.2719  0.2361
  527PEP     CB17386   3.045   9.909  13.505  0.2459  0.0595  0.2992
  527PEP     CB17387   2.719   9.674  13.401  0.2295 -0.1976 -0.1528
  527PEP     CB17388   2.416   9.501  13.149 -0.1239  0.1617  0.4123
  527PEP     CB17389   2.053   9.360  12.984 -0.5138 -0.1575  0.5195
  527PEP     CB17390   1.800   9.472  12.632 -0.0499 -0.3044  0.3098
  527PEP     CB17391   1.717   9.859  12.512  0.0610  0.5299  0.2271
  527PEP     CB17392   2.037  10.197  12.554  0.0000  0.1826 -0.1916
  527PEP     CB17393   2.304  10.529  12.460  0.1176  0.2623  0.0382
  527PEP     CB17394   2.799  10.665  12.448 -0.2015 -0.3988  0.1193
  527PEP     CB17395   3.144  10.912  12.589 -0.0151 -0.1810  0.3409
  527PEP     CB17396   3.534  11.062  12.770  0.6071 -0.1395 -0.0351
  527PEP     CB17397   3.956  11.114  12.771  0.1009 -0.2178  0.1672
  527PEP     CB17398   4.190  11.428  12.722  0.1493 -0.5711  0.0018
  527PEP     CB17399   4.102  11.953  12.682  0.2224  0.1415  0.1051
  527PEP     CB17400   3.883  12.322  12.396  0.1673  0.3531  0.1168
  528PEP     CB17401  15.674   2.359  11.850 -0.0354 -0.1707  0.5027
  528PEP     CB17402  15.380   2.095  11.748  0.0294 -0.1804 -0.0740
  528PEP     CB17403  15.267   1.696  11.673  0.0521  0.3381  0.0015
  528PEP     CB17404  15.430   1.330  11.613  0.0278  0.3295  0.0323
  528PEP     CB17405  15.865   1.324  11.357  0.0885  0.2304 -0.0608
  528PEP     CB17406  16.211   1.613  11.136 -0.0675  0.0773  0.0684
  528PEP     CB17407  16.312   1.890  11.438 -0.1044  0.0734 -0.1853
  528PEP     CB17408  16.757   1.736  11.711  0.0487 -0.2945 -0.0229
  528PEP     CB17409  16.910   1.326  11.692 -0.3976 -0.0205 -0.3430
  528PEP     CB17410  16.899   1.066  11.395 -0.3936 -0.1824  0.0917
  528PEP     CB17411  16.918   1.278  11.072  0.1345  0.0559 -0.4666
  528PEP     CB17412  17.040   1.639  11.105  0.3957 -0.0264 -0.1637
  528PEP     CB17413  17.321   1.734  11.445  0.1054  0.4150 -0.3779
  528PEP     CB17414  17.583   1.469  11.763 -0.2860  0.3098  0.1209
  528PEP     CB17415  17.472   0.920  11.779  0.1033  0.3625 -0.0830
  528PEP     CB17416  17.087   0.753  11.704 -0.4190 -0.0424 -0.2829
  528PEP     CB17417  16.779   0.578  11.939  0.0389 -0.0989  0.0019
  528PEP     CB17418  16.417   0.229  12.074 -0.3720  0.0106 -0.3129
  528PEP     CB17419  16.194  -0.144  12.350  0.1862  0.1428  0.3421
  528PEP     CB17420  16.111  -0.597  12.130 -0.1815 -0.1983  0.6624
  528PEP     CB17421  16.069  -0.662  11.672  0.1198  0.1308  0.0071
  528PEP     CB17422  16.275  -0.406  11.399  0.0756 -0.3819  0.1544
  528PEP     CB17423  16.281   0.045  11.415  0.1715 -0.1462  0.0349
  528PEP     CB17424  16.264   0.413  11.629 -0.0032 -0.0859 -0.2854
  528PEP     CB17425  16.206   0.694  12.105  0.2963  0.0952  0.2449
  528PEP     CB17426  16.325   0.990  12.488 -0.0985  0.0495  0.2714
  528PEP     CB17427  16.771   1.168  12.602 -0.4511 -0.2934  0.0211
  528PEP     CB17428  16.863   1.536  12.653  0.2403  0.2246 -0.0116
  528PEP     CB17429  17.195   1.804  12.582  0.4250  0.0089 -0.3363
  528PEP     CB17430  17.642   1.819  12.274  0.1526 -0.2176  0.1755
  528PEP     CB17431  18.039   2.033  12.095 -0.0178 -0.0295 -0.2783
  528PEP     CB17432  18.474   2.307  11.971  0.4703  0.1605 -0.0514
  528PEP     CB17433  18.659   2.652  11.972 -0.1248 -0.3961  0.0162
  528PEP     CB17434  18.697   2.974  12.134 -0.3514 -0.1145 -0.0181
  528PEP     CB17435  18.490   3.241  12.404 -0.0243  0.1789  0.1490
  528PEP     CB17436  18.258   3.312  12.766 -0.1301  0.0753 -0.1485
  528PEP     CB17437  17.857   3.316  12.868  0.1545 -0.1655  0.4748
  528PEP     CB17438  17.599   3.626  12.739  0.1196 -0.1306  0.4464
  528PEP     CB17439  17.779   4.067  12.631 -0.0811 -0.1936  0.3044
  528PEP     CB17440  17.740   4.476  12.564 -0.2195  0.2392  0.3760
  529PEP     CB17441   9.211  11.644   3.995  0.3630  0.0952 -0.2711
  529PEP     CB17442   9.465  11.603   3.651 -0.0954  0.0867  0.0881
  529PEP     CB17443   9.846  11.576   3.425 -0.0569 -0.0957 -0.3765
  529PEP     CB17444   9.974  11.877   3.127 -0.1022  0.0394 -0.0649
  529PEP     CB17445  10.241  12.102   2.816  0.0024 -0.0554 -0.3195
  529PEP     CB17446  10.264  12.054   2.441 -0.4538  0.0473  0.0560
  529PEP     CB17447   9.873  11.801   2.200 -0.4470 -0.2756  0.0007
  529PEP     CB17448   9.653  11.400   2.399 -0.3081  0.1704  0.0319
  529PEP     CB17449   9.247  11.247   2.424 -0.0911  0.0352 -0.2035
  529PEP     CB17450   8.916  11.345   2.192  0.4103 -0.1566 -0.0684
  529PEP     CB17451   9.007  11.631   1.880  0.3327 -0.1853 -0.0122
  529PEP     CB17452   9.408  11.841   1.875  0.0200  0.1710 -0.4849
  529PEP     CB17453   9.639  12.199   2.126  0.0679 -0.1270  0.4749
  529PEP     CB17454   9.884  12.600   2.123  0.1598 -0.4390 -0.2251
  529PEP     CB17455   9.703  12.906   2.252  0.1206  0.3616  0.0239
  529PEP     CB17456   9.760  13.316   2.315 -0.0697 -0.2148 -0.0728
  529PEP     CB17457  10.042  13.635   2.511 -0.1820 -0.1473 -0.1788
  529PEP     CB17458  10.160  14.059   2.733  0.1569 -0.0517  0.0376
  529PEP     CB17459  10.371  14.445   2.673  0.2864 -0.0252 -0.1062
  529PEP     CB17460  10.535  14.834   2.603 -0.1772 -0.4747  0.3234
  529PEP     CB17461  10.537  15.088   2.317 -0.1249  0.4435 -0.1345
  529PEP     CB17462  10.426  14.994   1.941 -0.0340 -0.1977 -0.2282
  529PEP     CB17463  10.430  14.853   1.555 -0.2822  0.4426  0.0009
  529PEP     CB17464  10.371  14.483   1.325 -0.1836  0.3008 -0.1729
  529PEP     CB17465  10.131  14.083   1.167 -0.1111  0.0513 -0.0256
  529PEP     CB17466   9.828  13.883   0.947 -0.1272 -0.0740  0.0088
  529PEP     CB17467   9.351  13.754   0.925  0.1818 -0.3109  0.2950
  529PEP     CB17468   9.179  13.379   0.971 -0.1351  0.0744  0.2144
  529PEP     CB17469   8.959  13.118   0.600  0.3328  0.1993 -0.4501
  529PEP     CB17470   8.774  13.369   0.256  0.1072 -0.0050  0.0717
  529PEP     CB17471   8.695  13.729   0.503 -0.1620  0.1722  0.1496
  529PEP     CB17472   8.512  14.133   0.649 -0.2498 -0.2054 -0.1710
  529PEP     CB17473   8.394  14.500   0.809  0.4902 -0.2341 -0.0606
  529PEP     CB17474   8.073  14.695   1.054  0.0302 -0.0301  0.2383
  529PEP     CB17475   7.802  14.462   1.334 -0.1226  0.0656 -0.0856
  529PEP     CB17476   7.981  14.246   1.631 -0.1589 -0.0628 -0.1524
  529PEP     CB17477   8.391  14.434   1.841 -0.1679  0.2502 -0.2263
  529PEP     CB17478   8.377  14.867   1.977 -0.1822 -0.0959  0.1486
  529PEP     CB17479   7.965  15.064   2.036  0.0314  0.2670  0.0860
  529PEP     CB17480   7.638  15.031   1.786  0.0937 -0.0341  0.4050
  530PEP     CB17481  13.211   7.689   1.591  0.0881 -0.2708  0.0438
  530PEP     CB17482  13.229   8.118   1.777 -0.2191 -0.0779  0.1785
  530PEP     CB17483  13.618   8.367   1.850 -0.1926 -0.2331 -0.3501
  530PEP     CB17484  14.039   8.516   1.779 -0.0006  0.2630 -0.0698
  530PEP     CB17485  14.492   8.623   1.612  0.0770 -0.4616 -0.0201
  530PEP     CB17486  14.791   8.500   1.420 -0.2253 -0.0061 -0.0709
  530PEP     CB17487  15.187   8.647   1.340  0.2450 -0.1949 -0.1413
  530PEP     CB17488  15.450   8.830   1.606  0.0867 -0.3411 -0.0228
  530PEP     CB17489  15.423   8.777   2.080  0.0361  0.0692  0.2087
  530PEP     CB17490  15.145   8.499   2.327  0.1360  0.0385 -0.2507
  530PEP     CB17491  14.817   8.452   2.448 -0.1308 -0.0359 -0.0435
  530PEP     CB17492  14.518   8.101   2.457  0.0977 -0.4911 -0.1551
  530PEP     CB17493  14.463   7.669   2.298  0.0986 -0.1505 -0.4877
  530PEP     CB17494  14.404   7.306   2.227 -0.3377 -0.0549  0.0576
  530PEP     CB17495  14.318   6.940   2.374 -0.4874  0.2142  0.2991
  530PEP     CB17496  14.037   6.818   2.636  0.2105 -0.3634  0.3763
  530PEP     CB17497  13.893   6.794   3.082 -0.0377  0.1872  0.0815
  530PEP     CB17498  14.010   6.823   3.509 -0.0715 -0.1284 -0.0532
  530PEP     CB17499  14.394   6.564   3.629 -0.1981 -0.0630  0.1512
  530PEP     CB17500  14.647   6.281   3.352  0.1338  0.3953  0.3721
  530PEP     CB17501  14.664   6.134   2.956 -0.0061  0.4377  0.0327
  530PEP     CB17502  14.738   5.900   2.592  0.1015  0.2272  0.0824
  530PEP     CB17503  14.755   5.835   2.103 -0.2446 -0.0253 -0.1076
  530PEP     CB17504  14.682   5.987   1.606 -0.0060 -0.0155  0.0680
  530PEP     CB17505  14.534   5.985   1.254 -0.0227  0.4183 -0.2909
  530PEP     CB17506  14.408   6.107   0.810 -0.3456  0.2052  0.0792
  530PEP     CB17507  14.592   6.177   0.552 -0.3251 -0.5357  0.0513
  530PEP     CB17508  14.982   6.350   0.602 -0.0522 -0.2350 -0.0472
  530PEP     CB17509  15.097   6.811   0.818 -0.2646 -0.0226  0.2554
  530PEP     CB17510  15.384   7.148   0.858  0.2786  0.0272 -0.2967
  530PEP     CB17511  15.639   7.453   0.804 -0.3507 -0.1266  0.1909
  530PEP     CB17512  15.988   7.595   0.898 -0.2791 -0.1074 -0.2775
  530PEP     CB17513  16.424   7.366   1.026 -0.1949  0.3848  0.1195
  530PEP     CB17514  16.933   7.374   1.076 -0.3823  0.0117 -0.2810
  530PEP     CB17515  17.440   7.398   1.065  0.3235 -0.2269  0.1575
  530PEP     CB17516  17.665   7.180   0.855  0.0802  0.1832 -0.1561
  530PEP     CB17517  18.105   7.184   0.684 -0.2835 -0.2886  0.1039
  530PEP     CB17518  18.365   7.496   0.704  0.3548 -0.2068  0.5803
  530PEP     CB17519  18.306   8.053   0.691  0.1704  0.1292  0.0472
  530PEP     CB17520  18.228   8.374   0.446 -0.0524 -0.2120 -0.1976
  531PEP     CB17521   3.698  11.927   6.769  0.0316 -0.3560 -0.1445
  531PEP     CB17522   3.754  12.375   6.649  0.0907  0.2347 -0.0097
  531PEP     CB17523   3.905  12.490   6.281  0.3473  0.3032 -0.2583
  531PEP     CB17524   4.016  12.428   5.929 -0.0894 -0.2512 -0.0737
  531PEP     CB17525   3.783  12.336   5.590 -0.0454 -0.0761  0.5002
  531PEP     CB17526   3.563  11.978   5.232 -0.0996  0.0875 -0.3919
  531PEP     CB17527   3.649  11.590   5.018 -0.2731 -0.0458 -0.0375
  531PEP     CB17528   3.620  11.242   4.806 -0.3127 -0.2006 -0.2658
  531PEP     CB17529   4.012  10.976   4.612 -0.1900 -0.1664 -0.0007
  531PEP     CB17530   4.481  10.906   4.682  0.2381  0.1663  0.2796
  531PEP     CB17531   4.769  10.687   4.821 -0.0625  0.0118 -0.3313
  531PEP     CB17532   5.241  10.637   4.864 -0.3548  0.5207 -0.2403
  531PEP     CB17533   5.587  10.541   5.227 -0.3468  0.1884  0.1165
  531PEP     CB17534   5.777  10.785   5.500  0.0887 -0.1853 -0.2758
  531PEP     CB17535   5.714  11.051   5.810 -0.0869  0.4656  0.3285
  531PEP     CB17536   5.345  11.102   6.073  0.5008 -0.0635 -0.0031
  531PEP     CB17537   4.932  11.021   5.967  0.0511 -0.1395  0.0896
  531PEP     CB17538   4.694  10.683   5.835 -0.1465  0.0278  0.0338
  531PEP     CB17539   4.373  10.379   5.847  0.2370  0.1877 -0.2021
  531PEP     CB17540   4.085  10.197   5.724  0.1190  0.0328 -0.1322
  531PEP     CB17541   3.814   9.833   5.645  0.4083 -0.2423 -0.2984
  531PEP     CB17542   3.488   9.490   5.675 -0.3563 -0.1767 -0.0601
  531PEP     CB17543   3.316   9.002   5.489  0.1921  0.0176  0.2568
  531PEP     CB17544   3.551   8.690   5.362  0.0808 -0.0603  0.0369
  531PEP     CB17545   3.905   8.432   5.459 -0.6285 -0.2422  0.2664
  531PEP     CB17546   3.994   8.331   5.849 -0.2339  0.0009  0.2507
  531PEP     CB17547   3.824   8.394   6.236  0.2305  0.0707  0.1549
  531PEP     CB17548   3.480   8.673   6.392  0.0848  0.0725 -0.3061
  531PEP     CB17549   3.477   8.892   6.708 -0.1480  0.1599  0.0716
  531PEP     CB17550   3.896   8.856   6.996 -0.1103 -0.2783 -0.1956
  531PEP     CB17551   4.336   8.791   6.842  0.1859 -0.1682 -0.3182
  531PEP     CB17552   4.446   8.935   6.385  0.1892  0.1627  0.1040
  531PEP     CB17553   4.254   9.299   6.176 -0.1215 -0.0011 -0.0436
  531PEP     CB17554   4.128   9.676   6.461  0.0490 -0.1236 -0.1708
  531PEP     CB17555   3.904   9.832   6.832 -0.1895  0.1029  0.1851
  531PEP     CB17556   3.524   9.844   7.032  0.0402  0.1370  0.4183
  531PEP     CB17557   3.400   9.817   7.436  0.3925 -0.0563 -0.1200
  531PEP     CB17558   3.167   9.525   7.748  0.0214 -0.1946 -0.0160
  531PEP     CB17559   3.078   9.186   7.599  0.1548 -0.3709  0.0180
  531PEP     CB17560   3.031   8.985   7.168  0.2240 -0.0505  0.4425
  532PEP     CB17561  14.595  19.232  18.216  0.1844  0.3518 -0.0206
  532PEP     CB17562  14.413  19.095  18.533 -0.3267 -0.0480  0.5400
  532PEP     CB17563  14.238  18.782  18.667 -0.1440  0.0230 -0.3012
  532PEP     CB17564  14.037  18.376  18.532 -0.2390  0.2936 -0.0960
  532PEP     CB17565  14.088  18.034  18.318  0.3076 -0.0683  0.6716
  532PEP     CB17566  14.094  17.530  18.151  0.4831 -0.3050  0.2232
  532PEP     CB17567  14.250  17.123  17.986  0.0341 -0.1768 -0.0483
  532PEP     CB17568  14.596  16.831  18.118  0.6344 -0.0418 -0.1439
  532PEP     CB17569  14.664  16.787  18.579  0.2271  0.0792  0.0371
  532PEP     CB17570  14.379  16.829  18.930  0.2793  0.0303  0.1324
  532PEP     CB17571  14.049  16.535  18.948  0.3027  0.0746  0.3054
  532PEP     CB17572  13.734  16.355  18.706 -0.3242 -0.2975 -0.2185
  532PEP     CB17573  13.597  16.117  18.467  0.1644 -0.1211 -0.2171
  532PEP     CB17574  13.543  15.761  18.083  0.0805 -0.0895 -0.6801
  532PEP     CB17575  13.607  15.438  17.760  0.0908  0.4256  0.2251
  532PEP     CB17576  13.825  15.386  17.448 -0.1684  0.1270  0.1977
  532PEP     CB17577  14.267  15.615  17.329  0.2033 -0.0400 -0.2870
  532PEP     CB17578  14.525  15.767  17.627 -0.3468 -0.0999 -0.1264
  532PEP     CB17579  14.565  15.921  18.057 -0.2724 -0.2207 -0.0807
  532PEP     CB17580  14.829  15.837  18.451 -0.0855 -0.0011 -0.2144
  532PEP     CB17581  15.054  16.110  18.636 -0.1608  0.2092  0.0457
  532PEP     CB17582  15.068  16.496  18.545 -0.1475 -0.2070 -0.2472
  532PEP     CB17583  15.058  16.666  18.166 -0.0224  0.1409 -0.0519
  532PEP     CB17584  15.314  16.593  17.866 -0.0716  0.1372  0.0386
  532PEP     CB17585  15.282  16.443  17.467  0.2406 -0.0215 -0.1901
  532PEP     CB17586  15.155  16.428  16.964  0.2033 -0.5426 -0.3768
  532PEP     CB17587  14.935  16.377  16.632  0.2081  0.0523 -0.3957
  532PEP     CB17588  14.487  16.538  16.602 -0.0332  0.0494  0.2389
  532PEP     CB17589  14.278  16.510  16.940  0.1349 -0.2515 -0.1304
  532PEP     CB17590  14.230  16.232  17.239  0.0767 -0.1483 -0.2562
  532PEP     CB17591  14.178  16.144  17.590  0.0277  0.2536 -0.4034
  532PEP     CB17592  13.929  16.184  17.951 -0.2312 -0.2165  0.0883
  532PEP     CB17593  13.520  16.404  18.087 -0.0162  0.1751 -0.4110
  532PEP     CB17594  13.288  16.552  18.453 -0.0856 -0.2353  0.2334
  532PEP     CB17595  13.463  16.770  18.753 -0.2375 -0.0605  0.0730
  532PEP     CB17596  13.832  17.084  18.889  0.2335 -0.2430 -0.2408
  532PEP     CB17597  14.207  17.311  18.972  0.0626 -0.0827  0.1759
  532PEP     CB17598  14.641  17.395  18.956  0.0488  0.0523  0.1941
  532PEP     CB17599  15.006  17.517  18.927 -0.2809  0.0248 -0.0609
  532PEP     CB17600  15.316  17.688  18.982  0.2821  0.2298 -0.3157
  533PEP     CB17601  15.948  21.001  17.584  0.0539 -0.0054  0.4527
  533PEP     CB17602  16.200  21.396  17.528  0.0464 -0.1465 -0.0746
  533PEP     CB17603  16.616  21.445  17.485 -0.3687  0.3939 -0.1375
  533PEP     CB17604  16.900  21.539  17.094 -0.0692 -0.1136  0.1507
  533PEP     CB17605  16.855  21.779  16.677 -0.1294  0.0461 -0.1405
  533PEP     CB17606  16.490  21.993  16.456  0.0903  0.0823 -0.0414
  533PEP     CB17607  16.198  22.420  16.357 -0.3000 -0.0763  0.1794
  533PEP     CB17608  15.659  22.510  16.372 -0.0606 -0.4130  0.0245
  533PEP     CB17609  15.317  22.446  16.118  0.0912  0.2493 -0.0972
  533PEP     CB17610  15.045  22.439  15.834  0.2034 -0.0021  0.1287
  533PEP     CB17611  14.691  22.620  15.769 -0.1354  0.4148  0.0982
  533PEP     CB17612  14.455  22.791  16.011  0.1240 -0.1334 -0.4231
  533PEP     CB17613  14.539  23.142  16.280  0.1567 -0.1222 -0.1643
  533PEP     CB17614  14.694  23.511  16.120  0.2277 -0.2649  0.0672
  533PEP     CB17615  14.746  23.904  16.190 -0.0643 -0.1540 -0.0813
  533PEP     CB17616  15.060  24.176  16.479  0.2483 -0.0991  0.1226
  533PEP     CB17617  15.140  24.045  16.912 -0.2694  0.1061 -0.2766
  533PEP     CB17618  14.759  23.837  17.133 -0.0697 -0.0947 -0.4593
  533PEP     CB17619  14.614  23.472  17.232 -0.1126 -0.1204 -0.1427
  533PEP     CB17620  14.906  23.043  17.214 -0.3296 -0.1782 -0.3093
  533PEP     CB17621  15.275  23.022  17.026  0.0291  0.2146 -0.0011
  533PEP     CB17622  15.440  23.398  16.707  0.1183  0.2627  0.3909
  533PEP     CB17623  15.539  23.726  16.517  0.4735 -0.2278 -0.1817
  533PEP     CB17624  15.516  24.041  16.258 -0.2546 -0.2510 -0.1936
  533PEP     CB17625  15.403  24.155  15.866  0.3984  0.2076 -0.2156
  533PEP     CB17626  15.025  24.128  15.634 -0.0368 -0.0023  0.0336
  533PEP     CB17627  14.730  24.245  15.363 -0.3754  0.3335 -0.1166
  533PEP     CB17628  14.548  24.059  15.085  0.3959 -0.2032 -0.0746
  533PEP     CB17629  14.422  23.735  14.875  0.2229  0.2690  0.2500
  533PEP     CB17630  14.253  23.554  14.544 -0.1915  0.1355  0.0070
  533PEP     CB17631  14.059  23.301  14.267  0.0225 -0.0710  0.0109
  533PEP     CB17632  13.955  22.834  14.288  0.1892 -0.0007  0.0031
  533PEP     CB17633  13.886  22.444  14.115 -0.5773  0.0387 -0.0467
  533PEP     CB17634  13.773  21.916  14.100  0.0598  0.0979  0.1110
  533PEP     CB17635  13.775  21.661  14.433  0.2795 -0.2249 -0.0382
  533PEP     CB17636  13.777  21.529  14.875  0.0456  0.3548 -0.1240
  533PEP     CB17637  14.159  21.585  15.198 -0.2200  0.0330 -0.6628
  533PEP     CB17638  14.379  21.975  15.113 -0.2567  0.3271 -0.3820
  533PEP     CB17639  14.064  22.337  15.177 -0.2441 -0.0171  0.0219
  533PEP     CB17640  13.602  22.394  15.076  0.0150  0.2794  0.3397
  534PEP     CB17641  16.201  20.481   8.898  0.0493 -0.0313  0.2890
  534PEP     CB17642  15.949  20.717   8.641  0.0526  0.0957 -0.1370
  534PEP     CB17643  15.611  20.919   8.313  0.2258  0.2128 -0.3449
  534PEP     CB17644  15.319  21.339   8.113 -0.0682  0.2721 -0.0845
  534PEP     CB17645  14.923  21.651   8.174 -0.0123 -0.5438  0.1281
  534PEP     CB17646  14.566  21.845   8.475  0.0903  0.2818  0.3124
  534PEP     CB17647  14.289  21.992   8.734  0.1340  0.3400 -0.4719
  534PEP     CB17648  14.001  22.061   9.073  0.1225  0.2240 -0.0487
  534PEP     CB17649  13.588  22.099   9.334 -0.4011 -0.1703  0.2134
  534PEP     CB17650  13.125  22.152   9.294  0.1448  0.3226 -0.0605
  534PEP     CB17651  12.677  22.185   9.391  0.2234  0.1460 -0.1221
  534PEP     CB17652  12.244  22.147   9.385  0.1289 -0.0830  0.1115
  534PEP     CB17653  11.812  22.273   9.319  0.0749  0.5158 -0.0870
  534PEP     CB17654  11.370  22.489   9.380  0.0127 -0.0201 -0.0444
  534PEP     CB17655  11.186  22.922   9.524 -0.1384  0.0779 -0.2072
  534PEP     CB17656  11.034  23.284   9.510  0.0592 -0.4037  0.0440
  534PEP     CB17657  10.913  23.661   9.698  0.0082 -0.0785  0.2526
  534PEP     CB17658  10.908  23.553  10.241 -0.0109 -0.2850 -0.0752
  534PEP     CB17659  10.896  23.062  10.357 -0.3186  0.1660  0.2811
  534PEP     CB17660  10.663  22.802  10.685  0.0118  0.0779 -0.3868
  534PEP     CB17661  10.388  22.842  10.927 -0.1913  0.0064  0.0164
  534PEP     CB17662  10.080  22.657  11.227 -0.1049  0.3120  0.2137
  534PEP     CB17663  10.027  22.430  11.634  0.1892  0.1149  0.1201
  534PEP     CB17664  10.036  21.936  11.789  0.2169 -0.0811 -0.0382
  534PEP     CB17665   9.856  21.625  11.640  0.0336  0.1899 -0.3615
  534PEP     CB17666   9.522  21.353  11.773 -0.1093  0.1600  0.0214
  534PEP     CB17667   9.204  21.444  11.919 -0.1678 -0.1124 -0.4726
  534PEP     CB17668   8.960  21.776  12.127 -0.3777 -0.0391 -0.1729
  534PEP     CB17669   9.053  22.248  12.076 -0.1358 -0.1552  0.0047
  534PEP     CB17670   9.191  22.433  11.716  0.0872  0.2719  0.1771
  534PEP     CB17671   9.107  22.190  11.305  0.0478 -0.3805  0.0872
  534PEP     CB17672   8.822  21.932  11.073  0.0284 -0.1596 -0.0099
  534PEP     CB17673   8.502  21.878  10.625 -0.0800 -0.1636  0.2935
  534PEP     CB17674   8.251  22.114  10.222  0.1240  0.1513 -0.1430
  534PEP     CB17675   8.277  22.197   9.697  0.1368 -0.3826 -0.3293
  534PEP     CB17676   8.565  21.879   9.582  0.1067 -0.0422 -0.3388
  534PEP     CB17677   8.680  21.679   9.922 -0.0470  0.0752  0.1515
  534PEP     CB17678   8.425  21.575  10.266 -0.2915 -0.4561 -0.2667
  534PEP     CB17679   8.022  21.450  10.402  0.1548 -0.1628 -0.1100
  534PEP     CB17680   7.602  21.313  10.456 -0.1053 -0.0190  0.1057
  535PEP     CB17681  14.801   3.342  11.845 -0.2022 -0.0611 -0.1989
  535PEP     CB17682  14.671   3.194  11.451 -0.4295 -0.2565  0.1290
  535PEP     CB17683  14.659   3.071  11.015 -0.2206  0.3388 -0.0233
  535PEP     CB17684  14.450   3.131  10.539 -0.1811  0.3255 -0.1536
  535PEP     CB17685  14.306   3.090  10.097 -0.1986  0.0959 -0.2106
  535PEP     CB17686  14.323   3.166   9.637  0.2807  0.1736  0.3357
  535PEP     CB17687  14.531   3.086   9.275  0.0777  0.0560  0.2146
  535PEP     CB17688  14.952   3.212   9.107  0.2347 -0.1599  0.1158
  535PEP     CB17689  15.234   3.577   8.877  0.1160 -0.1488  0.3670
  535PEP     CB17690  15.163   3.848   8.432  0.1676  0.2705 -0.1971
  535PEP     CB17691  14.765   3.988   8.279  0.2068 -0.0712 -0.1631
  535PEP     CB17692  14.299   4.124   8.197  0.0679  0.1083 -0.2342
  535PEP     CB17693  13.931   3.941   8.351  0.0574  0.4479  0.0443
  535PEP     CB17694  13.719   3.619   8.264  0.0086  0.0077  0.1522
  535PEP     CB17695  13.895   3.245   8.239  0.2078 -0.0276 -0.3063
  535PEP     CB17696  13.864   2.878   8.483 -0.2392  0.0456 -0.0673
  535PEP     CB17697  13.905   2.439   8.346 -0.1193 -0.3623  0.1255
  535PEP     CB17698  13.677   2.141   8.072  0.2337 -0.2587  0.2734
  535PEP     CB17699  13.782   2.055   7.667 -0.1335 -0.1340  0.0269
  535PEP     CB17700  13.686   2.012   7.127  0.1277  0.5308 -0.4840
  535PEP     CB17701  13.401   2.094   6.753  0.2304  0.2824 -0.3577
  535PEP     CB17702  13.283   2.348   6.342 -0.1123  0.0785 -0.2177
  535PEP     CB17703  12.972   2.707   6.123 -0.1501 -0.0935 -0.2979
  535PEP     CB17704  12.567   2.975   5.969  0.2278  0.5138 -0.1902
  535PEP     CB17705  12.292   3.264   5.749  0.2618 -0.2568  0.1285
  535PEP     CB17706  11.939   3.487   5.740 -0.3750 -0.5622 -0.4404
  535PEP     CB17707  11.497   3.575   5.730  0.3381  0.1445  0.2225
  535PEP     CB17708  11.220   3.751   5.581 -0.2353  0.1409  0.0947
  535PEP     CB17709  11.265   4.119   5.375  0.1254  0.5626 -0.0539
  535PEP     CB17710  11.026   4.555   5.185  0.0035  0.1161  0.0852
  535PEP     CB17711  10.993   5.016   5.257  0.2073  0.0482 -0.5374
  535PEP     CB17712  11.089   5.321   5.496  0.3242  0.2508 -0.4993
  535PEP     CB17713  11.402   5.419   5.638 -0.1900  0.0243  0.0041
  535PEP     CB17714  11.821   5.466   5.483  0.2205  0.1619  0.3517
  535PEP     CB17715  12.184   5.384   5.307  0.2041 -0.1052  0.2810
  535PEP     CB17716  12.603   5.119   5.165 -0.3182  0.0887  0.1098
  535PEP     CB17717  12.693   4.614   5.125  0.0615  0.2934  0.1311
  535PEP     CB17718  12.840   4.269   4.840 -0.1063 -0.0197  0.1972
  535PEP     CB17719  13.146   3.963   4.581  0.2208 -0.1262  0.0533
  535PEP     CB17720  12.995   3.709   4.280  0.0368 -0.1219  0.3697
  536PEP     CB17721   0.411   6.883  11.118 -0.2604 -0.0676 -0.1682
  536PEP     CB17722   0.468   7.386  11.090  0.2900  0.1292 -0.2380
  536PEP     CB17723   0.361   7.854  11.068 -0.0048  0.1473 -0.2158
  536PEP     CB17724   0.374   8.275  11.080  0.0480 -0.3317 -0.4053
  536PEP     CB17725   0.572   8.633  11.125 -0.0598 -0.1562  0.2677
  536PEP     CB17726   0.651   9.064  11.105  0.2687  0.0820 -0.0485
  536PEP     CB17727   0.411   9.392  11.156  0.1506  0.0206 -0.0001
  536PEP     CB17728  -0.009   9.439  11.165 -0.0818  0.0212 -0.3495
  536PEP     CB17729  -0.393   9.227  11.262 -0.1629 -0.1093  0.3782
  536PEP     CB17730  -0.440   8.793  11.350 -0.1014 -0.0055 -0.0455
  536PEP     CB17731  -0.627   8.444  11.342  0.1355  0.2394  0.1572
  536PEP     CB17732  -0.898   8.150  11.548 -0.0304 -0.4593 -0.3587
  536PEP     CB17733  -0.986   7.769  11.694  0.0304 -0.2384 -0.4646
  536PEP     CB17734  -1.094   7.341  11.543 -0.1567  0.4635 -0.1140
  536PEP     CB17735  -1.032   6.945  11.579  0.3518  0.1117 -0.1934
  536PEP     CB17736  -1.136   6.499  11.662 -0.0187  0.4905  0.0534
  536PEP     CB17737  -0.925   6.262  11.966 -0.1281  0.2240  0.1731
  536PEP     CB17738  -0.578   6.295  11.949 -0.0246  0.0167  0.1484
  536PEP     CB17739  -0.225   6.572  12.112 -0.4499  0.1044 -0.2396
  536PEP     CB17740   0.073   6.430  12.416 -0.3854 -0.2473 -0.1475
  536PEP     CB17741   0.051   6.090  12.656 -0.0461  0.1616 -0.6603
  536PEP     CB17742  -0.230   5.844  12.813 -0.2585 -0.1944 -0.3804
  536PEP     CB17743  -0.592   5.566  12.874  0.1278  0.1375  0.0363
  536PEP     CB17744  -1.046   5.548  12.744  0.5008 -0.2271 -0.1359
  536PEP     CB17745  -1.198   5.713  12.286  0.2647 -0.4427  0.0261
  536PEP     CB17746  -0.904   5.732  11.914 -0.0418 -0.3633 -0.1643
  536PEP     CB17747  -0.519   5.837  11.719  0.1205 -0.0458 -0.4392
  536PEP     CB17748  -0.196   6.140  11.642  0.0010 -0.2729  0.0559
  536PEP     CB17749   0.234   6.245  11.627 -0.2350  0.3058 -0.2235
  536PEP     CB17750   0.527   5.926  11.517 -0.3682  0.1618 -0.1090
  536PEP     CB17751   0.406   5.505  11.457  0.0625  0.0565  0.0366
  536PEP     CB17752   0.536   5.116  11.464  0.0075  0.3568  0.0117
  536PEP     CB17753   0.270   4.699  11.465  0.3680 -0.1761 -0.2931
  536PEP     CB17754  -0.018   4.428  11.635  0.2354  0.2169  0.2124
  536PEP     CB17755  -0.362   4.205  11.381 -0.1445 -0.1992 -0.0251
  536PEP     CB17756  -0.496   4.038  10.990 -0.3230  0.0816 -0.1217
  536PEP     CB17757  -0.543   3.813  10.617  0.0927 -0.4730 -0.0248
  536PEP     CB17758  -0.731   3.833  10.208  0.1925  0.3095  0.0222
  536PEP     CB17759  -0.600   3.752   9.751  0.3086  0.0378 -0.1701
  536PEP     CB17760  -0.273   3.585   9.540  0.2640 -0.3925 -0.2831
  537PEP     CB17761  17.468  19.667   0.833  0.0643  0.0463  0.0627
  537PEP     CB17762  17.231  19.272   0.670  0.4048 -0.0802  0.5499
  537PEP     CB17763  16.970  18.906   0.645  0.1238  0.0049 -0.2974
  537PEP     CB17764  16.613  18.841   0.636 -0.3347  0.3293  0.0349
  537PEP     CB17765  16.245  19.020   0.791  0.4529 -0.0649 -0.2227
  537PEP     CB17766  15.976  19.191   1.060 -0.0716  0.3373 -0.2520
  537PEP     CB17767  15.856  19.431   1.467 -0.0293  0.0876  0.1117
  537PEP     CB17768  16.121  19.518   1.874  0.3478 -0.2961  0.2056
  537PEP     CB17769  16.399  19.732   2.146  0.1007 -0.0010  0.0003
  537PEP     CB17770  16.646  20.116   2.330  0.0372 -0.3243  0.2614
  537PEP     CB17771  16.621  20.353   2.705 -0.1227  0.1364 -0.3072
  537PEP     CB17772  16.533  20.596   3.043  0.3723 -0.3236  0.1106
  537PEP     CB17773  16.236  20.897   3.197 -0.0550 -0.1335 -0.0376
  537PEP     CB17774  15.982  20.914   3.501  0.3487 -0.0089  0.0659
  537PEP     CB17775  15.960  20.859   3.944  0.0241 -0.0356  0.0406
  537PEP     CB17776  16.375  20.873   4.327 -0.2211  0.1521  0.1824
  537PEP     CB17777  16.787  20.789   4.452 -0.2323  0.1271 -0.4860
  537PEP     CB17778  17.002  20.453   4.410  0.0389 -0.1267  0.1982
  537PEP     CB17779  16.869  20.073   4.383  0.4311 -0.0919  0.1823
  537PEP     CB17780  16.614  19.867   4.642 -0.1396  0.1751 -0.0272
  537PEP     CB17781  16.372  19.955   5.079  0.1172 -0.2782  0.2072
  537PEP     CB17782  16.545  20.239   5.369  0.2875  0.0409 -0.3348
  537PEP     CB17783  16.640  20.671   5.396 -0.1656 -0.1608 -0.2641
  537PEP     CB17784  16.598  20.934   5.572  0.0573  0.0798  0.2236
  537PEP     CB17785  16.537  21.219   5.915  0.2802  0.1825 -0.1452
  537PEP     CB17786  16.740  21.684   5.964 -0.1963  0.1666  0.2075
  537PEP     CB17787  16.836  22.092   6.057 -0.4554 -0.0771  0.0006
  537PEP     CB17788  17.014  22.458   5.953  0.2556  0.2384 -0.2042
  537PEP     CB17789  17.313  22.626   5.722  0.1529  0.3020  0.2126
  537PEP     CB17790  17.431  22.713   5.307 -0.0429  0.0646 -0.0567
  537PEP     CB17791  17.435  22.382   5.003 -0.3166  0.0817  0.1373
  537PEP     CB17792  17.139  22.031   5.170 -0.0534 -0.0368  0.0893
  537PEP     CB17793  17.066  22.032   5.634 -0.0768 -0.6564  0.1305
  537PEP     CB17794  17.468  21.836   5.959  0.4905  0.1160 -0.4670
  537PEP     CB17795  17.931  21.820   6.038 -0.0608  0.2678  0.1325
  537PEP     CB17796  18.384  21.835   6.127  0.2797  0.2713 -0.1387
  537PEP     CB17797  18.834  21.737   6.154 -0.3690  0.1085  0.3423
  537PEP     CB17798  19.053  21.629   6.464  0.0015  0.3328 -0.0759
  537PEP     CB17799  19.359  21.299   6.557 -0.0904 -0.0697 -0.0598
  537PEP     CB17800  19.651  21.067   6.293 -0.1590  0.2418 -0.0563
  538PEP     CB17801   1.016  17.534  16.795 -0.1209  0.3698  0.1798
  538PEP     CB17802   0.736  17.594  16.574  0.0230 -0.0114 -0.0885
  538PEP     CB17803   0.412  17.390  16.365 -0.2427  0.3556  0.0518
  538PEP     CB17804  -0.044  17.216  16.166 -0.0801  0.2405 -0.3360
  538PEP     CB17805  -0.386  17.067  16.002  0.0408 -0.1254  0.3548
  538PEP     CB17806  -0.692  16.784  15.780 -0.1966 -0.1334 -0.0876
  538PEP     CB17807  -0.933  16.514  16.101 -0.1132 -0.1418 -0.1316
  538PEP     CB17808  -1.201  16.552  16.525  0.0751 -0.0936 -0.3370
  538PEP     CB17809  -1.300  16.778  16.958  0.0324  0.1785  0.0500
  538PEP     CB17810  -1.216  16.918  17.336 -0.3886 -0.0721 -0.0562
  538PEP     CB17811  -1.285  16.813  17.710 -0.2077  0.1773 -0.4696
  538PEP     CB17812  -1.279  16.411  18.086  0.0379 -0.5322 -0.1938
  538PEP     CB17813  -0.945  16.349  18.468 -0.0726 -0.4572 -0.0635
  538PEP     CB17814  -0.636  16.655  18.648  0.0892  0.2587  0.1380
  538PEP     CB17815  -0.379  16.857  18.340  0.0651  0.0632  0.1048
  538PEP     CB17816  -0.014  16.816  18.109 -0.1238 -0.0944 -0.1620
  538PEP     CB17817   0.327  16.897  17.801 -0.1998 -0.0487  0.2418
  538PEP     CB17818   0.514  17.121  17.543  0.1728 -0.4818  0.0588
  538PEP     CB17819   0.949  17.107  17.321  0.0748 -0.1717 -0.0166
  538PEP     CB17820   1.291  17.028  17.538  0.0216 -0.4542  0.5483
  538PEP     CB17821   1.437  16.728  17.796  0.0973  0.1694 -0.1809
  538PEP     CB17822   1.241  16.296  17.754  0.1279 -0.1616 -0.3891
  538PEP     CB17823   0.927  16.141  17.466 -0.1400  0.0313 -0.1528
  538PEP     CB17824   0.808  15.736  17.285 -0.2938  0.1805  0.2057
  538PEP     CB17825   0.772  15.557  16.952 -0.1491 -0.0668 -0.2006
  538PEP     CB17826   0.953  15.457  16.484  0.0199 -0.0435  0.1312
  538PEP     CB17827   0.868  15.351  16.162  0.0108 -0.0061 -0.0705
  538PEP     CB17828   0.741  14.972  15.877 -0.1032 -0.2931  0.0233
  538PEP     CB17829   0.385  14.668  15.912  0.2874  0.0329  0.0114
  538PEP     CB17830   0.098  14.448  15.769  0.1436  0.4490  0.2433
  538PEP     CB17831  -0.149  14.017  15.770  0.1169 -0.2943 -0.1225
  538PEP     CB17832  -0.509  13.899  15.884 -0.0113  0.0224 -0.3996
  538PEP     CB17833  -0.881  14.125  16.141 -0.0009  0.4920  0.1179
  538PEP     CB17834  -0.878  14.569  16.200  0.0843 -0.1533 -0.2397
  538PEP     CB17835  -0.534  14.842  16.332  0.0864 -0.0774 -0.0230
  538PEP     CB17836  -0.173  14.686  16.350 -0.0111 -0.2145  0.2074
  538PEP     CB17837   0.251  14.655  16.388  0.1877  0.0757  0.0269
  538PEP     CB17838   0.530  15.044  16.399 -0.1050  0.3946 -0.2591
  538PEP     CB17839   0.396  15.506  16.475  0.2077 -0.3215  0.0824
  538PEP     CB17840   0.511  15.995  16.522 -0.1096  0.0646  0.0991
  539PEP     CB17841  17.210   8.669  19.115 -0.3504  0.3226 -0.2805
  539PEP     CB17842  17.523   8.310  19.269 -0.0161 -0.0681 -0.2333
  539PEP     CB17843  17.739   7.866  19.023  0.0751  0.1071  0.2996
  539PEP     CB17844  17.859   7.474  18.784 -0.0764 -0.1075 -0.4346
  539PEP     CB17845  18.203   7.225  18.751 -0.0504 -0.0790 -0.1533
  539PEP     CB17846  18.598   7.355  18.968  0.0064 -0.5343 -0.4006
  539PEP     CB17847  18.625   7.784  18.879 -0.0145 -0.3341 -0.4125
  539PEP     CB17848  18.548   8.222  18.681  0.2198 -0.0111 -0.5049
  539PEP     CB17849  18.741   8.375  18.276  0.0620 -0.1233  0.2795
  539PEP     CB17850  19.035   8.169  18.002  0.1136  0.0088  0.0060
  539PEP     CB17851  19.387   7.794  17.917 -0.2305 -0.0991  0.2778
  539PEP     CB17852  19.697   7.466  17.870 -0.2684 -0.2630 -0.2556
  539PEP     CB17853  19.912   7.128  18.060  0.2891  0.3656  0.0215
  539PEP     CB17854  20.004   6.817  18.167 -0.2876  0.3272 -0.0361
  539PEP     CB17855  20.083   6.703  18.563  0.2243 -0.4731  0.2439
  539PEP     CB17856  19.802   6.820  18.841  0.0987  0.0385 -0.2133
  539PEP     CB17857  19.321   6.728  18.869 -0.0322 -0.0931 -0.1750
  539PEP     CB17858  19.001   6.548  18.528 -0.2254 -0.1861 -0.4181
  539PEP     CB17859  18.670   6.278  18.476 -0.2846  0.1153  0.1587
  539PEP     CB17860  18.293   6.104  18.758  0.0321 -0.2724 -0.1621
  539PEP     CB17861  18.226   6.237  19.182  0.2977  0.0528  0.3606
  539PEP     CB17862  18.079   6.604  19.448 -0.5191 -0.0997 -0.1144
  539PEP     CB17863  17.979   7.077  19.287 -0.2615  0.0028 -0.1676
  539PEP     CB17864  18.194   7.470  19.223  0.1362  0.3874  0.1902
  539PEP     CB17865  18.299   7.877  19.211  0.1532  0.1718  0.0286
  539PEP     CB17866  18.746   8.047  19.264  0.2694  0.1927  0.1988
  539PEP     CB17867  19.150   8.051  19.085  0.2425  0.1496  0.1206
  539PEP     CB17868  19.375   7.745  18.935  0.3379 -0.1333  0.1545
  539PEP     CB17869  19.725   7.724  18.817  0.0197 -0.2180 -0.4128
  539PEP     CB17870  20.131   7.978  18.878  0.0450 -0.4374  0.0084
  539PEP     CB17871  20.571   8.170  18.833  0.1428 -0.2925 -0.1983
  539PEP     CB17872  20.862   8.156  19.145 -0.1867 -0.0846 -0.5030
  539PEP     CB17873  21.100   7.835  19.358 -0.1045  0.0614 -0.4700
  539PEP     CB17874  21.493   7.696  19.266  0.1659  0.1636  0.0682
  539PEP     CB17875  21.866   7.829  19.055 -0.2015 -0.2410  0.1057
  539PEP     CB17876  22.179   7.905  18.623  0.3351 -0.1021 -0.4843
  539PEP     CB17877  22.562   7.786  18.437 -0.1635  0.1967 -0.1919
  539PEP     CB17878  22.958   7.719  18.632 -0.1656 -0.0559 -0.2497
  539PEP     CB17879  23.000   7.438  18.922  0.1584 -0.0464 -0.2298
  539PEP     CB17880  22.978   7.248  19.315  0.2030  0.1586  0.0301
  540PEP     CB17881   6.031   3.705  20.858 -0.3780  0.2056  0.0782
  540PEP     CB17882   6.406   3.851  20.685 -0.1649  0.2186 -0.0517
  540PEP     CB17883   6.856   3.710  20.722 -0.0633 -0.2485  0.0313
  540PEP     CB17884   7.254   3.624  20.541  0.1440 -0.0282 -0.1313
  540PEP     CB17885   7.597   3.877  20.307 -0.7421 -0.4822  0.0818
  540PEP     CB17886   7.966   3.933  20.079  0.2037 -0.2843 -0.1991
  540PEP     CB17887   8.145   3.811  19.593 -0.0175 -0.1013 -0.1895
  540PEP     CB17888   8.168   3.491  19.223  0.1414 -0.3543 -0.1895
  540PEP     CB17889   7.934   3.213  19.019  0.1900 -0.0075 -0.2336
  540PEP     CB17890   7.624   3.068  18.694 -0.4640  0.4527 -0.2072
  540PEP     CB17891   7.559   2.722  18.487 -0.2306  0.1977  0.2708
  540PEP     CB17892   7.468   2.474  18.062 -0.0422 -0.2266  0.0629
  540PEP     CB17893   7.568   2.379  17.580  0.0525 -0.1848  0.0749
  540PEP     CB17894   7.596   2.720  17.235 -0.2910  0.2512 -0.0462
  540PEP     CB17895   7.425   3.184  17.249 -0.6400 -0.0557  0.0113
  540PEP     CB17896   7.423   3.478  17.495  0.5366  0.2313  0.1115
  540PEP     CB17897   7.617   3.687  17.836  0.2178 -0.3566 -0.3708
  540PEP     CB17898   7.544   3.989  18.200  0.0562  0.1229 -0.0439
  540PEP     CB17899   7.457   4.080  18.711  0.3092  0.0315 -0.2414
  540PEP     CB17900   7.174   4.253  19.086 -0.2791 -0.3152  0.0979
  540PEP     CB17901   7.293   4.490  19.423 -0.0909  0.1785 -0.2143
  540PEP     CB17902   7.680   4.782  19.493 -0.2222  0.2198 -0.0685
  540PEP     CB17903   7.698   5.238  19.444 -0.1899  0.2236  0.1099
  540PEP     CB17904   7.303   5.522  19.504  0.0666  0.3135 -0.0758
  540PEP     CB17905   6.957   5.306  19.569 -0.0939 -0.1569  0.1267
  540PEP     CB17906   6.836   4.927  19.290  0.3149  0.1559  0.4053
  540PEP     CB17907   6.810   4.531  19.123  0.1323  0.1475  0.0132
  540PEP     CB17908   6.744   4.152  18.872 -0.6078 -0.0098  0.1864
  540PEP     CB17909   6.640   3.803  18.625 -0.0473 -0.3945 -0.0467
  540PEP     CB17910   6.283   3.796  18.290  0.0926 -0.0417  0.1899
  540PEP     CB17911   5.880   3.808  18.384 -0.2539 -0.0281 -0.2697
  540PEP     CB17912   5.596   3.894  18.783  0.1322 -0.0282  0.0963
  540PEP     CB17913   5.558   4.181  19.162  0.4153  0.3501  0.2195
  540PEP     CB17914   5.836   4.501  19.397 -0.0168  0.1488  0.1214
  540PEP     CB17915   6.291   4.588  19.550 -0.3673  0.0709  0.2115
  540PEP     CB17916   6.550   4.365  19.910  0.2320 -0.0106 -0.0747
  540PEP     CB17917   6.601   4.022  20.224  0.3324  0.1343 -0.1625
  540PEP     CB17918   6.725   3.619  20.237  0.1169 -0.0211  0.1331
  540PEP     CB17919   6.644   3.234  20.219 -0.0968 -0.0416 -0.0006
  540PEP     CB17920   6.834   2.804  20.195  0.1828 -0.0230 -0.0048
  541PEP     CB17921   3.022   1.017  18.345 -0.1810 -0.0140 -0.0350
  541PEP     CB17922   3.033   1.381  18.471 -0.3195  0.0671  0.2466
  541PEP     CB17923   2.792   1.575  18.664  0.2319  0.1244  0.0087
  541PEP     CB17924   2.669   1.606  19.170  0.4856 -0.0445  0.0234
  541PEP     CB17925   2.412   1.464  19.475  0.2784  0.1653  0.2028
  541PEP     CB17926   2.116   1.236  19.648  0.2458  0.0355 -0.0473
  541PEP     CB17927   1.769   0.945  19.522  0.1437  0.0160  0.1379
  541PEP     CB17928   1.525   0.614  19.328 -0.0357 -0.1393  0.2563
  541PEP     CB17929   1.366   0.309  19.011  0.2020 -0.0298  0.2442
  541PEP     CB17930   1.178   0.182  18.646 -0.0347 -0.1852 -0.2742
  541PEP     CB17931   0.802   0.289  18.483 -0.0595 -0.2893  0.3308
  541PEP     CB17932   0.502   0.335  18.164  0.0683  0.1911  0.3184
  541PEP     CB17933   0.150   0.520  17.982 -0.5260 -0.0661 -0.0601
  541PEP     CB17934   0.112   0.960  18.105 -0.0245 -0.2975 -0.2395
  541PEP     CB17935   0.062   1.242  18.448 -0.1594 -0.0967 -0.0875
  541PEP     CB17936  -0.018   1.482  18.794 -0.3430  0.0237  0.0094
  541PEP     CB17937  -0.053   1.717  19.198 -0.7092  0.1941 -0.2284
  541PEP     CB17938  -0.021   1.977  19.555 -0.1722 -0.2581  0.0723
  541PEP     CB17939   0.262   2.301  19.555  0.1148 -0.0182 -0.0274
  541PEP     CB17940   0.200   2.586  19.169 -0.4452  0.2316  0.1407
  541PEP     CB17941  -0.133   2.906  19.162 -0.1673  0.1162  0.1631
  541PEP     CB17942  -0.518   3.143  19.155 -0.5122 -0.1132 -0.4432
  541PEP     CB17943  -0.637   3.546  18.886 -0.0537  0.0683  0.0719
  541PEP     CB17944  -0.517   3.936  18.835  0.0090 -0.0019 -0.1216
  541PEP     CB17945  -0.281   4.264  18.677  0.1202  0.0258  0.1501
  541PEP     CB17946  -0.063   4.415  18.352  0.0108 -0.6791  0.2946
  541PEP     CB17947  -0.078   4.186  17.935 -0.3019  0.0090 -0.2179
  541PEP     CB17948  -0.295   3.746  17.929  0.2372 -0.0665 -0.0202
  541PEP     CB17949  -0.384   3.333  18.055  0.1863 -0.0932 -0.0326
  541PEP     CB17950  -0.754   3.025  17.882 -0.2679 -0.1424 -0.2041
  541PEP     CB17951  -1.086   3.081  17.552  0.3177 -0.1301 -0.2056
  541PEP     CB17952  -1.182   3.377  17.281  0.2809  0.0705 -0.0563
  541PEP     CB17953  -0.909   3.694  17.181  0.3677 -0.5778  0.1334
  541PEP     CB17954  -0.455   3.551  17.149 -0.3361 -0.3814  0.4461
  541PEP     CB17955  -0.213   3.160  16.990 -0.0995  0.0050 -0.3900
  541PEP     CB17956  -0.110   2.812  16.744 -0.2731  0.3044  0.0271
  541PEP     CB17957   0.245   2.652  16.408  0.0961  0.0515  0.3927
  541PEP     CB17958   0.532   2.491  16.589 -0.1629  0.0511  0.4135
  541PEP     CB17959   0.494   2.432  17.093  0.2109  0.0156  0.2598
  541PEP     CB17960   0.485   2.506  17.489  0.1231  0.2524 -0.0858
  542PEP     CB17961   2.109   1.186   9.817  0.3752  0.2400  0.1253
  542PEP     CB17962   1.675   1.216   9.992  0.0793  0.1711  0.3484
  542PEP     CB17963   1.516   0.843  10.310  0.0443 -0.2177 -0.0223
  542PEP     CB17964   1.310   0.446  10.425 -0.1614  0.0655 -0.0705
  542PEP     CB17965   1.191   0.056  10.608  0.0682  0.0458  0.1270
  542PEP     CB17966   0.886  -0.283  10.670 -0.2596 -0.1953 -0.3149
  542PEP     CB17967   0.769  -0.665  10.521 -0.1722 -0.0060  0.4289
  542PEP     CB17968   0.806  -1.019  10.625 -0.0150  0.0951 -0.0354
  542PEP     CB17969   0.506  -1.430  10.722  0.3029  0.0419  0.2729
  542PEP     CB17970   0.229  -1.868  10.610  0.3834 -0.4795  0.0481
  542PEP     CB17971   0.314  -2.254  10.782 -0.0884  0.2280 -0.2230
  542PEP     CB17972   0.658  -2.544  10.889  0.1014  0.2714  0.2152
  542PEP     CB17973   1.057  -2.637  10.786  0.2191  0.1743 -0.2013
  542PEP     CB17974   1.434  -2.895  10.877 -0.2084  0.2482  0.1524
  542PEP     CB17975   1.351  -3.334  11.146 -0.3011  0.3534  0.0670
  542PEP     CB17976   0.926  -3.527  11.243  0.2468  0.3646 -0.0229
  542PEP     CB17977   0.456  -3.717  11.269  0.1195  0.3933  0.0672
  542PEP     CB17978   0.171  -3.857  10.944 -0.2369  0.0834 -0.1562
  542PEP     CB17979   0.225  -4.078  10.550  0.1668 -0.2202  0.0550
  542PEP     CB17980   0.114  -4.294  10.224 -0.3466 -0.0647 -0.0223
  542PEP     CB17981  -0.068  -4.353   9.816 -0.3366 -0.2293 -0.1991
  542PEP     CB17982  -0.239  -4.642   9.406 -0.1107  0.1286  0.0046
  542PEP     CB17983  -0.253  -5.090   9.243  0.0155 -0.0206 -0.1479
  542PEP     CB17984  -0.200  -5.533   9.168  0.1359 -0.0072 -0.7055
  542PEP     CB17985  -0.393  -5.888   8.983  0.0833 -0.0561  0.1912
  542PEP     CB17986  -0.412  -6.328   8.804 -0.0478 -0.2549 -0.1657
  542PEP     CB17987  -0.482  -6.831   8.713  0.4300 -0.3587 -0.0520
  542PEP     CB17988  -0.669  -7.157   8.445 -0.2111 -0.0135  0.0241
  542PEP     CB17989  -0.908  -7.496   8.286  0.1189 -0.1092 -0.1338
  542PEP     CB17990  -1.317  -7.454   8.036  0.0437  0.0759 -0.4909
  542PEP     CB17991  -1.669  -7.259   8.047 -0.2388  0.1293  0.2050
  542PEP     CB17992  -1.745  -6.807   7.944  0.1264  0.1024 -0.0741
  542PEP     CB17993  -1.619  -6.567   7.555 -0.1431 -0.0509 -0.1217
  542PEP     CB17994  -1.668  -6.617   7.063  0.0187  0.4092  0.1601
  542PEP     CB17995  -1.652  -6.504   6.668  0.1585 -0.4420  0.0786
  542PEP     CB17996  -1.510  -6.669   6.254  0.3265  0.3788  0.1831
  542PEP     CB17997  -1.218  -6.652   5.932 -0.0139 -0.4306  0.3659
  542PEP     CB17998  -0.776  -6.636   5.977 -0.3530  0.0088 -0.0161
  542PEP     CB17999  -0.680  -6.312   6.214 -0.1321 -0.0519 -0.4891
  542PEP     CB18000  -0.670  -6.129   6.687  0.2058 -0.6375 -0.0838
  543PEP     CB18001  11.354  19.577   9.973 -0.3641  0.1194 -0.2964
  543PEP     CB18002  11.393  19.227  10.036 -0.0331 -0.0538 -0.4405
  543PEP     CB18003  11.477  18.786  10.106  0.0081  0.0674  0.4368
  543PEP     CB18004  11.441  18.438  10.463  0.0198 -0.1017  0.0032
  543PEP     CB18005  11.459  18.111  10.758 -0.3199  0.0473 -0.1701
  543PEP     CB18006  11.642  17.606  10.788  0.1271  0.1777 -0.4727
  543PEP     CB18007  11.660  17.250  10.597 -0.3585  0.5500  0.1112
  543PEP     CB18008  11.418  17.269  10.170  0.0428 -0.0130  0.1257
  543PEP     CB18009  11.390  17.626   9.852 -0.0675 -0.0973  0.1588
  543PEP     CB18010  11.677  17.770   9.560  0.4506 -0.2386  0.0481
  543PEP     CB18011  12.120  17.508   9.470 -0.2462  0.1260 -0.1038
  543PEP     CB18012  12.571  17.654   9.431  0.2134  0.1124 -0.0611
  543PEP     CB18013  12.938  17.799   9.506 -0.0597  0.0215  0.3781
  543PEP     CB18014  13.269  18.016   9.240 -0.0878 -0.0585  0.2057
  543PEP     CB18015  13.158  18.096   8.863 -0.1535  0.2978 -0.0976
  543PEP     CB18016  12.833  18.376   8.755  0.5818 -0.0066  0.0871
  543PEP     CB18017  12.651  18.653   9.040 -0.0716 -0.1753  0.3682
  543PEP     CB18018  12.751  18.749   9.439 -0.1493  0.1087 -0.0429
  543PEP     CB18019  12.833  19.132   9.705  0.0568  0.0633  0.3214
  543PEP     CB18020  13.071  19.423   9.840 -0.0699  0.2342  0.0913
  543PEP     CB18021  13.318  19.846   9.791 -0.1953 -0.1693  0.1831
  543PEP     CB18022  13.533  20.208   9.624  0.1543  0.1709 -0.1639
  543PEP     CB18023  13.814  20.604   9.470 -0.0869 -0.1476 -0.4172
  543PEP     CB18024  14.218  20.807   9.631 -0.2251 -0.3669  0.2742
  543PEP     CB18025  14.607  20.614   9.823 -0.0906  0.0415 -0.1683
  543PEP     CB18026  14.995  20.493   9.959 -0.0179  0.0300  0.2713
  543PEP     CB18027  15.217  20.700  10.183 -0.3755  0.2269  0.1430
  543PEP     CB18028  15.320  21.164  10.220  0.4273 -0.0572 -0.2951
  543PEP     CB18029  15.405  21.547  10.420 -0.2147 -0.5457 -0.1175
  543PEP     CB18030  15.250  21.908  10.678  0.0682  0.0800 -0.1970
  543PEP     CB18031  15.413  21.927  11.044  0.2523 -0.1130 -0.2807
  543PEP     CB18032  15.754  21.770  11.310 -0.2481  0.0199  0.1314
  543PEP     CB18033  15.970  21.307  11.199 -0.2313 -0.1052  0.2355
  543PEP     CB18034  15.880  20.952  11.027  0.7079 -0.1554 -0.0586
  543PEP     CB18035  15.412  20.694  11.037  0.1403  0.0922 -0.0270
  543PEP     CB18036  14.931  20.763  11.084 -0.0419 -0.0222 -0.4311
  543PEP     CB18037  14.570  20.643  10.986  0.1151  0.1063 -0.0091
  543PEP     CB18038  14.348  20.351  10.986 -0.0952 -0.1900  0.3864
  543PEP     CB18039  14.117  19.973  10.801 -0.0165 -0.2802 -0.2275
  543PEP     CB18040  13.775  19.707  10.726  0.1164  0.1865  0.4117
  544PEP     CB18041   0.618  12.426   9.513  0.2173 -0.2408  0.0220
  544PEP     CB18042   0.291  12.424   9.652 -0.4039  0.1730 -0.0916
  544PEP     CB18043   0.139  12.287   9.958  0.0016  0.1530  0.3766
  544PEP     CB18044   0.004  12.032  10.201 -0.0474 -0.1215  0.0592
  544PEP     CB18045  -0.279  11.898  10.448 -0.0299  0.3686 -0.0866
  544PEP     CB18046  -0.721  11.925  10.593  0.1201  0.1684 -0.0316
  544PEP     CB18047  -1.043  12.167  10.290 -0.0787 -0.1025  0.1811
  544PEP     CB18048  -1.035  12.179   9.862 -0.0411  0.3161  0.1859
  544PEP     CB18049  -1.028  11.744   9.655  0.1595 -0.2213 -0.1973
  544PEP     CB18050  -1.330  11.454   9.592  0.3716 -0.2712  0.0870
  544PEP     CB18051  -1.534  11.280   9.248 -0.0368 -0.3496  0.3652
  544PEP     CB18052  -1.971  11.181   9.148  0.2399  0.1982  0.2712
  544PEP     CB18053  -2.346  10.928   9.011 -0.2151  0.0914 -0.0194
  544PEP     CB18054  -2.714  10.647   8.899  0.3191 -0.2523 -0.2604
  544PEP     CB18055  -3.179  10.509   9.044  0.0186 -0.0006  0.1096
  544PEP     CB18056  -3.530  10.332   9.057  0.2826  0.1521 -0.2243
  544PEP     CB18057  -4.006  10.433   9.041  0.3953  0.0536  0.0426
  544PEP     CB18058  -4.352  10.684   9.126  0.2302 -0.1374 -0.1660
  544PEP     CB18059  -4.688  11.063   9.081  0.0423 -0.4117 -0.2572
  544PEP     CB18060  -4.950  11.239   8.976 -0.2573  0.0994 -0.0358
  544PEP     CB18061  -5.085  11.599   8.826 -0.2608 -0.2000 -0.1838
  544PEP     CB18062  -5.168  11.976   8.940  0.2897  0.0965  0.0942
  544PEP     CB18063  -4.991  12.351   9.152 -0.3095  0.3791 -0.0986
  544PEP     CB18064  -4.721  12.535   9.538 -0.2630 -0.0752  0.2531
  544PEP     CB18065  -4.299  12.662   9.765  0.0379  0.0732 -0.4241
  544PEP     CB18066  -3.963  12.407   9.985  0.7502  0.0224  0.3039
  544PEP     CB18067  -4.086  12.249  10.354  0.1553  0.2345  0.3224
  544PEP     CB18068  -4.510  12.102  10.503  0.0591  0.1074 -0.4033
  544PEP     CB18069  -4.789  11.785  10.515 -0.0732  0.3018 -0.0844
  544PEP     CB18070  -4.790  11.294  10.623  0.2061 -0.1458 -0.0285
  544PEP     CB18071  -4.769  10.891  10.883  0.2319  0.2625  0.1039
  544PEP     CB18072  -4.534  10.759  11.242 -0.1233  0.0333 -0.1126
  544PEP     CB18073  -4.339  11.057  11.539  0.2675  0.1117 -0.2694
  544PEP     CB18074  -4.236  11.426  11.739  0.1530  0.3033 -0.2182
  544PEP     CB18075  -4.403  11.769  11.856  0.1278  0.0450  0.0154
  544PEP     CB18076  -4.412  12.185  11.876  0.2434  0.0968  0.0384
  544PEP     CB18077  -4.216  12.518  11.880 -0.2293 -0.0319  0.2039
  544PEP     CB18078  -3.951  12.846  11.542  0.0994  0.3072 -0.0460
  544PEP     CB18079  -3.813  13.123  11.242 -0.1370 -0.2038 -0.2905
  544PEP     CB18080  -3.554  13.472  11.152 -0.3911 -0.2728 -0.2099
  545PEP     CB18081   7.330   8.552   1.777 -0.1729  0.1931  0.0516
  545PEP     CB18082   7.320   8.986   1.978 -0.1388  0.2690  0.0002
  545PEP     CB18083   7.183   9.419   1.967  0.1192  0.1315  0.0806
  545PEP     CB18084   7.050   9.896   1.934  0.1126 -0.1578 -0.2494
  545PEP     CB18085   6.771  10.204   1.982  0.1910 -0.0412  0.5042
  545PEP     CB18086   6.538  10.540   2.145  0.0109 -0.1920 -0.1969
  545PEP     CB18087   6.365  10.887   2.477 -0.2756  0.0870 -0.2609
  545PEP     CB18088   6.132  11.109   2.775 -0.0066 -0.0788  0.3311
  545PEP     CB18089   5.802  11.034   3.022  0.0325 -0.2270 -0.1673
  545PEP     CB18090   5.649  10.621   3.231  0.0006 -0.0733 -0.1712
  545PEP     CB18091   5.895  10.282   3.286 -0.1164  0.2433  0.1898
  545PEP     CB18092   6.296  10.094   3.219  0.1040 -0.2216  0.3279
  545PEP     CB18093   6.543   9.858   2.919 -0.6114  0.2860  0.0966
  545PEP     CB18094   6.967   9.947   2.731 -0.1983  0.0060  0.2878
  545PEP     CB18095   7.354  10.242   2.789 -0.1136 -0.0776  0.1230
  545PEP     CB18096   7.589  10.428   2.598 -0.0551 -0.3500 -0.0716
  545PEP     CB18097   7.892  10.408   2.232  0.1137  0.0816  0.4083
  545PEP     CB18098   8.045  10.609   1.908  0.3697  0.2801 -0.1313
  545PEP     CB18099   8.356  10.697   1.612 -0.0216 -0.1200  0.3522
  545PEP     CB18100   8.651  11.033   1.558  0.2073 -0.0826 -0.3068
  545PEP     CB18101   8.998  11.353   1.382  0.1056 -0.0065  0.2928
  545PEP     CB18102   9.472  11.547   1.416  0.1107 -0.0938  0.1724
  545PEP     CB18103   9.794  11.832   1.500  0.0042 -0.0763  0.1618
  545PEP     CB18104  10.152  12.025   1.685 -0.1776  0.1220 -0.2841
  545PEP     CB18105  10.489  11.938   1.807  0.5007 -0.2810  0.0818
  545PEP     CB18106  10.711  11.910   2.202  0.1221  0.0049  0.1646
  545PEP     CB18107  10.778  12.320   2.423 -0.2403 -0.3177 -0.2209
  545PEP     CB18108  10.626  12.523   2.710 -0.0779 -0.1177  0.1360
  545PEP     CB18109  10.662  12.935   2.878 -0.0661  0.1979 -0.0233
  545PEP     CB18110  10.904  13.304   2.816  0.0394 -0.1155 -0.2354
  545PEP     CB18111  11.210  13.468   2.612  0.2880 -0.1202 -0.3187
  545PEP     CB18112  11.576  13.641   2.567 -0.1079 -0.3821 -0.2783
  545PEP     CB18113  11.962  13.758   2.580  0.4385  0.1026 -0.1635
  545PEP     CB18114  12.398  13.715   2.471  0.3190 -0.4226  0.0018
  545PEP     CB18115  12.769  13.805   2.804  0.2002 -0.2997  0.4498
  545PEP     CB18116  12.710  13.772   3.250  0.1129  0.0173  0.0407
  545PEP     CB18117  12.340  13.603   3.401 -0.2066 -0.2310 -0.0548
  545PEP     CB18118  12.048  13.399   3.267  0.2761  0.0384  0.3204
  545PEP     CB18119  11.752  13.067   3.347 -0.2422  0.2354 -0.7131
  545PEP     CB18120  11.625  12.706   3.569  0.0224  0.5052 -0.1571
  546PEP     CB18121  11.529   8.674  18.758  0.4827 -0.0894 -0.0447
  546PEP     CB18122  11.375   8.258  18.695  0.3654 -0.2385  0.0552
  546PEP     CB18123  11.321   7.852  18.880  0.0658 -0.0440 -0.4976
  546PEP     CB18124  11.367   7.551  19.275 -0.0685  0.0359 -0.2423
  546PEP     CB18125  11.534   7.230  19.591  0.1188 -0.2517  0.3606
  546PEP     CB18126  11.963   7.251  19.756  0.1590 -0.0176  0.3927
  546PEP     CB18127  12.294   7.660  19.705 -0.0034  0.7581 -0.0327
  546PEP     CB18128  12.282   8.025  19.437 -0.0799  0.1559  0.4360
  546PEP     CB18129  12.121   8.370  19.387  0.2751  0.3814  0.0762
  546PEP     CB18130  12.008   8.769  19.217 -0.3615  0.0205  0.0332
  546PEP     CB18131  12.162   9.153  19.299  0.2521 -0.0037 -0.2758
  546PEP     CB18132  12.480   9.270  19.531  0.0432  0.1598 -0.2809
  546PEP     CB18133  12.937   9.312  19.517  0.2265 -0.1259  0.2243
  546PEP     CB18134  13.355   9.266  19.544 -0.1450 -0.0468  0.1288
  546PEP     CB18135  13.770   9.008  19.611  0.0466 -0.3335  0.0739
  546PEP     CB18136  14.151   8.811  19.522 -0.3328  0.0387 -0.0476
  546PEP     CB18137  14.362   8.441  19.460  0.0440  0.1466  0.1625
  546PEP     CB18138  14.388   8.058  19.324 -0.3734 -0.0033  0.0471
  546PEP     CB18139  14.338   7.686  19.095 -0.2209 -0.1172 -0.3211
  546PEP     CB18140  14.419   7.274  18.969  0.1032  0.0377  0.0177
  546PEP     CB18141  14.273   6.938  18.938  0.0590 -0.0478  0.4524
  546PEP     CB18142  14.037   6.461  18.937  0.0253  0.4678 -0.2539
  546PEP     CB18143  14.037   6.046  19.175 -0.1489  0.2676 -0.3554
  546PEP     CB18144  13.817   5.898  19.476 -0.0147  0.2561  0.1875
  546PEP     CB18145  13.534   5.753  19.948 -0.1749  0.3967 -0.1402
  546PEP     CB18146  13.179   5.848  20.441 -0.0687 -0.4326  0.2636
  546PEP     CB18147  12.953   5.970  20.695  0.0193 -0.2526 -0.1750
  546PEP     CB18148  12.971   6.116  21.054 -0.4389 -0.1398  0.2230
  546PEP     CB18149  12.874   6.558  21.257  0.0572  0.0694 -0.0311
  546PEP     CB18150  12.547   6.769  21.208  0.1450 -0.1885  0.1392
  546PEP     CB18151  12.352   7.267  21.170 -0.1520 -0.3552 -0.0973
  546PEP     CB18152  12.078   7.634  21.108 -0.0645  0.0271 -0.4361
  546PEP     CB18153  11.853   8.017  21.154  0.0473  0.0306 -0.9733
  546PEP     CB18154  11.780   8.502  21.140  0.2569  0.1438  0.1677
  546PEP     CB18155  11.815   8.882  20.923  0.0647 -0.0926 -0.0668
  546PEP     CB18156  11.797   9.144  20.608 -0.3036 -0.4225  0.1038
  546PEP     CB18157  11.484   9.156  20.283  0.3014 -0.0723 -0.1710
  546PEP     CB18158  11.371   9.366  19.888  0.0560  0.0597 -0.3702
  546PEP     CB18159  11.387   9.693  19.589  0.1154 -0.0356 -0.2311
  546PEP     CB18160  11.660  10.001  19.362 -0.3188 -0.2784 -0.0351
  547PEP     CB18161  11.062  20.460  10.680  0.0853 -0.1315  0.0853
  547PEP     CB18162  10.791  20.119  10.680  0.0469  0.0406 -0.2317
  547PEP     CB18163  10.380  19.962  10.624 -0.1791  0.2954 -0.4095
  547PEP     CB18164   9.966  20.030  10.528  0.0345  0.1034  0.3417
  547PEP     CB18165   9.727  20.000  10.170 -0.1865  0.1018  0.2184
  547PEP     CB18166   9.693  20.329   9.830 -0.2152  0.0911  0.1899
  547PEP     CB18167   9.981  20.600   9.655  0.1999  0.0651  0.3027
  547PEP     CB18168  10.198  20.942   9.759  0.3528 -0.1326  0.1697
  547PEP     CB18169  10.292  21.120  10.203 -0.4832 -0.3689 -0.1960
  547PEP     CB18170   9.999  21.026  10.550 -0.0556  0.2461 -0.0905
  547PEP     CB18171   9.605  21.027  10.732 -0.0589  0.1630  0.0722
  547PEP     CB18172   9.370  20.945  11.059  0.0297  0.0223  0.2121
  547PEP     CB18173   9.088  21.078  11.431 -0.2947  0.0795  0.1693
  547PEP     CB18174   8.778  21.214  11.664  0.3393  0.0354  0.0803
  547PEP     CB18175   8.388  21.195  11.868 -0.0483  0.1119 -0.5054
  547PEP     CB18176   8.047  20.955  11.954  0.3573 -0.1615  0.2103
  547PEP     CB18177   7.955  20.605  11.796  0.0367 -0.0801 -0.3176
  547PEP     CB18178   7.879  20.433  11.455  0.0813  0.1602  0.4414
  547PEP     CB18179   7.787  20.288  11.016  0.4060 -0.6518 -0.2736
  547PEP     CB18180   7.598  20.358  10.629 -0.2716 -0.5220  0.3987
  547PEP     CB18181   7.435  20.214  10.169 -0.1399  0.0728 -0.0007
  547PEP     CB18182   7.225  20.105   9.754 -0.0099 -0.4397 -0.0335
  547PEP     CB18183   6.846  20.050   9.565 -0.0183 -0.1251 -0.0369
  547PEP     CB18184   6.522  20.154   9.331 -0.2548  0.3391  0.1813
  547PEP     CB18185   6.310  20.197   8.912  0.1096  0.3234  0.2331
  547PEP     CB18186   6.558  20.004   8.534  0.2784 -0.2619  0.0339
  547PEP     CB18187   6.608  19.609   8.175 -0.0063  0.1003  0.1422
  547PEP     CB18188   6.784  19.197   8.033  0.0875  0.2096  0.1033
  547PEP     CB18189   7.181  19.136   7.983 -0.3306  0.0501  0.1637
  547PEP     CB18190   7.552  19.429   8.296  0.0103 -0.2743  0.1440
  547PEP     CB18191   7.992  19.473   8.447  0.1972 -0.1555 -0.4974
  547PEP     CB18192   8.403  19.638   8.576  0.2302  0.3990  0.0786
  547PEP     CB18193   8.593  20.138   8.521  0.1412  0.2043 -0.2744
  547PEP     CB18194   8.637  20.403   8.132 -0.2726 -0.1174  0.3752
  547PEP     CB18195   8.959  20.444   7.924 -0.0613  0.0045  0.3539
  547PEP     CB18196   9.202  20.658   7.516 -0.2936 -0.1186  0.1774
  547PEP     CB18197   9.236  20.630   7.113  0.2966 -0.1704  0.1623
  547PEP     CB18198   9.177  20.468   6.715  0.0562  0.0095 -0.0169
  547PEP     CB18199   8.835  20.312   6.486  0.2709 -0.5114 -0.1964
  547PEP     CB18200   8.447  20.379   6.517  0.1837 -0.0422  0.3210
  548PEP     CB18201  20.190   1.124   2.660  0.1582  0.1796  0.3746
  548PEP     CB18202  20.438   0.955   2.870 -0.4378 -0.2154  0.0307
  548PEP     CB18203  20.920   1.164   2.970  0.1614  0.0847  0.3606
  548PEP     CB18204  20.927   1.565   3.161 -0.0168 -0.4309 -0.0844
  548PEP     CB18205  20.503   1.825   3.197  0.2313  0.2547  0.5351
  548PEP     CB18206  20.128   1.709   3.328 -0.1463  0.0824  0.3419
  548PEP     CB18207  20.055   1.377   3.483 -0.0131  0.3279 -0.0049
  548PEP     CB18208  20.189   1.099   3.750  0.0491 -0.1164 -0.3395
  548PEP     CB18209  20.241   1.297   4.133  0.0945  0.0545 -0.0648
  548PEP     CB18210  20.101   1.626   4.350 -0.4438  0.3584 -0.0065
  548PEP     CB18211  19.888   1.868   4.755  0.0588 -0.1525  0.0211
  548PEP     CB18212  20.011   2.146   5.024  0.0723  0.0836  0.0523
  548PEP     CB18213  19.936   2.270   5.417  0.0083 -0.1497  0.4100
  548PEP     CB18214  19.674   2.533   5.622  0.0228 -0.1893  0.1040
  548PEP     CB18215  19.303   2.358   5.681  0.4551  0.0815  0.0592
  548PEP     CB18216  19.016   2.025   5.708  0.3992 -0.1032 -0.3883
  548PEP     CB18217  18.734   1.806   5.498  0.0575  0.1244 -0.1361
  548PEP     CB18218  18.776   1.413   5.362  0.0243 -0.5549  0.3072
  548PEP     CB18219  19.174   1.191   5.367  0.0576 -0.0413  0.3930
  548PEP     CB18220  19.558   0.903   5.244  0.0891 -0.1049 -0.2712
  548PEP     CB18221  19.478   0.497   4.972  0.1621  0.4445 -0.2493
  548PEP     CB18222  19.119   0.560   4.700 -0.0222 -0.3904  0.0900
  548PEP     CB18223  18.795   0.473   4.295  0.0210  0.2713  0.2897
  548PEP     CB18224  18.839   0.672   3.945 -0.2275  0.0661  0.0361
  548PEP     CB18225  19.129   0.924   3.823  0.1537 -0.1386  0.3664
  548PEP     CB18226  19.435   1.136   3.969  0.2685 -0.0538  0.2557
  548PEP     CB18227  19.715   1.334   4.246  0.2997  0.4806 -0.0970
  548PEP     CB18228  19.634   1.487   4.498  0.2170 -0.2214  0.0419
  548PEP     CB18229  19.142   1.614   4.514 -0.3150 -0.3330  0.3699
  548PEP     CB18230  18.669   1.576   4.489 -0.4763 -0.1247 -0.1948
  548PEP     CB18231  18.279   1.538   4.634  0.2846 -0.3112 -0.0121
  548PEP     CB18232  18.078   1.659   4.977 -0.4241  0.1483  0.1854
  548PEP     CB18233  18.078   2.077   5.127  0.5821 -0.0526 -0.1111
  548PEP     CB18234  18.014   2.451   4.820  0.0888 -0.0643  0.1106
  548PEP     CB18235  18.015   2.341   4.380 -0.0999 -0.1388 -0.0206
  548PEP     CB18236  18.302   2.031   4.374 -0.0551 -0.1355 -0.0072
  548PEP     CB18237  18.455   2.058   4.791  0.0950 -0.4824 -0.0122
  548PEP     CB18238  18.509   2.468   4.910  0.2212 -0.0329 -0.2588
  548PEP     CB18239  18.356   2.743   4.557 -0.0415 -0.0722 -0.1236
  548PEP     CB18240  18.453   2.515   4.147  0.1633 -0.4481 -0.0077
  549PEP     CB18241  13.799   8.388   5.234 -0.3099  0.2049  0.1063
  549PEP     CB18242  13.612   8.157   4.889 -0.0882 -0.0253  0.1992
  549PEP     CB18243  13.217   8.166   4.801  0.2351  0.4038 -0.1319
  549PEP     CB18244  12.890   8.313   5.076  0.0790 -0.0812 -0.1278
  549PEP     CB18245  12.951   8.398   5.527 -0.1912 -0.0653 -0.4257
  549PEP     CB18246  13.036   8.168   5.897 -0.4393  0.1294  0.1150
  549PEP     CB18247  13.358   8.106   6.212  0.3382 -0.2658  0.0267
  549PEP     CB18248  13.492   8.129   6.636 -0.0520  0.2178  0.1251
  549PEP     CB18249  13.341   8.304   7.086 -0.0060 -0.2744  0.1199
  549PEP     CB18250  13.015   8.074   7.344  0.2047  0.2812  0.0019
  549PEP     CB18251  13.120   7.664   7.440  0.0773  0.2909  0.1258
  549PEP     CB18252  13.330   7.241   7.287 -0.2562 -0.4356 -0.1772
  549PEP     CB18253  13.390   6.876   7.044  0.1116 -0.0537 -0.1986
  549PEP     CB18254  13.142   6.585   7.163  0.2185  0.5199  0.3060
  549PEP     CB18255  12.917   6.412   7.444  0.0592  0.1133  0.0873
  549PEP     CB18256  12.898   5.953   7.601 -0.1589  0.0815 -0.2972
  549PEP     CB18257  13.159   5.642   7.541 -0.0124  0.1494 -0.1124
  549PEP     CB18258  13.145   5.355   7.200  0.1270 -0.0845 -0.2077
  549PEP     CB18259  12.814   5.321   6.944 -0.1527  0.4121  0.1628
  549PEP     CB18260  12.391   5.484   7.049  0.2918 -0.0218 -0.1598
  549PEP     CB18261  12.143   5.835   6.915 -0.4816  0.1985  0.2950
  549PEP     CB18262  12.335   6.189   6.766  0.0322  0.0603 -0.2115
  549PEP     CB18263  12.694   6.302   6.402 -0.0991  0.0718  0.1224
  549PEP     CB18264  12.894   6.063   6.021 -0.3634  0.0077 -0.0718
  549PEP     CB18265  13.258   5.940   5.677  0.4328  0.2184 -0.2033
  549PEP     CB18266  13.375   5.894   5.285 -0.0630  0.0921  0.3247
  549PEP     CB18267  13.222   5.600   4.964  0.3021 -0.0194  0.0108
  549PEP     CB18268  12.975   5.216   4.889 -0.3016 -0.0619  0.3610
  549PEP     CB18269  12.800   4.788   4.638 -0.2575  0.2801  0.2891
  549PEP     CB18270  12.683   4.383   4.364 -0.0487  0.0800 -0.0544
  549PEP     CB18271  12.559   3.990   4.337  0.0566  0.1963 -0.2148
  549PEP     CB18272  12.277   3.622   4.187  0.0775  0.1515 -0.3713
  549PEP     CB18273  12.065   3.318   4.256 -0.0518 -0.1068  0.1241
  549PEP     CB18274  12.017   2.912   4.417 -0.1350 -0.1299  0.2059
  549PEP     CB18275  12.473   2.788   4.599  0.1829  0.1030  0.0546
  549PEP     CB18276  12.865   2.562   4.705  0.2368 -0.0414 -0.1637
  549PEP     CB18277  13.245   2.378   4.622  0.0054  0.1917 -0.1377
  549PEP     CB18278  13.661   2.382   4.740  0.0651  0.5459 -0.1445
  549PEP     CB18279  13.850   2.162   5.133  0.1319 -0.4391  0.0677
  549PEP     CB18280  13.669   1.841   5.396 -0.0698 -0.4098  0.0403
  550PEP     CB18281   4.266  17.489  19.440 -0.2363 -0.0053  0.0922
  550PEP     CB18282   4.515  17.198  19.609 -0.0249  0.0060  0.2955
  550PEP     CB18283   4.596  16.729  19.604 -0.0712 -0.0127 -0.1506
  550PEP     CB18284   4.305  16.411  19.619 -0.2516  0.0790  0.1890
  550PEP     CB18285   3.919  16.393  19.486  0.2981 -0.3044 -0.0448
  550PEP     CB18286   3.601  16.557  19.235  0.2012 -0.4978  0.4725
  550PEP     CB18287   3.563  16.516  18.757 -0.3207 -0.0077 -0.0176
  550PEP     CB18288   3.565  16.436  18.362 -0.2564 -0.0805  0.2724
  550PEP     CB18289   3.682  16.187  18.038 -0.0679 -0.0496  0.0184
  550PEP     CB18290   3.740  15.810  17.819  0.3702 -0.4687  0.1918
  550PEP     CB18291   4.016  15.508  17.727  0.1533  0.2900  0.0754
  550PEP     CB18292   4.176  15.055  17.716 -0.3038  0.0026  0.1191
  550PEP     CB18293   4.573  14.829  17.748 -0.2143  0.1291 -0.4404
  550PEP     CB18294   4.848  14.636  17.364 -0.3968 -0.0820  0.1450
  550PEP     CB18295   5.141  14.534  17.208 -0.1450 -0.2576  0.1382
  550PEP     CB18296   5.377  14.198  16.976 -0.1044 -0.2232 -0.0898
  550PEP     CB18297   5.664  14.021  16.748  0.1831  0.1306  0.0481
  550PEP     CB18298   6.100  14.126  16.706 -0.0922  0.3372 -0.0936
  550PEP     CB18299   6.482  14.044  17.031 -0.5154  0.4501 -0.0061
  550PEP     CB18300   6.877  13.914  17.042 -0.3478  0.2373 -0.0023
  550PEP     CB18301   7.282  13.913  16.947 -0.6081  0.0601  0.2550
  550PEP     CB18302   7.686  13.975  16.839  0.2951  0.5517 -0.0274
  550PEP     CB18303   8.137  13.801  16.846  0.6258 -0.1912  0.0269
  550PEP     CB18304   8.521  13.663  16.630  0.0136 -0.2084 -0.0402
  550PEP     CB18305   8.634  13.337  16.379  0.0748 -0.1953 -0.1853
  550PEP     CB18306   8.770  13.005  16.062  0.0337 -0.0580  0.2166
  550PEP     CB18307   8.654  12.695  15.731  0.1148  0.0170 -0.2510
  550PEP     CB18308   8.301  12.646  15.571  0.1644 -0.0851  0.1255
  550PEP     CB18309   7.853  12.779  15.595  0.2600  0.0946  0.1775
  550PEP     CB18310   7.438  12.517  15.549  0.4590 -0.1938 -0.0067
  550PEP     CB18311   7.057  12.465  15.553  0.2295 -0.0758  0.0142
  550PEP     CB18312   6.678  12.570  15.315  0.2920 -0.2163 -0.1753
  550PEP     CB18313   6.583  12.980  15.124 -0.4323 -0.2461  0.1661
  550PEP     CB18314   6.751  13.345  15.092 -0.0080 -0.3315 -0.0368
  550PEP     CB18315   6.982  13.681  15.173  0.1623 -0.0550  0.1124
  550PEP     CB18316   7.316  13.890  15.349  0.0336 -0.1146 -0.3666
  550PEP     CB18317   7.534  14.186  15.376  0.3408  0.0426  0.2761
  550PEP     CB18318   7.881  14.487  15.370  0.1872 -0.0310 -0.2408
  550PEP     CB18319   8.250  14.661  15.333  0.0731  0.0731 -0.0347
  550PEP     CB18320   8.546  14.645  14.988 -0.1483 -0.2519  0.1085
  551PEP     CB18321  19.729  20.005  11.479 -0.1000  0.1535 -0.1060
  551PEP     CB18322  20.126  20.195  11.403  0.0411  0.2821  0.1390
  551PEP     CB18323  20.488  20.403  11.527 -0.1346 -0.1010 -0.1363
  551PEP     CB18324  20.834  20.687  11.539 -0.0159 -0.0084  0.0256
  551PEP     CB18325  20.909  21.105  11.402 -0.3365 -0.1525  0.3774
  551PEP     CB18326  20.646  21.345  11.263 -0.0155 -0.3036  0.1790
  551PEP     CB18327  20.448  21.729  11.031 -0.2945  0.0249  0.2843
  551PEP     CB18328  20.245  21.884  10.746  0.3293 -0.0982  0.0826
  551PEP     CB18329  20.256  21.734  10.376  0.2293  0.0546 -0.5589
  551PEP     CB18330  20.298  21.764   9.970 -0.0873  0.2161  0.5853
  551PEP     CB18331  20.348  21.769   9.577 -0.1486 -0.1582  0.3351
  551PEP     CB18332  20.214  21.870   9.159 -0.2043  0.1758 -0.1075
  551PEP     CB18333  20.012  21.786   8.851  0.1008  0.1787 -0.1462
  551PEP     CB18334  19.540  21.703   8.788  0.0889 -0.0861 -0.1180
  551PEP     CB18335  19.243  21.509   9.045  0.2688 -0.1233 -0.5966
  551PEP     CB18336  19.046  21.423   9.526  0.0775  0.0140 -0.0681
  551PEP     CB18337  19.222  21.332   9.961 -0.2687  0.1037 -0.4530
  551PEP     CB18338  19.295  21.470  10.331  0.2443 -0.2471 -0.0991
  551PEP     CB18339  18.967  21.734  10.515  0.2316  0.2520  0.4043
  551PEP     CB18340  18.550  21.780  10.507 -0.2508 -0.2164 -0.1644
  551PEP     CB18341  18.208  21.564  10.436  0.0583  0.0964  0.1649
  551PEP     CB18342  18.011  21.185  10.387 -0.0549 -0.2185  0.0009
  551PEP     CB18343  17.802  20.931  10.063 -0.4627  0.1006 -0.2210
  551PEP     CB18344  17.699  20.888   9.571  0.2120  0.1019 -0.3291
  551PEP     CB18345  17.338  20.752   9.153 -0.2245  0.0913  0.0224
  551PEP     CB18346  16.953  20.722   8.996 -0.3476 -0.0175 -0.0182
  551PEP     CB18347  16.617  20.696   8.703 -0.0937 -0.0893  0.3069
  551PEP     CB18348  16.236  20.750   8.281  0.0134  0.2137  0.1798
  551PEP     CB18349  16.048  21.038   8.115 -0.1504 -0.3031 -0.2674
  551PEP     CB18350  15.865  21.445   8.079 -0.0689 -0.1565 -0.1292
  551PEP     CB18351  15.578  21.844   8.101  0.2037 -0.0260  0.0283
  551PEP     CB18352  15.466  22.281   7.864 -0.1702  0.0964  0.0546
  551PEP     CB18353  15.480  22.680   8.003 -0.3553  0.5557  0.4315
  551PEP     CB18354  15.094  22.829   8.187 -0.0724  0.2031  0.0095
  551PEP     CB18355  14.822  22.823   8.580 -0.1683  0.3254 -0.3178
  551PEP     CB18356  14.592  22.988   8.918  0.1163  0.0382 -0.2066
  551PEP     CB18357  14.201  23.108   8.916  0.2845 -0.1101 -0.1928
  551PEP     CB18358  13.824  22.920   8.829  0.1832 -0.2064  0.1477
  551PEP     CB18359  13.300  22.948   8.847 -0.1438  0.0013  0.1263
  551PEP     CB18360  13.044  23.150   9.084 -0.0677  0.2038  0.2897
  552PEP     CB18361   7.316   7.342  21.353  0.1497  0.1073 -0.1918
  552PEP     CB18362   7.609   7.269  21.662 -0.3233 -0.0899 -0.1013
  552PEP     CB18363   7.761   7.100  22.057  0.2041  0.2097 -0.1114
  552PEP     CB18364   8.050   6.867  22.379 -0.4353 -0.4739  0.0896
  552PEP     CB18365   8.327   6.614  22.454 -0.2233  0.0212  0.4279
  552PEP     CB18366   8.480   6.209  22.231 -0.7743 -0.5049 -0.0504
  552PEP     CB18367   8.709   6.147  21.906  0.4060  0.2064 -0.1804
  552PEP     CB18368   9.099   6.366  21.679  0.2422  0.2633 -0.4957
  552PEP     CB18369   9.259   6.659  21.441 -0.4255 -0.1533  0.1926
  552PEP     CB18370   9.103   6.936  21.084 -0.0728 -0.0258  0.2488
  552PEP     CB18371   8.682   7.107  20.924  0.3249 -0.1816 -0.0501
  552PEP     CB18372   8.506   7.169  20.532 -0.0494  0.3764  0.4247
  552PEP     CB18373   8.691   7.063  20.150  0.1591  0.0013  0.0716
  552PEP     CB18374   8.872   6.721  20.102 -0.1732  0.0500  0.2824
  552PEP     CB18375   8.656   6.302  20.162 -0.2355  0.2035 -0.0804
  552PEP     CB18376   8.288   6.240  19.902 -0.1061 -0.1957 -0.1481
  552PEP     CB18377   7.979   6.441  19.536  0.0331 -0.0497 -0.4633
  552PEP     CB18378   7.998   6.712  19.166  0.0584  0.0160 -0.1435
  552PEP     CB18379   8.435   6.889  19.092  0.0426  0.0799 -0.2257
  552PEP     CB18380   8.788   6.661  19.346 -0.2847  0.0053  0.1614
  552PEP     CB18381   9.157   6.851  19.604  0.5191  0.2097  0.0318
  552PEP     CB18382   9.566   6.814  19.785 -0.0152 -0.0025  0.0592
  552PEP     CB18383   9.819   7.056  20.240 -0.0882 -0.2068 -0.0225
  552PEP     CB18384   9.555   7.154  20.581  0.1054 -0.2209  0.2156
  552PEP     CB18385   9.107   7.079  20.610  0.0922  0.0137 -0.0584
  552PEP     CB18386   8.731   6.700  20.613 -0.1351 -0.1900 -0.0798
  552PEP     CB18387   8.373   6.646  20.342 -0.1241  0.1115  0.0861
  552PEP     CB18388   8.325   6.756  19.826  0.3341  0.5674 -0.0989
  552PEP     CB18389   8.563   7.069  19.597  0.0079 -0.0103 -0.1820
  552PEP     CB18390   8.827   7.254  19.222 -0.2140  0.0038  0.0553
  552PEP     CB18391   9.131   7.492  18.991 -0.2137  0.1813  0.1281
  552PEP     CB18392   8.991   7.734  18.630 -0.0503 -0.0991 -0.2315
  552PEP     CB18393   9.030   7.789  18.188 -0.1458  0.1993 -0.3675
  552PEP     CB18394   9.285   7.555  17.857  0.1348 -0.0378  0.1857
  552PEP     CB18395   9.626   7.576  17.790 -0.2347  0.0674 -0.1214
  552PEP     CB18396   9.958   7.870  17.987  0.2095 -0.3090 -0.1549
  552PEP     CB18397  10.014   8.223  18.170  0.3136 -0.1752 -0.5134
  552PEP     CB18398  10.363   8.494  18.208  0.0577  0.0904  0.1847
  552PEP     CB18399  10.643   8.815  18.237 -0.3783 -0.0756  0.1871
  552PEP     CB18400  10.657   9.247  18.139  0.4431  0.0499  0.1466
  553PEP     CB18401  18.807   4.137  17.564  0.3357  0.2248  0.3174
  553PEP     CB18402  19.104   4.328  17.334 -0.0333  0.1589  0.0752
  553PEP     CB18403  19.460   4.446  17.099  0.1509 -0.0177 -0.3268
  553PEP     CB18404  19.753   4.655  16.883  0.0952 -0.2102 -0.2012
  553PEP     CB18405  20.058   4.848  16.723  0.0309  0.1309  0.2282
  553PEP     CB18406  20.471   5.091  16.767  0.2810 -0.4029 -0.2364
  553PEP     CB18407  20.635   5.418  16.547  0.0801 -0.2194 -0.1202
  553PEP     CB18408  20.351   5.700  16.410 -0.0020  0.0127 -0.0340
  553PEP     CB18409  19.959   5.609  16.273 -0.2924 -0.2084  0.0076
  553PEP     CB18410  19.613   5.694  16.444  0.4317 -0.3675 -0.2722
  553PEP     CB18411  19.530   6.059  16.798  0.4334  0.6554 -0.2572
  553PEP     CB18412  19.478   6.232  17.136  0.0441  0.0140  0.4066
  553PEP     CB18413  19.523   6.441  17.435 -0.1771 -0.0189 -0.5103
  553PEP     CB18414  19.391   6.866  17.530 -0.1921  0.2906 -0.3320
  553PEP     CB18415  19.385   7.072  17.162  0.0350  0.0755  0.2615
  553PEP     CB18416  19.419   6.822  16.807  0.1338  0.0352 -0.0293
  553PEP     CB18417  19.111   6.356  16.758  0.2133  0.3981 -0.2817
  553PEP     CB18418  18.993   5.997  16.995 -0.1177 -0.4009  0.3301
  553PEP     CB18419  19.000   5.844  17.384  0.1300  0.1831 -0.2301
  553PEP     CB18420  19.270   5.798  17.660 -0.1119  0.1081 -0.0183
  553PEP     CB18421  19.578   6.124  17.833 -0.0539  0.2333  0.2547
  553PEP     CB18422  19.972   6.315  18.044 -0.1623 -0.3743 -0.0493
  553PEP     CB18423  20.369   6.487  18.219 -0.4765 -0.5010 -0.2017
  553PEP     CB18424  20.761   6.718  18.164  0.0994  0.2298  0.1465
  553PEP     CB18425  20.902   7.105  17.971 -0.0830 -0.2050  0.2799
  553PEP     CB18426  20.861   7.486  17.739  0.0807  0.4611  0.0707
  553PEP     CB18427  20.584   7.798  17.468  0.0012  0.2069  0.2538
  553PEP     CB18428  20.636   7.988  17.120 -0.1924 -0.0015 -0.2334
  553PEP     CB18429  21.089   7.999  17.023 -0.0539 -0.0933 -0.2893
  553PEP     CB18430  21.483   7.813  17.250  0.1999 -0.3544 -0.2474
  553PEP     CB18431  21.876   7.676  17.311  0.0280 -0.1273 -0.2517
  553PEP     CB18432  22.189   7.540  17.542 -0.2807 -0.2052 -0.1288
  553PEP     CB18433  22.421   7.321  17.852  0.2561 -0.0979 -0.0634
  553PEP     CB18434  22.728   7.355  18.140 -0.0968  0.2902  0.4176
  553PEP     CB18435  23.085   7.405  18.349 -0.2446 -0.3775  0.3715
  553PEP     CB18436  23.397   7.153  18.590 -0.0326 -0.1721 -0.0327
  553PEP     CB18437  23.859   6.976  18.575 -0.0079  0.1304 -0.2577
  553PEP     CB18438  24.224   6.704  18.464 -0.1232  0.0423  0.2239
  553PEP     CB18439  24.370   6.231  18.242  0.0986 -0.0980  0.2369
  553PEP     CB18440  24.435   5.752  18.124  0.1108 -0.0943 -0.2210
  554PEP     CB18441  16.343   7.391   4.820 -0.1307 -0.3668  0.1423
  554PEP     CB18442  16.688   7.382   4.422 -0.2266 -0.0396  0.0181
  554PEP     CB18443  17.094   7.378   4.145 -0.0435 -0.1674  0.0685
  554PEP     CB18444  17.390   7.141   4.057 -0.0531 -0.0907 -0.5006
  554PEP     CB18445  17.469   6.777   3.826  0.0694 -0.2278 -0.2316
  554PEP     CB18446  17.508   6.429   3.991 -0.1520 -0.2918 -0.0898
  554PEP     CB18447  17.481   6.174   4.370 -0.2677  0.0556 -0.2382
  554PEP     CB18448  17.158   6.262   4.719 -0.0578  0.0223  0.0173
  554PEP     CB18449  16.905   6.655   4.781  0.0946  0.4652 -0.0103
  554PEP     CB18450  16.914   6.929   4.420 -0.2678  0.0012 -0.1686
  554PEP     CB18451  16.985   6.867   3.982 -0.2104 -0.1207  0.2058
  554PEP     CB18452  17.046   6.698   3.531 -0.1447  0.1710  0.1092
  554PEP     CB18453  16.917   6.403   3.223 -0.0830  0.0928 -0.1300
  554PEP     CB18454  16.651   5.997   3.220  0.0687  0.0817  0.1434
  554PEP     CB18455  16.381   5.645   3.049 -0.0663 -0.0856  0.0409
  554PEP     CB18456  16.296   5.275   3.203  0.3237 -0.2578 -0.1978
  554PEP     CB18457  16.516   4.972   3.551  0.2893  0.2175 -0.1904
  554PEP     CB18458  16.925   4.775   3.694 -0.2247 -0.0305 -0.3521
  554PEP     CB18459  17.363   4.938   3.845 -0.2465  0.0151  0.1766
  554PEP     CB18460  17.830   5.006   3.702  0.2665 -0.2943  0.0522
  554PEP     CB18461  18.177   4.770   3.515  0.0831  0.1084  0.1170
  554PEP     CB18462  18.330   4.428   3.622  0.1737 -0.0722 -0.2650
  554PEP     CB18463  18.699   4.209   3.719  0.1734 -0.1168 -0.0113
  554PEP     CB18464  19.014   4.108   3.971  0.1498 -0.0394  0.0935
  554PEP     CB18465  19.236   3.770   4.026 -0.0139 -0.3139  0.0564
  554PEP     CB18466  19.217   3.418   3.790  0.4462  0.2153  0.0905
  554PEP     CB18467  19.465   3.408   3.451  0.3505  0.0808  0.0935
  554PEP     CB18468  19.722   3.212   3.145 -0.2395  0.0617  0.1772
  554PEP     CB18469  19.919   3.383   2.751 -0.0156 -0.0492  0.1589
  554PEP     CB18470  20.162   3.525   2.460  0.0404 -0.3859 -0.1144
  554PEP     CB18471  20.196   3.696   2.016 -0.1265  0.1171  0.1935
  554PEP     CB18472  20.104   3.634   1.524 -0.5614  0.0966  0.0260
  554PEP     CB18473  20.374   3.482   1.192  0.0146 -0.2736  0.0304
  554PEP     CB18474  20.555   3.237   0.877 -0.1300 -0.3255 -0.1911
  554PEP     CB18475  20.790   2.909   0.922 -0.1271  0.2793  0.0404
  554PEP     CB18476  21.169   2.812   0.694  0.3094 -0.2686  0.3361
  554PEP     CB18477  21.439   2.669   0.414 -0.1815 -0.1222 -0.0078
  554PEP     CB18478  21.628   2.595   0.110  0.4171 -0.1242  0.3982
  554PEP     CB18479  21.433   2.578  -0.383  0.1148 -0.1616 -0.0641
  554PEP     CB18480  20.999   2.483  -0.599  0.3529  0.1347 -0.0809
  555PEP     CB18481   2.991  10.628  17.328 -0.1712  0.2059 -0.3090
  555PEP     CB18482   3.460  10.541  17.169 -0.1943  0.1590  0.0729
  555PEP     CB18483   3.725  10.296  16.934 -0.5107 -0.1187 -0.1690
  555PEP     CB18484   4.137  10.230  16.740 -0.4358 -0.0414 -0.1341
  555PEP     CB18485   4.546  10.001  16.691  0.1306 -0.0935 -0.2283
  555PEP     CB18486   4.933  10.005  16.914 -0.2058  0.2868 -0.2823
  555PEP     CB18487   5.152  10.415  16.956 -0.1267  0.0089  0.2183
  555PEP     CB18488   5.118  10.660  16.636  0.0957  0.1938  0.1085
  555PEP     CB18489   4.964  10.475  16.291  0.0036  0.2249 -0.3131
  555PEP     CB18490   4.940  10.048  16.212  0.1247 -0.1027  0.1601
  555PEP     CB18491   5.084   9.542  16.148 -0.0566  0.1548  0.1031
  555PEP     CB18492   5.099   9.347  15.790  0.1146 -0.0904 -0.3249
  555PEP     CB18493   4.872   9.239  15.439  0.3305  0.3504  0.0699
  555PEP     CB18494   4.701   8.965  15.312  0.4415  0.1893  0.0098
  555PEP     CB18495   4.542   8.574  15.281 -0.0319  0.2960  0.1123
  555PEP     CB18496   4.366   8.207  15.065  0.1637 -0.1224  0.0417
  555PEP     CB18497   4.469   7.851  14.840 -0.0676  0.3555 -0.2118
  555PEP     CB18498   4.652   7.683  14.538 -0.2932 -0.0464  0.0629
  555PEP     CB18499   4.585   7.662  14.077 -0.3591 -0.3129  0.0570
  555PEP     CB18500   4.494   7.821  13.756 -0.2772  0.1422  0.1775
  555PEP     CB18501   4.358   8.027  13.519  0.2016  0.0538 -0.3097
  555PEP     CB18502   4.320   7.965  12.987 -0.0017  0.0029 -0.0357
  555PEP     CB18503   4.687   7.965  12.743  0.1101 -0.2931  0.1093
  555PEP     CB18504   5.058   7.724  12.901  0.0052  0.0371  0.0712
  555PEP     CB18505   5.115   7.527  13.212 -0.1670 -0.3298  0.2207
  555PEP     CB18506   4.822   7.343  13.433 -0.1776 -0.2918 -0.0097
  555PEP     CB18507   4.454   7.149  13.377  0.3872 -0.2026  0.2398
  555PEP     CB18508   3.982   7.062  13.358  0.0665 -0.2035  0.2212
  555PEP     CB18509   3.754   6.732  13.163 -0.1835  0.0795  0.1848
  555PEP     CB18510   3.620   6.647  12.719 -0.1430 -0.3748 -0.0317
  555PEP     CB18511   3.446   6.897  12.414 -0.0956 -0.0477 -0.3349
  555PEP     CB18512   3.162   7.085  12.268 -0.0797  0.0695 -0.0313
  555PEP     CB18513   3.014   7.234  11.832  0.1399 -0.3808  0.2976
  555PEP     CB18514   2.805   7.589  11.730 -0.2934 -0.0442  0.2007
  555PEP     CB18515   2.354   7.606  11.728 -0.0419  0.1717  0.0069
  555PEP     CB18516   1.958   7.692  11.757 -0.2474 -0.0477  0.1113
  555PEP     CB18517   1.587   7.678  11.543  0.0131 -0.0151  0.1221
  555PEP     CB18518   1.499   7.620  11.104 -0.1866 -0.0063  0.0328
  555PEP     CB18519   1.695   7.378  10.739  0.0361 -0.2682  0.5507
  555PEP     CB18520   2.032   7.330  10.312 -0.1109 -0.1162  0.4250
  556PEP     CB18521   8.217   4.692   9.563 -0.0201  0.0842 -0.2690
  556PEP     CB18522   7.847   4.701   9.457 -0.3972  0.0129 -0.0533
  556PEP     CB18523   7.461   4.480   9.568  0.1973 -0.1446  0.5339
  556PEP     CB18524   7.168   4.174   9.789  0.1565  0.3556 -0.1583
  556PEP     CB18525   7.106   3.786   9.962 -0.0605  0.0621 -0.0549
  556PEP     CB18526   7.056   3.383   9.872 -0.5828 -0.1778  0.0458
  556PEP     CB18527   6.838   3.045   9.611  0.0495 -0.0640 -0.0084
  556PEP     CB18528   6.938   2.754   9.220  0.3489  0.0009  0.3786
  556PEP     CB18529   6.905   2.701   8.716 -0.1640 -0.0971  0.3046
  556PEP     CB18530   6.972   2.742   8.275 -0.1490  0.2751 -0.1684
  556PEP     CB18531   6.973   3.056   8.101  0.2386 -0.5003  0.1094
  556PEP     CB18532   6.986   3.486   8.314  0.1432  0.2091  0.0933
  556PEP     CB18533   6.914   3.768   8.699  0.3705 -0.1316  0.4404
  556PEP     CB18534   6.855   3.977   9.057 -0.0337  0.1059  0.1603
  556PEP     CB18535   6.661   3.899   9.397  0.0117 -0.1156 -0.0976
  556PEP     CB18536   6.271   3.828   9.400 -0.1410 -0.0474  0.0802
  556PEP     CB18537   5.913   3.608   9.606 -0.1684  0.1181 -0.1370
  556PEP     CB18538   5.895   3.317   9.869  0.1700 -0.2699 -0.0750
  556PEP     CB18539   6.104   3.009   9.839 -0.0904 -0.2793  0.2095
  556PEP     CB18540   6.304   2.744   9.456 -0.0370  0.0506  0.4135
  556PEP     CB18541   6.347   2.880   8.950 -0.0752 -0.0012  0.1982
  556PEP     CB18542   6.179   3.257   8.774 -0.4026  0.1870  0.1877
  556PEP     CB18543   5.902   3.553   8.981 -0.3148 -0.6007  0.1504
  556PEP     CB18544   5.503   3.739   9.046 -0.2659  0.1101  0.2573
  556PEP     CB18545   5.349   4.100   9.326  0.2019 -0.1026  0.1798
  556PEP     CB18546   5.273   4.569   9.499  0.3032  0.0141 -0.4095
  556PEP     CB18547   5.163   4.972   9.377  0.0776 -0.1836 -0.4554
  556PEP     CB18548   4.758   5.149   9.277 -0.0442 -0.2413  0.0690
  556PEP     CB18549   4.252   5.089   9.182  0.1118 -0.0263  0.3011
  556PEP     CB18550   3.957   5.065   8.767 -0.0658 -0.3499 -0.0881
  556PEP     CB18551   3.815   4.791   8.527  0.3716  0.1895  0.1737
  556PEP     CB18552   3.695   4.368   8.486 -0.0388  0.1781 -0.2435
  556PEP     CB18553   3.565   3.947   8.547 -0.3064  0.1512  0.1990
  556PEP     CB18554   3.729   3.543   8.677  0.4078  0.3280 -0.0788
  556PEP     CB18555   3.893   3.084   8.575  0.0506 -0.0248 -0.3095
  556PEP     CB18556   4.275   2.885   8.756 -0.1209 -0.1257  0.3259
  556PEP     CB18557   4.541   3.091   9.010 -0.1294 -0.3779 -0.2036
  556PEP     CB18558   4.583   3.537   9.144 -0.0052  0.1141  0.1958
  556PEP     CB18559   4.455   3.899   9.366 -0.2040  0.5664 -0.4870
  556PEP     CB18560   4.078   4.025   9.609  0.4083  0.2333 -0.2687
  557PEP     CB18561  19.612   4.483   9.751 -0.0634  0.3019 -0.3797
  557PEP     CB18562  19.441   4.853   9.936 -0.0050 -0.1524 -0.2386
  557PEP     CB18563  19.070   5.131   9.982 -0.2570  0.0773 -0.0149
  557PEP     CB18564  18.715   5.248   9.872 -0.2891 -0.1431 -0.2515
  557PEP     CB18565  18.550   5.362   9.559 -0.5209 -0.2022  0.1176
  557PEP     CB18566  18.386   5.667   9.430  0.2112 -0.0665  0.1113
  557PEP     CB18567  18.192   5.979   9.260  0.2891 -0.0224 -0.0245
  557PEP     CB18568  18.056   6.377   9.404 -0.1633  0.0552 -0.2920
  557PEP     CB18569  17.915   6.331   9.832  0.2588  0.0747  0.2277
  557PEP     CB18570  17.665   6.086  10.135  0.0240  0.6646 -0.1319
  557PEP     CB18571  17.287   5.726  10.085 -0.2162 -0.1846  0.0107
  557PEP     CB18572  16.861   5.496  10.062  0.4322 -0.0712 -0.0765
  557PEP     CB18573  16.801   5.022  10.089 -0.3512 -0.1002  0.2261
  557PEP     CB18574  16.861   4.513  10.190  0.2144  0.1508 -0.1192
  557PEP     CB18575  17.114   4.179  10.380  0.2652 -0.2514 -0.1574
  557PEP     CB18576  17.382   4.173  10.860  0.4003 -0.2066 -0.0239
  557PEP     CB18577  17.491   4.596  11.064  0.0682  0.1148  0.0513
  557PEP     CB18578  17.648   4.995  10.872  0.2122 -0.1023 -0.0337
  557PEP     CB18579  17.438   5.438  10.732  0.3884  0.3374  0.1134
  557PEP     CB18580  17.438   5.813  10.544 -0.2448  0.3380  0.0544
  557PEP     CB18581  17.225   6.163  10.324 -0.0567 -0.3551  0.1085
  557PEP     CB18582  17.053   6.428  10.307 -0.0310 -0.2412  0.0562
  557PEP     CB18583  16.871   6.811  10.334  0.2008 -0.2038  0.0245
  557PEP     CB18584  16.822   7.120   9.995 -0.3104  0.0132  0.1569
  557PEP     CB18585  16.635   7.489   9.884  0.4363 -0.0113 -0.1341
  557PEP     CB18586  16.644   7.907   9.993 -0.3117  0.0874 -0.3241
  557PEP     CB18587  16.662   8.384   9.985  0.2872  0.2518  0.0576
  557PEP     CB18588  16.919   8.815  10.130 -0.0483  0.0899  0.1812
  557PEP     CB18589  17.095   9.183  10.149  0.3713 -0.0745  0.0665
  557PEP     CB18590  17.345   9.450  10.418 -0.2059  0.0917  0.0710
  557PEP     CB18591  17.566   9.425  10.850 -0.3323  0.4105 -0.1796
  557PEP     CB18592  17.768   9.830  11.131 -0.1316  0.3453  0.1661
  557PEP     CB18593  17.610  10.231  11.111 -0.1327  0.0526 -0.0773
  557PEP     CB18594  17.499  10.499  10.787 -0.0340  0.6812 -0.0146
  557PEP     CB18595  17.695  10.876  10.519  0.4229  0.3016  0.2302
  557PEP     CB18596  17.618  11.337  10.337  0.3305  0.0778 -0.2280
  557PEP     CB18597  17.693  11.781  10.188  0.2406  0.2481 -0.2072
  557PEP     CB18598  17.540  12.215  10.023  0.1770 -0.2718 -0.1800
  557PEP     CB18599  17.386  12.463  10.170  0.0169 -0.1704 -0.2302
  557PEP     CB18600  17.069  12.450  10.496  0.3334 -0.1073  0.0423
  558PEP     CB18601   6.705   1.727   6.777 -0.6389  0.2143  0.3062
  558PEP     CB18602   6.931   1.429   6.885  0.4035  0.1907 -0.3795
  558PEP     CB18603   7.203   1.256   7.308 -0.1060 -0.1960  0.2311
  558PEP     CB18604   7.241   1.312   7.690  0.2230  0.1657  0.1825
  558PEP     CB18605   7.072   1.608   7.972  0.4302  0.3087  0.2141
  558PEP     CB18606   6.899   1.973   7.926 -0.3333  0.0824 -0.3361
  558PEP     CB18607   6.572   2.307   8.012 -0.2812 -0.2301  0.4973
  558PEP     CB18608   6.203   2.355   8.057 -0.1554  0.4461  0.1196
  558PEP     CB18609   5.878   2.251   7.797 -0.0687 -0.2988  0.3468
  558PEP     CB18610   5.826   2.079   7.476 -0.1546  0.0333 -0.0627
  558PEP     CB18611   5.510   1.759   7.378  0.0067 -0.2935  0.1817
  558PEP     CB18612   5.259   1.403   7.391  0.3941 -0.2172 -0.0902
  558PEP     CB18613   5.222   0.930   7.322 -0.1366 -0.1543  0.3122
  558PEP     CB18614   5.410   0.575   7.151 -0.1184  0.3121 -0.2158
  558PEP     CB18615   5.666   0.172   7.113 -0.2565  0.2431 -0.4184
  558PEP     CB18616   5.743  -0.218   6.690  0.1759 -0.0270  0.3655
  558PEP     CB18617   5.925  -0.626   6.679 -0.0819  0.1436  0.1459
  558PEP     CB18618   5.825  -0.937   6.454 -0.2152  0.0240 -0.4714
  558PEP     CB18619   5.678  -1.041   5.989  0.2718 -0.4541 -0.2799
  558PEP     CB18620   5.565  -0.590   5.676  0.0722 -0.0337  0.1808
  558PEP     CB18621   5.501  -0.207   5.895 -0.0797  0.0059 -0.0763
  558PEP     CB18622   5.765  -0.050   6.236 -0.0477 -0.5504  0.2009
  558PEP     CB18623   6.212  -0.265   6.300 -0.3749  0.2498 -0.2330
  558PEP     CB18624   6.412  -0.497   6.687  0.2314  0.5350 -0.0466
  558PEP     CB18625   6.726  -0.647   6.834  0.1912  0.1413  0.0080
  558PEP     CB18626   6.828  -1.129   6.820  0.2596  0.6418 -0.1773
  558PEP     CB18627   7.016  -1.508   6.932 -0.0364 -0.1524  0.3306
  558PEP     CB18628   7.012  -1.994   6.982 -0.5143  0.2297 -0.2475
  558PEP     CB18629   7.011  -2.386   6.851 -0.1147  0.0514  0.1007
  558PEP     CB18630   7.185  -2.788   6.939 -0.1371 -0.1849 -0.4802
  558PEP     CB18631   7.038  -3.161   7.222 -0.1978  0.0142  0.1016
  558PEP     CB18632   7.117  -3.312   7.531 -0.2276 -0.0567  0.1601
  558PEP     CB18633   7.326  -3.459   7.922 -0.2551  0.0172 -0.0335
  558PEP     CB18634   7.498  -3.281   8.254 -0.0123 -0.0561  0.2122
  558PEP     CB18635   7.850  -3.012   8.242  0.2696  0.1268  0.0994
  558PEP     CB18636   8.131  -2.817   7.896 -0.3336  0.2824  0.0516
  558PEP     CB18637   8.149  -2.443   7.645  0.4156 -0.4385  0.3122
  558PEP     CB18638   8.008  -2.310   7.244  0.0360  0.0422 -0.0186
  558PEP     CB18639   7.929  -2.360   6.826  0.0363 -0.1882  0.1764
  558PEP     CB18640   8.090  -2.540   6.482 -0.0596 -0.0675  0.2732
  559PEP     CB18641   5.847   0.618   4.655 -0.0101  0.2987 -0.2659
  559PEP     CB18642   5.829   0.196   4.800  0.3185 -0.0984  0.1123
  559PEP     CB18643   5.972  -0.252   4.803  0.3614 -0.4264 -0.1747
  559PEP     CB18644   5.984  -0.731   4.820  0.0611  0.0208  0.1002
  559PEP     CB18645   6.182  -1.126   4.824  0.3090  0.1868 -0.2080
  559PEP     CB18646   6.561  -1.261   4.670  0.1030  0.0308 -0.1063
  559PEP     CB18647   6.921  -1.234   4.726 -0.1182  0.0702  0.0344
  559PEP     CB18648   7.203  -0.847   4.912  0.0189  0.3239  0.1456
  559PEP     CB18649   7.381  -0.452   4.856  0.3864 -0.0576  0.2079
  559PEP     CB18650   7.650  -0.162   4.718 -0.1198 -0.0752 -0.3032
  559PEP     CB18651   7.885   0.014   4.356 -0.0781 -0.1660 -0.3604
  559PEP     CB18652   8.239   0.107   4.097  0.2456  0.0708  0.0544
  559PEP     CB18653   8.461   0.379   3.859 -0.1500 -0.6095  0.2257
  559PEP     CB18654   8.310   0.676   3.506 -0.1330 -0.2398  0.1121
  559PEP     CB18655   8.387   0.900   3.167  0.4133  0.0327  0.0152
  559PEP     CB18656   8.633   1.331   3.111 -0.1311 -0.0741  0.3305
  559PEP     CB18657   8.809   1.765   3.113 -0.0516 -0.0770  0.1615
  559PEP     CB18658   9.261   1.988   3.102  0.0950 -0.0087  0.6092
  559PEP     CB18659   9.653   1.958   3.000 -0.0581  0.0998  0.3018
  559PEP     CB18660   9.885   1.863   3.356 -0.0849 -0.1151 -0.3776
  559PEP     CB18661   9.601   1.887   3.713 -0.0853 -0.0719 -0.1719
  559PEP     CB18662   9.247   2.128   3.684 -0.1453  0.2568  0.0094
  559PEP     CB18663   9.068   2.371   3.976  0.1545 -0.3371 -0.0509
  559PEP     CB18664   9.250   2.774   4.126  0.1287  0.3533  0.0210
  559PEP     CB18665   9.627   2.991   3.975  0.2321 -0.0012 -0.0581
  559PEP     CB18666  10.062   3.086   4.128 -0.0482 -0.0729  0.1335
  559PEP     CB18667  10.226   3.377   4.377 -0.2211 -0.4573  0.0570
  559PEP     CB18668  10.174   3.736   4.703  0.0273  0.1825  0.4076
  559PEP     CB18669  10.060   3.833   5.127 -0.2263 -0.0564  0.0434
  559PEP     CB18670  10.095   3.627   5.517  0.0944 -0.1179 -0.1890
  559PEP     CB18671  10.164   3.227   5.734 -0.0185  0.0833 -0.4673
  559PEP     CB18672  10.334   2.836   5.992  0.0798 -0.3822  0.1819
  559PEP     CB18673  10.726   2.605   6.190 -0.1492 -0.3578 -0.3744
  559PEP     CB18674  11.111   2.405   6.132 -0.1158 -0.1778 -0.3028
  559PEP     CB18675  11.518   2.457   5.920  0.0689  0.0858 -0.2765
  559PEP     CB18676  11.840   2.661   5.644 -0.0478 -0.0708 -0.3488
  559PEP     CB18677  12.218   2.831   5.463 -0.2884 -0.1127  0.0149
  559PEP     CB18678  12.505   2.674   5.114  0.3172  0.0895  0.2599
  559PEP     CB18679  12.383   2.360   4.714  0.1276 -0.1408  0.3331
  559PEP     CB18680  12.090   2.321   4.478 -0.3331 -0.2284 -0.2406
  560PEP     CB18681  19.863  20.854  11.564 -0.3475 -0.1519  0.2987
  560PEP     CB18682  19.840  20.471  11.714  0.0443  0.0810 -0.3529
  560PEP     CB18683  20.132  20.209  11.890 -0.0236 -0.1545 -0.0749
  560PEP     CB18684  20.569  20.125  12.039  0.3513 -0.0926  0.0712
  560PEP     CB18685  21.063  19.977  12.158  0.1840 -0.3734  0.0523
  560PEP     CB18686  21.455  19.986  12.322  0.3970  0.1985 -0.2724
  560PEP     CB18687  21.876  20.064  12.394 -0.1225  0.4444  0.1780
  560PEP     CB18688  22.209  20.303  12.535  0.0484  0.1052  0.1040
  560PEP     CB18689  22.338  20.527  12.846 -0.2146  0.4982 -0.1477
  560PEP     CB18690  22.583  20.794  13.101  0.0104  0.2442  0.0674
  560PEP     CB18691  23.089  20.920  13.148  0.0417 -0.1465 -0.0588
  560PEP     CB18692  23.382  20.672  13.034 -0.2776  0.3223 -0.4697
  560PEP     CB18693  23.580  20.314  13.312  0.0529 -0.3516  0.1685
  560PEP     CB18694  23.426  20.121  13.772 -0.1826  0.0728  0.0133
  560PEP     CB18695  23.233  20.425  14.147 -0.1811  0.1216  0.0611
  560PEP     CB18696  23.078  20.936  14.090  0.1133 -0.2921 -0.3529
  560PEP     CB18697  22.737  21.052  13.830  0.0605  0.4249 -0.0058
  560PEP     CB18698  22.624  21.289  13.449 -0.0709 -0.2533  0.0346
  560PEP     CB18699  22.424  21.643  13.430 -0.3024  0.0279  0.0222
  560PEP     CB18700  22.381  21.996  13.798  0.4021 -0.0977  0.2441
  560PEP     CB18701  22.545  22.130  14.204 -0.1092  0.1930  0.0322
  560PEP     CB18702  22.952  22.029  14.383 -0.3324 -0.0381  0.1255
  560PEP     CB18703  23.255  21.935  14.651  0.0526  0.1720  0.2770
  560PEP     CB18704  23.644  21.771  14.721 -0.2524  0.5008  0.0419
  560PEP     CB18705  23.955  21.454  14.564  0.0867  0.1647 -0.2245
  560PEP     CB18706  24.342  21.399  14.523 -0.2367  0.0758  0.1142
  560PEP     CB18707  24.660  21.119  14.507 -0.0401 -0.1327  0.0477
  560PEP     CB18708  25.087  20.940  14.347 -0.1145  0.0737 -0.2180
  560PEP     CB18709  25.452  20.995  14.556 -0.1109  0.0877  0.3683
  560PEP     CB18710  25.703  21.348  14.854  0.3949 -0.1021  0.1262
  560PEP     CB18711  25.723  21.790  14.976 -0.0388  0.1790  0.2309
  560PEP     CB18712  25.962  21.898  15.303 -0.1320  0.1290  0.0600
  560PEP     CB18713  26.322  21.634  15.453  0.1545 -0.0769 -0.1123
  560PEP     CB18714  26.751  21.410  15.431 -0.1518 -0.2704  0.1802
  560PEP     CB18715  27.160  21.153  15.484 -0.2451 -0.0612 -0.2228
  560PEP     CB18716  27.315  20.777  15.658  0.1332 -0.5349 -0.5507
  560PEP     CB18717  27.412  20.333  15.811  0.3044 -0.0814  0.1858
  560PEP     CB18718  27.759  20.166  16.042  0.0965 -0.0931 -0.2661
  560PEP     CB18719  28.117  20.179  16.081  0.0114  0.0572 -0.0258
  560PEP     CB18720  28.468  20.036  15.936 -0.1250 -0.2722  0.0584
  561PEP     CB18721   4.335  21.914   2.778 -0.4485 -0.3898 -0.1083
  561PEP     CB18722   4.300  21.959   2.322 -0.3744 -0.0918  0.2029
  561PEP     CB18723   4.482  22.336   2.073  0.0302 -0.1197 -0.0527
  561PEP     CB18724   4.722  22.731   2.086  0.0969  0.0719 -0.0513
  561PEP     CB18725   4.982  22.952   2.449 -0.0838 -0.0260 -0.3931
  561PEP     CB18726   4.944  23.174   2.773  0.0667  0.1886  0.0455
  561PEP     CB18727   4.674  23.063   3.069 -0.2124 -0.3452  0.1629
  561PEP     CB18728   4.297  22.915   3.143  0.0534 -0.0899  0.1371
  561PEP     CB18729   4.015  23.133   3.415 -0.0039 -0.2786  0.3446
  561PEP     CB18730   3.801  23.082   3.821 -0.1876  0.1923  0.0629
  561PEP     CB18731   3.556  22.747   4.017 -0.0551  0.3186  0.3999
  561PEP     CB18732   3.727  22.360   4.025  0.0397  0.1778  0.2031
  561PEP     CB18733   4.198  22.441   4.108 -0.2027  0.1462 -0.4144
  561PEP     CB18734   4.461  22.774   4.059 -0.3500  0.3859  0.0816
  561PEP     CB18735   4.330  23.053   3.763 -0.3338 -0.2809  0.0280
  561PEP     CB18736   4.249  23.508   3.750 -0.3308 -0.0380 -0.0445
  561PEP     CB18737   4.100  23.942   3.926 -0.0374  0.2625  0.1328
  561PEP     CB18738   4.349  24.177   4.095 -0.0727 -0.3485  0.1399
  561PEP     CB18739   4.423  24.576   4.170  0.2668  0.0313  0.0517
  561PEP     CB18740   4.776  24.798   4.016 -0.2833  0.0182 -0.0178
  561PEP     CB18741   5.165  24.799   3.876  0.2794  0.1500 -0.5351
  561PEP     CB18742   5.533  24.842   3.679  0.0165 -0.1394  0.0090
  561PEP     CB18743   5.829  24.992   3.399  0.1143  0.2708  0.1480
  561PEP     CB18744   6.258  25.029   3.275  0.0605  0.2986  0.0851
  561PEP     CB18745   6.615  24.745   3.463  0.3089  0.3391 -0.1744
  561PEP     CB18746   7.085  24.797   3.321  0.2118  0.3659  0.3672
  561PEP     CB18747   7.277  25.123   3.266 -0.2055 -0.1436  0.4096
  561PEP     CB18748   7.496  25.380   3.008 -0.0560  0.0642 -0.4285
  561PEP     CB18749   7.297  25.721   2.873  0.1164 -0.1623 -0.1269
  561PEP     CB18750   6.923  25.826   2.600  0.2286  0.0734  0.2137
  561PEP     CB18751   6.569  25.691   2.469 -0.0872  0.0765  0.1087
  561PEP     CB18752   6.282  25.491   2.191  0.0102  0.0001  0.0233
  561PEP     CB18753   5.866  25.518   2.035  0.4769  0.1041 -0.1499
  561PEP     CB18754   5.622  25.622   1.753  0.1919 -0.1533  0.1562
  561PEP     CB18755   5.291  25.463   1.556  0.0041  0.0106 -0.1570
  561PEP     CB18756   5.051  25.371   1.122  0.0768  0.0419 -0.2203
  561PEP     CB18757   4.733  25.585   0.891  0.0078 -0.3454  0.3664
  561PEP     CB18758   4.334  25.755   0.938 -0.1400 -0.4812  0.0536
  561PEP     CB18759   4.009  25.821   0.649 -0.0665  0.2487  0.0553
  561PEP     CB18760   3.629  26.028   0.549  0.1037  0.0190  0.1720
  562PEP     CB18761   6.369   3.485  17.942  0.3038  0.1413  0.0103
  562PEP     CB18762   6.712   3.264  17.821 -0.2436  0.3626 -0.2044
  562PEP     CB18763   6.998   3.003  17.594 -0.0008 -0.0948  0.0350
  562PEP     CB18764   7.465   2.934  17.650  0.1077 -0.2740 -0.3273
  562PEP     CB18765   7.858   2.735  17.791  0.0759 -0.1057 -0.3693
  562PEP     CB18766   8.001   2.511  18.102 -0.0592  0.1085  0.5886
  562PEP     CB18767   7.889   2.310  18.418  0.0852 -0.1861 -0.0940
  562PEP     CB18768   7.496   2.244  18.593 -0.2503  0.1386  0.0776
  562PEP     CB18769   7.287   2.413  18.927 -0.0839 -0.1977 -0.0746
  562PEP     CB18770   7.018   2.461  19.418  0.0108 -0.0956 -0.1154
  562PEP     CB18771   6.684   2.673  19.549 -0.2873 -0.2354 -0.1116
  562PEP     CB18772   6.322   2.814  19.908  0.2241 -0.0095  0.2302
  562PEP     CB18773   6.177   3.000  20.361 -0.5165 -0.3576  0.0033
  562PEP     CB18774   5.897   2.939  20.734  0.1261  0.2829  0.0973
  562PEP     CB18775   5.492   2.918  20.818 -0.3332 -0.2527 -0.2985
  562PEP     CB18776   5.086   3.043  20.749  0.1180  0.0928 -0.0806
  562PEP     CB18777   4.661   3.220  20.634 -0.3105  0.0148 -0.1665
  562PEP     CB18778   4.582   3.557  20.421  0.1337  0.1204  0.2782
  562PEP     CB18779   4.848   3.904  20.116  0.1052 -0.1779 -0.1262
  562PEP     CB18780   5.208   4.129  20.132  0.1817  0.1290 -0.3087
  562PEP     CB18781   5.442   4.120  19.765  0.1600  0.0673  0.1821
  562PEP     CB18782   5.469   3.770  19.435  0.1207 -0.0715 -0.4700
  562PEP     CB18783   5.500   3.325  19.358  0.1854  0.0842 -0.0404
  562PEP     CB18784   5.307   2.832  19.276  0.2681  0.1383  0.1583
  562PEP     CB18785   5.250   2.414  19.198 -0.0705  0.0113 -0.0003
  562PEP     CB18786   5.294   2.115  18.810 -0.1927 -0.0739 -0.4650
  562PEP     CB18787   5.107   2.010  18.495 -0.1839  0.0980  0.0574
  562PEP     CB18788   4.923   2.298  18.280  0.1651 -0.2133  0.1922
  562PEP     CB18789   4.891   2.714  18.457 -0.3686 -0.3245 -0.0484
  562PEP     CB18790   4.874   2.965  18.750  0.5145 -0.1161  0.0814
  562PEP     CB18791   5.064   3.289  19.099  0.1031 -0.2439 -0.1009
  562PEP     CB18792   5.036   3.617  19.424 -0.0858 -0.0429  0.0352
  562PEP     CB18793   4.957   3.952  19.664 -0.0123  0.0677  0.1689
  562PEP     CB18794   4.537   4.125  19.724 -0.1507  0.3534  0.2409
  562PEP     CB18795   4.157   3.940  19.709 -0.3284 -0.1309  0.3509
  562PEP     CB18796   4.029   3.656  19.420 -0.2042 -0.0828  0.0080
  562PEP     CB18797   4.107   3.741  18.988 -0.1489  0.0211 -0.0310
  562PEP     CB18798   4.486   3.907  18.796  0.2940  0.2451 -0.1509
  562PEP     CB18799   4.725   4.112  18.899  0.0095  0.5322 -0.0886
  562PEP     CB18800   5.062   4.149  18.710  0.0966 -0.2057 -0.0246
  563PEP     CB18801   7.125  15.467  18.738 -0.0116  0.2904 -0.0475
  563PEP     CB18802   7.008  15.193  18.281  0.3555 -0.0861  0.1239
  563PEP     CB18803   7.056  14.984  17.865 -0.1459  0.0260  0.3210
  563PEP     CB18804   7.170  14.600  17.728 -0.3416 -0.4329  0.1537
  563PEP     CB18805   7.360  14.313  17.987 -0.0566  0.0676  0.1614
  563PEP     CB18806   7.492  14.409  18.387  0.2194  0.6458 -0.3453
  563PEP     CB18807   7.888  14.441  18.562  0.0659 -0.2347 -0.1634
  563PEP     CB18808   8.211  14.598  18.888 -0.2171 -0.1170  0.1515
  563PEP     CB18809   8.236  14.870  19.177 -0.0343  0.0449 -0.0356
  563PEP     CB18810   8.490  15.276  19.319  0.1710  0.2343  0.2145
  563PEP     CB18811   8.592  15.703  19.406 -0.0573 -0.0440  0.2802
  563PEP     CB18812   8.832  15.986  19.267 -0.0589  0.3221 -0.0565
  563PEP     CB18813   9.331  15.873  19.211  0.1177  0.2192  0.1207
  563PEP     CB18814   9.561  15.455  19.185  0.1338 -0.0434  0.2708
  563PEP     CB18815   9.590  15.120  19.454 -0.0686 -0.1292 -0.1428
  563PEP     CB18816   9.517  15.158  19.969  0.3459  0.2746 -0.1540
  563PEP     CB18817   9.323  15.248  20.293 -0.3381  0.1132  0.0100
  563PEP     CB18818   8.841  15.287  20.322  0.2406  0.3508 -0.1443
  563PEP     CB18819   8.609  14.902  20.168  0.0324  0.3334 -0.2180
  563PEP     CB18820   8.894  14.526  20.041 -0.0923  0.2589  0.1515
  563PEP     CB18821   9.153  14.462  19.650 -0.0905 -0.3404  0.2800
  563PEP     CB18822   9.374  14.255  19.381  0.1340 -0.0171  0.2719
  563PEP     CB18823   9.734  14.104  19.362 -0.0325  0.2657  0.3439
  563PEP     CB18824   9.974  13.819  19.359  0.0628 -0.3196  0.3720
  563PEP     CB18825  10.330  13.524  19.350 -0.0524 -0.2198  0.2073
  563PEP     CB18826  10.508  13.149  19.041  0.0040 -0.0826 -0.3749
  563PEP     CB18827  10.692  12.997  18.768  0.0335  0.0829  0.1285
  563PEP     CB18828  10.665  12.591  18.486  0.2568 -0.2797 -0.2230
  563PEP     CB18829  10.857  12.281  18.394  0.0317  0.1229  0.1329
  563PEP     CB18830  11.099  11.944  18.484  0.0483 -0.2366 -0.2063
  563PEP     CB18831  11.075  11.577  18.353  0.1393  0.0287 -0.1589
  563PEP     CB18832  10.861  11.245  18.113  0.0348 -0.0865  0.1512
  563PEP     CB18833  10.499  11.062  17.869 -0.0974  0.0969 -0.2025
  563PEP     CB18834  10.511  10.790  17.524  0.2645 -0.1097  0.1156
  563PEP     CB18835  10.347  10.508  17.247  0.1573 -0.0297 -0.1894
  563PEP     CB18836  10.301  10.085  17.099 -0.0361  0.1174  0.0179
  563PEP     CB18837  10.083   9.677  17.208 -0.0237 -0.2453  0.0440
  563PEP     CB18838   9.986   9.512  17.662  0.2528 -0.0952 -0.3396
  563PEP     CB18839   9.963   9.867  17.989  0.0732 -0.0361 -0.0895
  563PEP     CB18840   9.987  10.243  18.074 -0.2721 -0.1318 -0.1855
  564PEP     CB18841   6.200   1.541   5.083  0.2173 -0.1676 -0.4372
  564PEP     CB18842   5.751   1.400   5.172 -0.1080 -0.0987 -0.0522
  564PEP     CB18843   5.253   1.552   5.199  0.0610 -0.2559 -0.1220
  564PEP     CB18844   5.049   1.719   5.485 -0.1397 -0.1489  0.2243
  564PEP     CB18845   4.807   1.631   5.782  0.5835  0.0739 -0.4092
  564PEP     CB18846   4.696   1.375   6.075  0.4260 -0.1377 -0.2600
  564PEP     CB18847   4.396   1.024   6.036 -0.1252  0.1876  0.0956
  564PEP     CB18848   4.092   0.882   5.752  0.1313  0.1255  0.1911
  564PEP     CB18849   3.615   0.907   5.557 -0.2040 -0.3507 -0.1560
  564PEP     CB18850   3.361   1.250   5.647 -0.2157 -0.1692 -0.1934
  564PEP     CB18851   3.194   1.725   5.537 -0.0366 -0.4876  0.4212
  564PEP     CB18852   3.339   2.161   5.631 -0.1092 -0.0357  0.0546
  564PEP     CB18853   3.570   2.529   5.568 -0.0770 -0.1216 -0.4598
  564PEP     CB18854   3.502   2.988   5.491 -0.3210  0.0955  0.0785
  564PEP     CB18855   3.217   3.296   5.589  0.0147  0.1463 -0.0467
  564PEP     CB18856   2.791   3.398   5.811  0.1618 -0.0290 -0.0941
  564PEP     CB18857   2.496   3.636   5.889 -0.0691  0.1709  0.0549
  564PEP     CB18858   2.214   3.918   6.097 -0.4043  0.2626 -0.0332
  564PEP     CB18859   1.964   3.997   6.363 -0.4109 -0.0157 -0.2044
  564PEP     CB18860   1.569   3.754   6.405  0.2683 -0.1940  0.0017
  564PEP     CB18861   1.260   3.487   6.137 -0.2379  0.0706 -0.2899
  564PEP     CB18862   1.028   3.087   5.994 -0.2888 -0.0272 -0.2447
  564PEP     CB18863   0.874   2.763   5.677 -0.2823 -0.3272  0.1883
  564PEP     CB18864   0.813   2.668   5.281  0.4860  0.0532  0.4106
  564PEP     CB18865   0.802   2.933   4.936  0.3247 -0.0051  0.2698
  564PEP     CB18866   0.678   3.374   5.001 -0.3488  0.1584 -0.1933
  564PEP     CB18867   0.859   3.737   5.303 -0.0533 -0.2759 -0.1651
  564PEP     CB18868   1.133   4.134   5.296  0.1434 -0.0107 -0.1825
  564PEP     CB18869   1.286   4.212   5.750 -0.1083  0.0996  0.0943
  564PEP     CB18870   1.174   3.972   6.191  0.1475  0.0684 -0.1349
  564PEP     CB18871   1.004   4.202   6.639  0.0200  0.1813 -0.3105
  564PEP     CB18872   0.516   4.367   6.672 -0.1480  0.1472 -0.4403
  564PEP     CB18873   0.130   4.336   6.410 -0.0447 -0.0911 -0.4672
  564PEP     CB18874  -0.156   4.318   6.026 -0.2928  0.0139  0.0730
  564PEP     CB18875  -0.584   4.044   5.954  0.1605  0.1690  0.1201
  564PEP     CB18876  -0.676   3.709   6.289  0.4449  0.4617 -0.0573
  564PEP     CB18877  -0.543   3.678   6.698  0.1259  0.2757  0.2244
  564PEP     CB18878  -0.344   3.586   7.088 -0.1730  0.0491 -0.0851
  564PEP     CB18879  -0.397   3.643   7.620  0.1171 -0.2290 -0.0270
  564PEP     CB18880  -0.735   3.678   7.878  0.0092  0.0843  0.1127
  565PEP     CB18881  13.903  21.164   2.600  0.2946 -0.1029 -0.2029
  565PEP     CB18882  13.784  21.575   2.658  0.1390 -0.0807  0.1981
  565PEP     CB18883  13.668  21.769   3.014  0.2801 -0.1833 -0.1720
  565PEP     CB18884  13.835  21.672   3.368  0.0350  0.1489  0.0088
  565PEP     CB18885  13.943  21.306   3.645  0.2024  0.4404  0.1872
  565PEP     CB18886  13.794  21.128   4.048  0.1816 -0.1011  0.0189
  565PEP     CB18887  13.751  20.855   4.438 -0.2073 -0.3578 -0.0156
  565PEP     CB18888  13.877  20.799   4.793  0.0805  0.1504 -0.1103
  565PEP     CB18889  14.093  20.482   5.010  0.1174 -0.5325 -0.1880
  565PEP     CB18890  14.511  20.423   5.024 -0.4462 -0.0737  0.0708
  565PEP     CB18891  14.822  20.154   4.847 -0.3011  0.1078  0.0331
  565PEP     CB18892  15.013  19.786   4.700  0.0176 -0.1423  0.0604
  565PEP     CB18893  15.166  19.486   4.691  0.1437  0.1963 -0.2510
  565PEP     CB18894  15.352  19.032   4.944 -0.3199  0.1122 -0.3979
  565PEP     CB18895  15.487  18.868   5.371 -0.1369 -0.3066 -0.2028
  565PEP     CB18896  15.505  18.840   5.790  0.1180 -0.0324 -0.0110
  565PEP     CB18897  15.238  18.951   6.186  0.0713  0.1476 -0.3639
  565PEP     CB18898  15.130  18.789   6.648  0.0860  0.0315  0.0734
  565PEP     CB18899  15.092  18.860   7.033 -0.1999  0.1985  0.0820
  565PEP     CB18900  15.002  18.628   7.361  0.3758 -0.5064 -0.6026
  565PEP     CB18901  14.805  18.359   7.648 -0.2308 -0.3799  0.1532
  565PEP     CB18902  14.411  18.481   8.003 -0.1796 -0.2737 -0.0140
  565PEP     CB18903  14.398  18.778   8.367  0.1207  0.0059  0.3567
  565PEP     CB18904  14.771  18.985   8.594  0.2714  0.2460  0.3547
  565PEP     CB18905  15.126  19.042   8.656  0.5095  0.0420  0.4763
  565PEP     CB18906  15.396  19.319   8.747 -0.0506 -0.5562 -0.1686
  565PEP     CB18907  15.578  19.644   9.001 -0.0703 -0.1372  0.0320
  565PEP     CB18908  15.689  20.110   9.021 -0.0871  0.0386 -0.2697
  565PEP     CB18909  15.733  20.561   9.106 -0.1762 -0.1218 -0.1430
  565PEP     CB18910  16.030  20.944   9.172 -0.0683 -0.0981 -0.1439
  565PEP     CB18911  16.312  21.201   8.859 -0.1562  0.1109 -0.1160
  565PEP     CB18912  16.649  21.176   8.538 -0.1587 -0.1143  0.4124
  565PEP     CB18913  16.884  21.008   8.231  0.3105 -0.2520 -0.1179
  565PEP     CB18914  17.078  21.244   7.835 -0.0671 -0.0084 -0.2631
  565PEP     CB18915  17.021  21.334   7.360  0.2297 -0.1321 -0.0007
  565PEP     CB18916  16.750  21.499   6.959 -0.5817 -0.1647 -0.3575
  565PEP     CB18917  16.508  21.443   6.518  0.3201 -0.0502 -0.0150
  565PEP     CB18918  16.214  21.428   6.237 -0.0530  0.1323  0.1494
  565PEP     CB18919  15.958  21.273   5.980  0.2670  0.0376  0.1148
  565PEP     CB18920  15.513  21.377   5.861 -0.1711  0.2348  0.0086
  566PEP     CB18921   5.586   3.882  20.688  0.0062 -0.3132  0.1229
  566PEP     CB18922   5.682   3.777  20.314  0.0756  0.1285 -0.0720
  566PEP     CB18923   5.783   3.681  19.835 -0.3046  0.0604 -0.2384
  566PEP     CB18924   6.123   3.716  19.600  0.2290  0.2417  0.3408
  566PEP     CB18925   6.433   3.701  19.236 -0.0016  0.1959 -0.0521
  566PEP     CB18926   6.907   3.757  19.041 -0.4355  0.0237 -0.2637
  566PEP     CB18927   7.232   3.578  19.115 -0.1444 -0.1180  0.2083
  566PEP     CB18928   7.603   3.558  18.843 -0.0279 -0.1991  0.1668
  566PEP     CB18929   7.554   3.558  18.396  0.0251 -0.2792  0.3530
  566PEP     CB18930   7.198   3.504  18.122  0.0466 -0.0163 -0.0912
  566PEP     CB18931   6.749   3.359  18.344 -0.0169  0.2500  0.1595
  566PEP     CB18932   6.622   3.330  18.850  0.0923 -0.1648 -0.0944
  566PEP     CB18933   6.922   3.163  19.139 -0.3258 -0.0991 -0.1259
  566PEP     CB18934   7.321   2.858  19.119  0.4699  0.1814  0.1225
  566PEP     CB18935   7.743   2.677  19.046  0.0566 -0.5161  0.0171
  566PEP     CB18936   7.887   2.271  18.977  0.2881  0.2581  0.2849
  566PEP     CB18937   8.117   1.957  18.632  0.1948  0.2871  0.0174
  566PEP     CB18938   8.327   1.722  18.271  0.2576 -0.0231  0.2426
  566PEP     CB18939   8.627   1.823  18.013 -0.0813  0.2870  0.1769
  566PEP     CB18940   8.924   2.077  17.773 -0.3320  0.0851  0.1300
  566PEP     CB18941   9.097   2.142  17.368 -0.0133  0.1446 -0.4297
  566PEP     CB18942   9.092   1.782  17.164 -0.4007 -0.0047 -0.4770
  566PEP     CB18943   8.920   1.500  17.373  0.0098  0.2233 -0.1231
  566PEP     CB18944   9.167   1.020  17.657  0.1686  0.0891  0.2454
  566PEP     CB18945   9.326   0.588  17.485 -0.0896 -0.2146 -0.4183
  566PEP     CB18946   9.392   0.092  17.461 -0.0712 -0.0672 -0.0171
  566PEP     CB18947   9.552  -0.252  17.260  0.1684  0.3113 -0.1802
  566PEP     CB18948   9.831  -0.542  17.095 -0.0661 -0.1417 -0.0765
  566PEP     CB18949  10.190  -0.734  17.150  0.0710  0.0461 -0.0524
  566PEP     CB18950  10.596  -0.624  17.170 -0.0653 -0.3433  0.5217
  566PEP     CB18951  10.904  -0.241  17.121  0.1843  0.1820 -0.0291
  566PEP     CB18952  11.128   0.168  16.861 -0.0337  0.3509 -0.2238
  566PEP     CB18953  11.118   0.503  16.507 -0.2177 -0.0137 -0.6600
  566PEP     CB18954  11.070   0.931  16.342 -0.3485 -0.5727 -0.0843
  566PEP     CB18955  11.113   1.002  15.872 -0.3153  0.2714 -0.2682
  566PEP     CB18956  11.516   0.996  15.655 -0.2219 -0.2141  0.3157
  566PEP     CB18957  11.953   0.811  15.906 -0.3037  0.3333 -0.0422
  566PEP     CB18958  12.303   0.988  16.144  0.2923  0.2249  0.0256
  566PEP     CB18959  12.607   1.161  16.464 -0.2296 -0.1088 -0.1410
  566PEP     CB18960  12.768   1.391  16.790  0.3392 -0.2111 -0.3253
  567PEP     CB18961   4.798  10.192   5.957  0.1231 -0.0791 -0.1711
  567PEP     CB18962   4.720  10.434   6.318 -0.2291 -0.6486  0.5914
  567PEP     CB18963   4.321  10.412   6.542 -0.0214  0.2332  0.1770
  567PEP     CB18964   4.287  10.192   6.988 -0.3278 -0.3477  0.2961
  567PEP     CB18965   4.444  10.249   7.431 -0.1916  0.4728 -0.1879
  567PEP     CB18966   4.464  10.365   7.834  0.0222  0.0496 -0.7723
  567PEP     CB18967   4.611  10.744   8.075  0.3391  0.0082  0.0440
  567PEP     CB18968   4.849  11.126   8.231  0.2259  0.2966  0.1379
  567PEP     CB18969   4.856  11.506   8.304 -0.2472 -0.3671 -0.4345
  567PEP     CB18970   4.995  11.854   8.546 -0.4494 -0.2054 -0.1353
  567PEP     CB18971   4.756  12.076   8.799 -0.4013  0.0737 -0.4309
  567PEP     CB18972   4.317  12.302   8.901  0.5362 -0.1337  0.0485
  567PEP     CB18973   4.064  12.575   9.167 -0.0389 -0.0856  0.3386
  567PEP     CB18974   3.623  12.747   9.185 -0.2463  0.4422  0.1401
  567PEP     CB18975   3.417  12.376   8.871  0.1091 -0.1633 -0.0371
  567PEP     CB18976   3.343  12.326   8.428  0.1166  0.1917  0.1024
  567PEP     CB18977   3.559  12.488   8.080  0.2000 -0.2656  0.1296
  567PEP     CB18978   3.916  12.719   8.129 -0.5442 -0.0874 -0.2237
  567PEP     CB18979   4.229  13.014   8.085 -0.1620 -0.0243 -0.2699
  567PEP     CB18980   4.180  13.486   8.155  0.0586  0.1429  0.0226
  567PEP     CB18981   4.227  13.903   8.340  0.3090  0.0500 -0.0616
  567PEP     CB18982   4.505  14.254   8.138 -0.1212  0.1598 -0.0363
  567PEP     CB18983   4.883  14.434   7.933  0.0578 -0.1570  0.2439
  567PEP     CB18984   5.182  14.541   7.757  0.1652  0.0187  0.2216
  567PEP     CB18985   5.416  14.531   7.341  0.0951 -0.1783  0.0095
  567PEP     CB18986   5.347  14.208   7.068 -0.0282  0.0723  0.2141
  567PEP     CB18987   5.359  13.706   7.176  0.1427  0.1444 -0.2379
  567PEP     CB18988   5.180  13.400   7.361 -0.2178  0.3402 -0.3404
  567PEP     CB18989   4.871  13.131   7.242  0.2142  0.3168 -0.2660
  567PEP     CB18990   4.709  13.156   6.874  0.1803  0.2997  0.1429
  567PEP     CB18991   4.507  13.251   6.541  0.1239  0.1946 -0.1425
  567PEP     CB18992   4.460  13.366   6.227 -0.2340 -0.1548  0.2373
  567PEP     CB18993   4.812  13.382   5.897 -0.0712  0.2675 -0.1220
  567PEP     CB18994   5.196  13.223   5.792  0.4025  0.1106 -0.0493
  567PEP     CB18995   5.383  12.911   6.005 -0.2142 -0.2427  0.0292
  567PEP     CB18996   5.254  12.554   6.134  0.2347  0.4610  0.1087
  567PEP     CB18997   4.894  12.479   6.240  0.1232 -0.1111  0.3065
  567PEP     CB18998   4.494  12.692   6.133 -0.1609  0.0121 -0.0422
  567PEP     CB18999   4.459  13.045   5.833  0.3431  0.1471 -0.1255
  567PEP     CB19000   4.378  13.476   5.712  0.3253 -0.1932 -0.3739
  568PEP     CB19001  15.823   2.118   4.884 -0.2109  0.0141  0.0433
  568PEP     CB19002  15.401   2.018   5.003  0.3221  0.1190 -0.3128
  568PEP     CB19003  15.161   1.754   5.262  0.1943 -0.1692  0.1567
  568PEP     CB19004  14.710   1.667   5.331 -0.0805 -0.0534  0.0212
  568PEP     CB19005  14.245   1.863   5.353 -0.0720 -0.2153 -0.0002
  568PEP     CB19006  14.243   2.377   5.501 -0.2751  0.1636 -0.0916
  568PEP     CB19007  14.564   2.660   5.633  0.1626  0.4106  0.2515
  568PEP     CB19008  14.960   2.653   5.532 -0.0109 -0.1261 -0.1003
  568PEP     CB19009  15.107   2.597   5.149  0.1304  0.1380  0.3268
  568PEP     CB19010  15.535   2.576   4.974 -0.0253  0.1971  0.1054
  568PEP     CB19011  15.867   2.524   4.599 -0.1059 -0.2156  0.0304
  568PEP     CB19012  16.277   2.450   4.492 -0.3057 -0.0416  0.0636
  568PEP     CB19013  16.521   2.432   4.179  0.2031  0.1506 -0.2503
  568PEP     CB19014  16.591   2.344   3.730 -0.3226 -0.0136  0.0544
  568PEP     CB19015  16.480   2.085   3.380 -0.1558 -0.2773 -0.1131
  568PEP     CB19016  16.261   1.924   3.087 -0.0921 -0.2629 -0.2813
  568PEP     CB19017  15.941   2.175   2.875 -0.3074  0.2045  0.1236
  568PEP     CB19018  15.805   2.507   3.002  0.0096 -0.1238 -0.1004
  568PEP     CB19019  15.660   2.778   3.261  0.1896  0.2027  0.1254
  568PEP     CB19020  15.385   3.114   3.496 -0.3204 -0.0630 -0.2638
  568PEP     CB19021  15.257   3.293   3.938 -0.2335  0.3094 -0.2144
  568PEP     CB19022  15.075   2.957   4.271  0.2317 -0.1354 -0.2256
  568PEP     CB19023  15.235   2.569   4.293  0.0606 -0.1245 -0.1696
  568PEP     CB19024  15.576   2.451   4.016 -0.0854 -0.1122 -0.2767
  568PEP     CB19025  16.002   2.490   3.917  0.0338 -0.2583  0.1148
  568PEP     CB19026  16.241   2.608   3.468 -0.5687  0.4168  0.2841
  568PEP     CB19027  16.698   2.653   3.239 -0.1058  0.1833  0.2845
  568PEP     CB19028  17.150   2.639   2.922  0.1095  0.3130 -0.3507
  568PEP     CB19029  17.504   2.616   2.498 -0.1026  0.1546 -0.1244
  568PEP     CB19030  17.742   2.247   2.326 -0.1027 -0.2149 -0.0006
  568PEP     CB19031  17.884   1.871   2.257 -0.0290 -0.3799  0.0915
  568PEP     CB19032  18.270   1.718   2.078  0.4732 -0.1231  0.1823
  568PEP     CB19033  18.708   1.746   2.029 -0.1744 -0.1143 -0.0314
  568PEP     CB19034  19.072   1.850   2.255 -0.0481  0.0804 -0.3424
  568PEP     CB19035  19.313   2.162   2.214  0.0192 -0.1374  0.1361
  568PEP     CB19036  19.706   2.298   2.038 -0.1401  0.2089  0.2152
  568PEP     CB19037  19.549   2.494   1.678 -0.2284 -0.0414 -0.1741
  568PEP     CB19038  19.081   2.549   1.623  0.1247 -0.0939 -0.0966
  568PEP     CB19039  18.848   2.521   1.971  0.1023 -0.0487 -0.1289
  568PEP     CB19040  18.642   2.653   2.358 -0.3835  0.2646 -0.5062
  569PEP     CB19041   2.765   2.142   1.664 -0.3032 -0.2955 -0.0644
  569PEP     CB19042   2.638   2.403   2.015 -0.0452 -0.3942  0.2949
  569PEP     CB19043   2.557   2.484   2.425  0.0394  0.2238 -0.1016
  569PEP     CB19044   2.451   2.532   2.881  0.1341  0.0954  0.0514
  569PEP     CB19045   2.339   2.313   3.311  0.0688  0.2129  0.1572
  569PEP     CB19046   2.193   2.304   3.735 -0.0994 -0.2127  0.2619
  569PEP     CB19047   1.999   2.394   4.027 -0.2213 -0.2405  0.1967
  569PEP     CB19048   1.726   2.636   4.319 -0.1062  0.2102  0.2604
  569PEP     CB19049   1.280   2.748   4.408 -0.0434  0.1050 -0.2402
  569PEP     CB19050   0.960   2.950   4.386 -0.1509 -0.1548  0.0908
  569PEP     CB19051   0.742   3.310   4.511  0.0433  0.2394  0.2228
  569PEP     CB19052   0.238   3.390   4.576  0.0795  0.1979 -0.1870
  569PEP     CB19053  -0.152   3.186   4.505 -0.5251 -0.3334  0.1763
  569PEP     CB19054  -0.343   2.863   4.680 -0.0870 -0.0033 -0.1175
  569PEP     CB19055  -0.107   2.527   4.888  0.3459 -0.1545 -0.1681
  569PEP     CB19056   0.290   2.499   5.003 -0.1895  0.2835 -0.2113
  569PEP     CB19057   0.694   2.249   4.967 -0.0216  0.1881 -0.1025
  569PEP     CB19058   0.988   1.955   5.030 -0.1975 -0.2566  0.3680
  569PEP     CB19059   1.191   1.527   5.030 -0.1406 -0.0351  0.1245
  569PEP     CB19060   1.543   1.294   4.785  0.0355  0.2076  0.2114
  569PEP     CB19061   2.007   1.252   4.623  0.0392 -0.0993  0.3001
  569PEP     CB19062   2.226   1.635   4.421 -0.2886  0.4129  0.0360
  569PEP     CB19063   2.177   1.827   4.019 -0.0083  0.3173 -0.4076
  569PEP     CB19064   2.048   1.687   3.561 -0.1819  0.3432 -0.0541
  569PEP     CB19065   2.136   1.277   3.433  0.2371 -0.3439  0.0648
  569PEP     CB19066   1.886   0.940   3.562 -0.0290 -0.1302 -0.0423
  569PEP     CB19067   1.693   0.522   3.496  0.3806  0.0575  0.0602
  569PEP     CB19068   1.290   0.334   3.488 -0.0831  0.3442  0.1391
  569PEP     CB19069   0.965   0.635   3.502  0.1632  0.0789  0.0863
  569PEP     CB19070   0.968   1.088   3.611 -0.1475 -0.2032 -0.1954
  569PEP     CB19071   1.294   1.337   3.887  0.2116 -0.3778  0.0904
  569PEP     CB19072   1.802   1.411   3.828 -0.0010 -0.1221 -0.3129
  569PEP     CB19073   2.155   1.289   3.952 -0.4215  0.0847 -0.1139
  569PEP     CB19074   2.532   1.044   3.965  0.4834  0.1155  0.0619
  569PEP     CB19075   2.735   0.649   3.815 -0.3073  0.2279  0.1739
  569PEP     CB19076   2.937   0.622   3.442  0.2222  0.0458 -0.0436
  569PEP     CB19077   3.200   0.753   2.991 -0.1372 -0.3578 -0.0173
  569PEP     CB19078   3.368   1.151   2.777  0.2530 -0.3592  0.2379
  569PEP     CB19079   3.270   1.559   2.564  0.3661 -0.0192  0.4903
  569PEP     CB19080   2.856   1.872   2.638  0.2792  0.0793  0.1828
  570PEP     CB19081   0.544   6.750   9.070 -0.0091 -0.0120 -0.0777
  570PEP     CB19082   0.180   6.766   9.177 -0.0619 -0.0925 -0.2231
  570PEP     CB19083  -0.068   6.471   9.071  0.1524  0.1807  0.2064
  570PEP     CB19084  -0.017   6.091   8.844  0.0540  0.1263  0.0633
  570PEP     CB19085   0.114   5.939   8.531 -0.0019 -0.2435  0.2861
  570PEP     CB19086   0.023   5.860   8.180 -0.0287 -0.0084  0.3279
  570PEP     CB19087  -0.302   5.529   8.217  0.1420  0.1308 -0.2020
  570PEP     CB19088  -0.286   5.073   8.379 -0.0528 -0.0214 -0.0831
  570PEP     CB19089  -0.376   4.576   8.405  0.2580  0.2707  0.4433
  570PEP     CB19090  -0.237   4.065   8.337  0.0544 -0.1792  0.0075
  570PEP     CB19091  -0.488   3.653   8.347  0.2066 -0.2867 -0.1527
  570PEP     CB19092  -0.949   3.708   8.445  0.1921  0.3729  0.0302
  570PEP     CB19093  -1.168   4.041   8.156 -0.2269  0.2218  0.1590
  570PEP     CB19094  -1.096   4.061   7.725 -0.2424 -0.3701  0.4575
  570PEP     CB19095  -1.226   4.193   7.353  0.0368  0.4046  0.0717
  570PEP     CB19096  -1.144   4.292   6.972 -0.0020 -0.0102  0.1572
  570PEP     CB19097  -1.058   4.554   6.643 -0.3542  0.0156  0.1576
  570PEP     CB19098  -0.998   4.840   6.130  0.3044 -0.4693  0.0111
  570PEP     CB19099  -0.904   5.225   6.010 -0.0269 -0.0653  0.3856
  570PEP     CB19100  -0.551   5.549   6.130 -0.2512  0.4330  0.0210
  570PEP     CB19101  -0.198   5.834   6.270  0.2114 -0.2365  0.2579
  570PEP     CB19102   0.015   6.199   6.273 -0.1544  0.0074  0.1273
  570PEP     CB19103   0.095   6.601   6.081 -0.1379 -0.1945 -0.0785
  570PEP     CB19104   0.212   6.846   5.751  0.0050 -0.0072  0.0983
  570PEP     CB19105   0.152   6.970   5.341 -0.1000  0.0462  0.0305
  570PEP     CB19106   0.282   7.125   4.922 -0.1525  0.0510  0.1370
  570PEP     CB19107   0.249   7.284   4.572 -0.1751 -0.0489 -0.0868
  570PEP     CB19108  -0.001   7.379   4.273  0.0727  0.4244  0.0729
  570PEP     CB19109  -0.425   7.581   4.269 -0.1461 -0.1526  0.1386
  570PEP     CB19110  -0.756   7.559   4.501  0.0106 -0.1329  0.1353
  570PEP     CB19111  -1.187   7.659   4.621  0.0158  0.1410  0.1225
  570PEP     CB19112  -1.416   8.010   4.733  0.1038  0.0230 -0.0064
  570PEP     CB19113  -1.532   8.417   4.900  0.1155 -0.2263 -0.5636
  570PEP     CB19114  -1.811   8.552   5.125  0.2009 -0.0121  0.0996
  570PEP     CB19115  -2.207   8.452   5.401 -0.2752  0.4645  0.1860
  570PEP     CB19116  -2.489   8.181   5.568 -0.2765  0.5116 -0.0223
  570PEP     CB19117  -2.858   8.055   5.652  0.1600  0.2155 -0.0770
  570PEP     CB19118  -3.050   7.671   5.558 -0.1669  0.1371  0.1536
  570PEP     CB19119  -3.091   7.502   5.246 -0.0417  0.0974  0.4931
  570PEP     CB19120  -3.208   7.340   4.789  0.2721  0.3725 -0.1175
  571PEP     CB19121   5.039  21.456  15.931 -0.1721 -0.3031 -0.1561
  571PEP     CB19122   5.212  21.726  15.601 -0.0809  0.3241 -0.1195
  571PEP     CB19123   5.251  21.927  15.214 -0.3448  0.0652  0.0290
  571PEP     CB19124   5.448  22.058  14.865 -0.2355 -0.2105  0.2360
  571PEP     CB19125   5.683  22.222  14.551  0.0277 -0.0334 -0.5263
  571PEP     CB19126   5.771  22.373  14.190  0.2168  0.0278 -0.3067
  571PEP     CB19127   5.766  22.603  13.859  0.2768 -0.0786 -0.0779
  571PEP     CB19128   5.668  22.898  13.482 -0.1001  0.0746 -0.3173
  571PEP     CB19129   5.866  23.127  13.240  0.2934  0.2045 -0.0090
  571PEP     CB19130   6.241  23.283  13.147 -0.0562 -0.2546  0.2680
  571PEP     CB19131   6.594  23.240  12.946 -0.0238  0.2459  0.2005
  571PEP     CB19132   7.066  23.133  13.013 -0.2280 -0.4361  0.0955
  571PEP     CB19133   7.463  23.088  13.088 -0.2189 -0.1266 -0.1697
  571PEP     CB19134   7.699  22.964  12.866 -0.1376  0.0016  0.0421
  571PEP     CB19135   7.976  23.203  12.545 -0.1372 -0.5916  0.3468
  571PEP     CB19136   8.374  23.330  12.380  0.3956  0.1151  0.1550
  571PEP     CB19137   8.784  23.523  12.376 -0.1025 -0.0135 -0.3862
  571PEP     CB19138   8.985  23.848  12.400 -0.4186  0.1064 -0.1437
  571PEP     CB19139   8.995  24.317  12.543 -0.2094 -0.0105 -0.3603
  571PEP     CB19140   9.244  24.702  12.472 -0.0830  0.4381  0.0413
  571PEP     CB19141   9.511  24.978  12.289 -0.0255  0.2315  0.4049
  571PEP     CB19142   9.766  25.339  12.489  0.0755 -0.2252  0.1955
  571PEP     CB19143   9.976  25.545  12.819  0.0833 -0.0930  0.1380
  571PEP     CB19144  10.127  25.663  13.264 -0.0708 -0.2643 -0.2568
  571PEP     CB19145  10.434  25.858  13.620  0.1457  0.1414  0.4586
  571PEP     CB19146  10.652  26.242  13.746 -0.0670  0.1448 -0.1934
  571PEP     CB19147  10.744  26.684  13.642  0.5595 -0.0007 -0.0357
  571PEP     CB19148  11.088  27.013  13.566  0.0413 -0.1576  0.3929
  571PEP     CB19149  11.474  27.169  13.681 -0.2467 -0.0273  0.0893
  571PEP     CB19150  11.865  27.387  13.917 -0.0011  0.2535 -0.1741
  571PEP     CB19151  11.998  27.821  13.943 -0.0168  0.0294 -0.0922
  571PEP     CB19152  12.109  28.104  14.210 -0.0637  0.0031 -0.3214
  571PEP     CB19153  11.824  28.174  14.586 -0.1608 -0.0055  0.2110
  571PEP     CB19154  11.344  28.231  14.694  0.0817  0.0942 -0.1028
  571PEP     CB19155  10.998  28.554  14.743  0.0117  0.0068 -0.0361
  571PEP     CB19156  10.543  28.647  14.832  0.0358 -0.1513 -0.0822
  571PEP     CB19157  10.159  28.882  14.797 -0.4925  0.3451  0.0820
  571PEP     CB19158   9.849  28.940  15.058 -0.0906  0.3882 -0.2622
  571PEP     CB19159   9.792  29.228  15.370  0.0278  0.0628  0.1428
  571PEP     CB19160   9.812  29.585  15.531 -0.1065 -0.1888  0.1562
  572PEP     CB19161   1.248   6.599  12.537 -0.0699 -0.0549 -0.1146
  572PEP     CB19162   0.995   6.853  12.320 -0.0546  0.1581 -0.0599
  572PEP     CB19163   0.912   7.283  12.144 -0.0122 -0.1369  0.0636
  572PEP     CB19164   1.073   7.463  11.856  0.3198  0.2076 -0.2941
  572PEP     CB19165   1.162   7.261  11.451 -0.0215  0.3407  0.1886
  572PEP     CB19166   0.852   7.080  11.160  0.0991 -0.3409  0.3353
  572PEP     CB19167   0.768   6.895  10.814 -0.0176 -0.1387  0.1130
  572PEP     CB19168   0.725   6.867  10.371  0.2383 -0.2328  0.2401
  572PEP     CB19169   0.689   7.177  10.076  0.2443  0.3816  0.2465
  572PEP     CB19170   0.442   7.551  10.002 -0.0316  0.0032 -0.2208
  572PEP     CB19171   0.232   7.859  10.282  0.0401 -0.1747  0.3884
  572PEP     CB19172   0.319   8.168  10.572 -0.0772  0.2530  0.3225
  572PEP     CB19173   0.818   8.207  10.844  0.0304  0.2832  0.0680
  572PEP     CB19174   1.146   8.307  11.219  0.0817  0.0152 -0.2538
  572PEP     CB19175   1.439   8.165  11.621 -0.3623  0.3039 -0.0217
  572PEP     CB19176   1.831   8.194  11.819  0.1363 -0.0903 -0.0995
  572PEP     CB19177   2.202   8.115  11.948 -0.3367  0.0967  0.0946
  572PEP     CB19178   2.307   8.139  12.367 -0.0015 -0.1963 -0.0332
  572PEP     CB19179   2.013   8.087  12.772  0.2842  0.2062  0.0454
  572PEP     CB19180   1.771   8.261  13.052 -0.1464  0.0529  0.0495
  572PEP     CB19181   1.864   8.329  13.526  0.0163  0.0449  0.0661
  572PEP     CB19182   1.899   8.774  13.719  0.4548  0.3233  0.3552
  572PEP     CB19183   2.110   9.210  13.580  0.0525  0.2408 -0.1182
  572PEP     CB19184   2.409   9.493  13.775 -0.2357  0.4953 -0.5486
  572PEP     CB19185   2.769   9.779  13.929  0.1278  0.1024 -0.0125
  572PEP     CB19186   3.055  10.022  14.146  0.1892  0.1322  0.0849
  572PEP     CB19187   3.239  10.441  14.409 -0.2175 -0.4543 -0.0791
  572PEP     CB19188   3.271  10.779  14.746  0.1682  0.0490  0.2841
  572PEP     CB19189   3.397  11.127  14.965 -0.2870 -0.2455 -0.0321
  572PEP     CB19190   3.475  11.567  14.922 -0.2112 -0.3439 -0.0332
  572PEP     CB19191   3.674  11.948  15.076 -0.2106  0.2054 -0.4024
  572PEP     CB19192   3.965  12.287  15.196 -0.4539  0.2843 -0.0920
  572PEP     CB19193   4.198  12.526  15.314  0.1477 -0.0189 -0.1395
  572PEP     CB19194   4.483  12.767  15.594 -0.0621  0.0885 -0.0289
  572PEP     CB19195   4.717  13.114  15.634 -0.0012  0.1657  0.1671
  572PEP     CB19196   5.056  13.268  15.742 -0.5902 -0.3149 -0.1743
  572PEP     CB19197   5.378  13.239  16.103  0.0833 -0.0059  0.0561
  572PEP     CB19198   5.709  13.082  16.329  0.2568 -0.0522  0.1027
  572PEP     CB19199   6.098  13.118  16.508 -0.0267  0.2233  0.1083
  572PEP     CB19200   6.432  13.169  16.846 -0.0745 -0.0275 -0.2377
  573PEP     CB19201  17.365  10.073  18.789  0.3373  0.4861  0.1574
  573PEP     CB19202  17.453  10.410  18.364  0.1540 -0.2446  0.1594
  573PEP     CB19203  17.745  10.685  18.358 -0.5216  0.3070  0.2347
  573PEP     CB19204  18.007  10.787  18.709  0.2806 -0.6418 -0.3451
  573PEP     CB19205  18.254  10.712  19.034 -0.3082 -0.3999  0.1193
  573PEP     CB19206  18.755  10.913  19.307  0.1058 -0.0519 -0.1532
  573PEP     CB19207  19.047  11.331  19.239  0.2825  0.0291  0.1106
  573PEP     CB19208  19.155  11.779  19.138 -0.4221  0.0728 -0.4478
  573PEP     CB19209  19.103  12.237  19.300 -0.3462  0.1275 -0.1412
  573PEP     CB19210  19.258  12.629  19.352 -0.1975 -0.0265 -0.3065
  573PEP     CB19211  19.518  12.938  19.123  0.0586 -0.0608  0.0632
  573PEP     CB19212  19.410  13.135  18.730 -0.0320  0.1521 -0.0321
  573PEP     CB19213  18.955  13.110  18.539  0.1785  0.1918  0.0402
  573PEP     CB19214  18.691  13.046  18.918 -0.1592  0.0281  0.1366
  573PEP     CB19215  18.802  13.002  19.326  0.2946 -0.0696 -0.0220
  573PEP     CB19216  18.907  13.107  19.680 -0.2379  0.0749 -0.1248
  573PEP     CB19217  19.105  13.303  20.053 -0.1258 -0.0619  0.0892
  573PEP     CB19218  19.187  13.181  20.550  0.0264 -0.4547  0.0210
  573PEP     CB19219  19.008  12.965  20.871  0.1175 -0.3051  0.0143
  573PEP     CB19220  18.702  12.643  21.009 -0.4425 -0.1969 -0.1459
  573PEP     CB19221  18.341  12.365  20.827  0.4277  0.0133  0.1408
  573PEP     CB19222  18.125  12.163  20.585 -0.0596 -0.5696 -0.0327
  573PEP     CB19223  17.745  11.867  20.478 -0.1601  0.1182  0.1699
  573PEP     CB19224  17.615  11.622  20.811  0.4071  0.0485 -0.3156
  573PEP     CB19225  17.744  11.607  21.234 -0.0419  0.0182  0.3079
  573PEP     CB19226  17.781  11.876  21.514 -0.1533  0.1344 -0.0759
  573PEP     CB19227  17.434  12.160  21.787  0.0734  0.0972  0.2951
  573PEP     CB19228  17.271  12.510  22.101  0.5078  0.2872  0.1521
  573PEP     CB19229  17.116  12.735  22.477  0.2093  0.0385 -0.3592
  573PEP     CB19230  16.654  12.705  22.538  0.0986 -0.0852 -0.4906
  573PEP     CB19231  16.313  12.438  22.624  0.0115 -0.1742 -0.2057
  573PEP     CB19232  16.258  11.913  22.684  0.0863  0.1553 -0.6563
  573PEP     CB19233  15.872  11.606  22.665 -0.2187  0.3041 -0.1938
  573PEP     CB19234  15.498  11.330  22.919  0.2015 -0.1921 -0.0649
  573PEP     CB19235  15.255  10.949  22.999  0.2700  0.1364 -0.1459
  573PEP     CB19236  15.233  10.466  23.134  0.1100 -0.1383 -0.0606
  573PEP     CB19237  15.337  10.302  23.483  0.0632  0.0793  0.1157
  573PEP     CB19238  15.473  10.622  23.826 -0.2738  0.3295 -0.1132
  573PEP     CB19239  15.328  11.023  23.832  0.0032 -0.3111 -0.2252
  573PEP     CB19240  15.113  11.196  23.450 -0.3376  0.1795  0.0062
  574PEP     CB19241   8.224  15.231  20.897 -0.1161 -0.1871  0.0533
  574PEP     CB19242   8.387  15.644  21.121 -0.1148  0.0779 -0.3686
  574PEP     CB19243   8.132  15.887  21.277 -0.0004  0.1278 -0.0018
  574PEP     CB19244   7.730  15.926  21.543  0.1069 -0.3222  0.1236
  574PEP     CB19245   7.394  15.752  21.690 -0.5251 -0.2621  0.0501
  574PEP     CB19246   7.221  15.466  21.982 -0.1190  0.2024 -0.0903
  574PEP     CB19247   7.052  15.078  22.062 -0.0071 -0.2123  0.2540
  574PEP     CB19248   6.573  14.967  21.918  0.0661  0.2076  0.1569
  574PEP     CB19249   6.332  15.367  21.778 -0.1871  0.4152 -0.1981
  574PEP     CB19250   6.193  15.725  22.001  0.1835 -0.0204  0.2565
  574PEP     CB19251   6.055  15.864  22.400  0.4604  0.4105 -0.6268
  574PEP     CB19252   5.961  15.698  22.746 -0.0778  0.0877 -0.3268
  574PEP     CB19253   6.191  15.370  22.847 -0.4691  0.1274 -0.1149
  574PEP     CB19254   6.684  15.232  22.803  0.1112 -0.1403 -0.3849
  574PEP     CB19255   6.786  14.993  22.480 -0.2786  0.2421  0.3822
  574PEP     CB19256   6.667  14.616  22.299  0.1127 -0.1462  0.2109
  574PEP     CB19257   6.336  14.270  22.332  0.2624  0.1172  0.3640
  574PEP     CB19258   6.275  13.837  22.339  0.0182 -0.0069 -0.1869
  574PEP     CB19259   6.033  13.510  22.398  0.1177 -0.1270  0.0084
  574PEP     CB19260   5.702  13.096  22.409 -0.2481 -0.0545 -0.0425
  574PEP     CB19261   5.625  12.731  22.623 -0.0101  0.0001  0.6185
  574PEP     CB19262   5.486  12.466  22.979 -0.1949 -0.0486  0.1045
  574PEP     CB19263   5.498  12.537  23.410  0.2812 -0.0970 -0.0678
  574PEP     CB19264   5.837  12.751  23.594 -0.1506 -0.1552 -0.2303
  574PEP     CB19265   6.205  13.056  23.403  0.0120  0.1213 -0.1265
  574PEP     CB19266   6.325  13.493  23.417  0.2559 -0.0832  0.0708
  574PEP     CB19267   6.463  13.866  23.681  0.1292  0.0583  0.1207
  574PEP     CB19268   6.458  14.383  23.591  0.1493 -0.0620 -0.0504
  574PEP     CB19269   6.144  14.580  23.366  0.1007 -0.2055  0.0315
  574PEP     CB19270   5.790  14.444  23.196 -0.0245 -0.0409 -0.2172
  574PEP     CB19271   5.600  14.212  22.988  0.0187  0.4413  0.0095
  574PEP     CB19272   5.180  13.987  23.026  0.3789  0.2844  0.2030
  574PEP     CB19273   4.828  13.989  22.780  0.2047 -0.0732  0.0640
  574PEP     CB19274   4.778  14.258  22.445  0.3350 -0.1862 -0.0798
  574PEP     CB19275   4.937  14.564  22.148 -0.0296 -0.1315 -0.1915
  574PEP     CB19276   4.769  14.690  21.799  0.0469 -0.1763  0.1020
  574PEP     CB19277   4.874  15.070  21.610  0.1181  0.2157  0.0175
  574PEP     CB19278   4.811  15.556  21.517 -0.2832  0.1158  0.5016
  574PEP     CB19279   4.935  15.897  21.747 -0.1026 -0.0361  0.0136
  574PEP     CB19280   5.107  16.278  22.001  0.2741 -0.0613 -0.0148
  575PEP     CB19281   1.383  16.910   6.396  0.0326 -0.4608 -0.0927
  575PEP     CB19282   1.792  16.830   6.156 -0.0393 -0.1257 -0.0085
  575PEP     CB19283   1.923  16.717   5.692 -0.0528 -0.0039 -0.2999
  575PEP     CB19284   2.108  16.577   5.401  0.2585  0.3136  0.0829
  575PEP     CB19285   2.142  16.224   5.147  0.0977  0.1419 -0.1975
  575PEP     CB19286   2.372  16.080   4.752  0.0595  0.2747 -0.0932
  575PEP     CB19287   2.602  16.095   4.429 -0.0475 -0.0467 -0.0722
  575PEP     CB19288   3.057  15.913   4.205 -0.0627 -0.0947 -0.1662
  575PEP     CB19289   3.349  16.003   3.965 -0.3678 -0.2524  0.1398
  575PEP     CB19290   3.349  16.250   3.609 -0.0489 -0.2753  0.1071
  575PEP     CB19291   3.160  16.178   3.214  0.1415  0.1977  0.3443
  575PEP     CB19292   3.201  15.762   3.017 -0.2056  0.0340 -0.3476
  575PEP     CB19293   3.303  15.261   3.058 -0.3333  0.0305 -0.1078
  575PEP     CB19294   3.612  14.977   2.803  0.2419 -0.2776 -0.0736
  575PEP     CB19295   3.852  15.172   2.406  0.1998  0.0985  0.2378
  575PEP     CB19296   4.052  15.626   2.610 -0.1586 -0.1378 -0.1802
  575PEP     CB19297   4.254  15.758   3.007  0.1036  0.0464 -0.0080
  575PEP     CB19298   4.534  15.699   3.328 -0.0574  0.1755  0.3555
  575PEP     CB19299   4.581  16.027   3.697  0.1027 -0.0654  0.0638
  575PEP     CB19300   4.750  16.112   4.033  0.1241 -0.1186 -0.0154
  575PEP     CB19301   4.893  16.025   4.437  0.1202 -0.1542 -0.3137
  575PEP     CB19302   4.957  15.809   4.734 -0.1191 -0.0980  0.3107
  575PEP     CB19303   4.621  15.583   5.025  0.0296 -0.0439 -0.2094
  575PEP     CB19304   4.314  15.276   5.031  0.0793 -0.2639  0.4225
  575PEP     CB19305   3.886  15.341   4.923 -0.0913 -0.3507 -0.1161
  575PEP     CB19306   3.444  15.323   4.850  0.1784  0.0236  0.1470
  575PEP     CB19307   3.137  15.454   4.699  0.4870  0.1155  0.2993
  575PEP     CB19308   2.718  15.506   4.483 -0.2864 -0.0966 -0.5842
  575PEP     CB19309   2.389  15.634   4.222 -0.0689 -0.1654  0.0626
  575PEP     CB19310   1.976  15.943   4.311 -0.0306  0.0946  0.2348
  575PEP     CB19311   1.806  16.359   4.440 -0.2563 -0.3127  0.0838
  575PEP     CB19312   1.909  16.736   4.365  0.0838 -0.0327 -0.0543
  575PEP     CB19313   2.060  17.189   4.252  0.0721  0.1657 -0.1465
  575PEP     CB19314   2.045  17.644   4.068  0.4295 -0.0278 -0.1038
  575PEP     CB19315   1.927  18.111   3.991  0.3440 -0.4892  0.0326
  575PEP     CB19316   1.676  18.464   3.824  0.0208  0.1177 -0.2043
  575PEP     CB19317   1.429  18.847   3.855 -0.0713  0.0836  0.1663
  575PEP     CB19318   1.292  19.286   3.798  0.2847 -0.2481 -0.2907
  575PEP     CB19319   1.252  19.752   3.902 -0.2337  0.0491 -0.1293
  575PEP     CB19320   1.128  20.160   3.921 -0.3074  0.0726 -0.0440
  576PEP     CB19321  15.992   0.300   8.158  0.0245  0.2360 -0.1431
  576PEP     CB19322  16.392   0.384   8.383 -0.1886  0.3208  0.3162
  576PEP     CB19323  16.654   0.477   8.768 -0.6399  0.2154  0.0040
  576PEP     CB19324  16.903   0.816   8.831 -0.1836 -0.2270 -0.3888
  576PEP     CB19325  17.128   1.149   8.726  0.3319  0.3647  0.1664
  576PEP     CB19326  17.352   1.261   8.368 -0.2436 -0.2040 -0.0633
  576PEP     CB19327  17.153   1.014   8.033  0.2299  0.1588  0.3564
  576PEP     CB19328  16.822   0.708   8.244  0.3047  0.2375 -0.3131
  576PEP     CB19329  16.396   0.851   8.509 -0.2216  0.1624 -0.1315
  576PEP     CB19330  16.154   1.203   8.529  0.1227 -0.2667 -0.3320
  576PEP     CB19331  16.249   1.582   8.385 -0.1297 -0.3189  0.1184
  576PEP     CB19332  16.663   1.746   8.190 -0.3076 -0.2046  0.4323
  576PEP     CB19333  17.031   1.640   8.403  0.1771 -0.2939 -0.2323
  576PEP     CB19334  17.142   1.596   8.861  0.3037  0.0439  0.1640
  576PEP     CB19335  17.009   1.798   9.239  0.0940  0.0767  0.2215
  576PEP     CB19336  17.167   1.647   9.675 -0.0250  0.3429  0.0785
  576PEP     CB19337  17.029   1.637  10.074  0.0385  0.0315 -0.2863
  576PEP     CB19338  16.673   1.287  10.290  0.3450  0.1716  0.0685
  576PEP     CB19339  16.397   0.956  10.029  0.3347  0.1838  0.0404
  576PEP     CB19340  16.298   0.539   9.817 -0.1090  0.1149 -0.0109
  576PEP     CB19341  16.273   0.038   9.810 -0.1212 -0.2071 -0.4690
  576PEP     CB19342  16.195  -0.232   9.336 -0.0382  0.3391  0.3679
  576PEP     CB19343  15.854  -0.134   9.062 -0.1615  0.5220  0.2161
  576PEP     CB19344  15.655   0.260   8.844 -0.1436  0.1165 -0.1473
  576PEP     CB19345  15.731   0.621   8.569 -0.1018  0.1902  0.0944
  576PEP     CB19346  15.947   0.787   8.172  0.1682 -0.1157  0.2465
  576PEP     CB19347  15.840   0.695   7.696  0.3414  0.2480 -0.0355
  576PEP     CB19348  15.830   0.652   7.244  0.0248  0.1538 -0.3227
  576PEP     CB19349  15.574   0.445   6.875 -0.0979 -0.0814  0.3622
  576PEP     CB19350  15.376   0.287   6.430 -0.0223  0.0660 -0.0369
  576PEP     CB19351  15.328  -0.113   6.303  0.0393  0.2108 -0.6361
  576PEP     CB19352  15.561  -0.487   6.454  0.2039 -0.1340  0.2912
  576PEP     CB19353  15.979  -0.545   6.746  0.0546 -0.0310 -0.1109
  576PEP     CB19354  16.222  -0.532   7.005  0.2557  0.1899 -0.0522
  576PEP     CB19355  16.442  -0.287   7.296  0.2334 -0.2234  0.2059
  576PEP     CB19356  16.769  -0.120   7.532 -0.3579 -0.1897 -0.0878
  576PEP     CB19357  17.195  -0.020   7.527  0.1065  0.2856  0.0178
  576PEP     CB19358  17.499   0.059   7.203 -0.1198 -0.0148  0.3011
  576PEP     CB19359  17.913  -0.188   7.086 -0.4049 -0.0384  0.2733
  576PEP     CB19360  18.299  -0.166   7.128 -0.1086 -0.0050  0.3360
  577PEP     CB19361  16.830  16.804  11.142 -0.0365  0.0080  0.0450
  577PEP     CB19362  16.703  16.475  11.189  0.2287 -0.0823 -0.1000
  577PEP     CB19363  16.487  16.010  11.221  0.1061 -0.1114  0.3739
  577PEP     CB19364  16.050  15.930  11.060  0.0041  0.0375  0.2461
  577PEP     CB19365  15.835  16.200  10.677  0.1777  0.0629  0.2854
  577PEP     CB19366  16.057  16.282  10.311 -0.2040  0.1906 -0.0012
  577PEP     CB19367  16.447  16.571  10.265 -0.0742  0.4222 -0.0151
  577PEP     CB19368  16.851  16.518  10.415  0.1866  0.0640  0.3274
  577PEP     CB19369  17.028  16.471  10.771  0.0924 -0.1484 -0.2696
  577PEP     CB19370  17.325  16.697  10.936  0.1161  0.2144 -0.0819
  577PEP     CB19371  17.544  16.884  10.692  0.0188  0.2504 -0.0824
  577PEP     CB19372  17.922  16.688  10.341 -0.3407 -0.1480  0.1357
  577PEP     CB19373  18.296  16.388  10.190 -0.1584  0.0278  0.0678
  577PEP     CB19374  18.687  16.173  10.095  0.4036  0.4610 -0.0812
  577PEP     CB19375  18.799  16.012   9.649  0.2795  0.2517  0.2124
  577PEP     CB19376  18.533  15.715   9.363 -0.1074 -0.1120 -0.2453
  577PEP     CB19377  18.501  15.519   8.922 -0.0381  0.0944 -0.0843
  577PEP     CB19378  18.854  15.357   8.769 -0.0713  0.0480  0.2547
  577PEP     CB19379  19.176  15.192   9.113  0.1599 -0.0428  0.0858
  577PEP     CB19380  19.399  15.005   9.488  0.1555 -0.2704 -0.2686
  577PEP     CB19381  19.729  14.989   9.861  0.4186  0.1223  0.1536
  577PEP     CB19382  20.184  15.017   9.684  0.1278 -0.0962  0.0965
  577PEP     CB19383  20.306  15.209   9.260 -0.1597 -0.0913 -0.2926
  577PEP     CB19384  20.192  15.578   8.982 -0.1533 -0.1516  0.4871
  577PEP     CB19385  20.026  15.900   8.842  0.0416 -0.2717  0.3086
  577PEP     CB19386  19.641  16.156   8.718 -0.1541 -0.4254  0.0705
  577PEP     CB19387  19.456  16.334   8.226  0.0889  0.0619  0.0085
  577PEP     CB19388  19.629  16.198   7.776 -0.0598 -0.2031 -0.1893
  577PEP     CB19389  19.933  16.018   7.390  0.2690  0.1273  0.0136
  577PEP     CB19390  20.179  15.967   7.045  0.1649 -0.0428  0.1900
  577PEP     CB19391  20.272  16.050   6.622  0.4176 -0.1233  0.2176
  577PEP     CB19392  20.526  15.909   6.337  0.2026  0.4884  0.0386
  577PEP     CB19393  20.894  15.758   6.373  0.0139 -0.0858 -0.2063
  577PEP     CB19394  21.053  15.350   6.441  0.1408  0.4262  0.3292
  577PEP     CB19395  21.399  15.132   6.396  0.2180  0.2305  0.1339
  577PEP     CB19396  21.672  15.099   6.139 -0.2673 -0.0380 -0.4534
  577PEP     CB19397  21.924  15.257   5.754  0.0886  0.1795  0.0446
  577PEP     CB19398  21.778  15.423   5.373  0.0532 -0.2221  0.0114
  577PEP     CB19399  21.716  15.270   5.024 -0.2986 -0.4339  0.0816
  577PEP     CB19400  21.777  14.951   4.555 -0.3075  0.1104 -0.1983
  578PEP     CB19401   4.509   2.540   6.381  0.2068 -0.0253 -0.0818
  578PEP     CB19402   4.598   2.797   6.762  0.0940  0.0900  0.0764
  578PEP     CB19403   4.510   2.926   7.162 -0.1196 -0.1023  0.1381
  578PEP     CB19404   4.488   3.185   7.525 -0.2129 -0.1535  0.5069
  578PEP     CB19405   4.377   3.250   8.001 -0.4056 -0.0363 -0.1570
  578PEP     CB19406   4.571   3.194   8.430  0.0601  0.5304  0.1060
  578PEP     CB19407   4.836   3.012   8.607 -0.0459  0.3412  0.4442
  578PEP     CB19408   5.002   2.868   9.036 -0.2299 -0.3030  0.3529
  578PEP     CB19409   5.146   2.802   9.396 -0.2863  0.1508  0.0457
  578PEP     CB19410   5.409   2.599   9.754 -0.4068  0.6488 -0.0406
  578PEP     CB19411   5.422   2.349  10.135 -0.1853 -0.2464 -0.3251
  578PEP     CB19412   5.761   2.028  10.048 -0.3462 -0.0889  0.3133
  578PEP     CB19413   6.193   2.032   9.930 -0.0311  0.1852 -0.0437
  578PEP     CB19414   6.554   2.352   9.796  0.0793  0.1690  0.3507
  578PEP     CB19415   6.953   2.477   9.718 -0.1162  0.1379  0.0582
  578PEP     CB19416   7.191   2.796   9.965  0.0775  0.4127  0.1658
  578PEP     CB19417   7.097   3.103  10.252  0.3719  0.5850 -0.0251
  578PEP     CB19418   6.797   3.118  10.516  0.3973  0.0713 -0.0831
  578PEP     CB19419   6.787   3.029  10.853  0.0116  0.3434  0.0849
  578PEP     CB19420   7.032   2.987  11.193  0.3835 -0.3711 -0.3927
  578PEP     CB19421   7.033   2.968  11.673  0.0982 -0.0500 -0.1741
  578PEP     CB19422   7.125   2.778  12.065  0.0651  0.0845 -0.3652
  578PEP     CB19423   7.257   2.395  12.161  0.5099  0.4581  0.1252
  578PEP     CB19424   7.633   2.185  11.983  0.2925  0.0700 -0.3022
  578PEP     CB19425   7.897   2.446  11.648  0.3935  0.0123 -0.0698
  578PEP     CB19426   8.200   2.853  11.723 -0.4582  0.0994  0.1605
  578PEP     CB19427   8.400   2.842  12.155 -0.0800 -0.3550  0.3354
  578PEP     CB19428   8.075   2.848  12.407  0.0530 -0.2008 -0.0600
  578PEP     CB19429   7.761   2.623  12.206 -0.2201 -0.1072  0.0242
  578PEP     CB19430   7.515   2.689  11.771  0.1515  0.3025 -0.0135
  578PEP     CB19431   7.589   2.877  11.471 -0.1611 -0.2307 -0.1499
  578PEP     CB19432   7.912   2.909  11.188  0.2542 -0.2229  0.2134
  578PEP     CB19433   8.334   3.034  11.212 -0.2429 -0.2869  0.2577
  578PEP     CB19434   8.606   2.721  11.424  0.0629 -0.2077 -0.2831
  578PEP     CB19435   8.652   2.338  11.388 -0.0837  0.3009  0.4672
  578PEP     CB19436   8.588   1.989  11.132 -0.3061 -0.1730  0.1040
  578PEP     CB19437   8.464   1.599  10.842  0.3898  0.0727  0.0032
  578PEP     CB19438   8.213   1.160  10.885  0.1248 -0.0749  0.1580
  578PEP     CB19439   8.042   0.906  11.242  0.1351 -0.2155  0.0672
  578PEP     CB19440   7.887   0.491  11.306  0.1072  0.0645  0.3963
  579PEP     CB19441  14.444   0.697   4.374  0.2369 -0.0305  0.0464
  579PEP     CB19442  14.578   1.054   4.512  0.1883  0.1679  0.5666
  579PEP     CB19443  14.767   1.427   4.261  0.1606 -0.3278  0.2333
  579PEP     CB19444  14.537   1.572   3.844 -0.2632 -0.2543 -0.0547
  579PEP     CB19445  14.171   1.359   3.729 -0.0229  0.3468  0.0292
  579PEP     CB19446  13.999   1.070   3.923 -0.1120  0.3768 -0.1266
  579PEP     CB19447  13.614   0.822   3.962 -0.5069 -0.4400  0.0698
  579PEP     CB19448  13.228   1.001   4.128  0.0983 -0.2023 -0.1065
  579PEP     CB19449  13.078   1.387   4.309  0.0311 -0.2500 -0.0420
  579PEP     CB19450  12.959   1.800   4.144  0.0922 -0.1697 -0.0309
  579PEP     CB19451  12.619   1.944   3.820  0.1805 -0.2037  0.1438
  579PEP     CB19452  12.284   2.056   3.653  0.0502  0.2263 -0.2030
  579PEP     CB19453  12.174   2.520   3.604 -0.4397  0.1633 -0.2099
  579PEP     CB19454  12.519   2.808   3.337 -0.2132  0.0748  0.0077
  579PEP     CB19455  12.869   2.627   3.096  0.0731  0.1329  0.1493
  579PEP     CB19456  13.196   2.688   2.743 -0.0162 -0.5333 -0.0459
  579PEP     CB19457  13.659   2.596   2.706  0.1615  0.0652  0.1198
  579PEP     CB19458  14.041   2.392   2.579 -0.0559  0.1405 -0.0715
  579PEP     CB19459  14.360   2.083   2.577 -0.1174  0.0033 -0.0234
  579PEP     CB19460  14.583   1.862   2.836 -0.1937  0.2579  0.0548
  579PEP     CB19461  14.813   2.073   3.169 -0.3822  0.2462 -0.3004
  579PEP     CB19462  14.704   2.509   3.405 -0.2871  0.2209 -0.1841
  579PEP     CB19463  14.351   2.604   3.524 -0.1292 -0.2386  0.1923
  579PEP     CB19464  14.272   2.959   3.275 -0.1256  0.4296 -0.1006
  579PEP     CB19465  14.597   3.071   3.070  0.0700 -0.2818  0.0007
  579PEP     CB19466  15.002   3.056   3.175 -0.0246  0.2816 -0.2748
  579PEP     CB19467  15.390   3.212   2.894 -0.0050 -0.4021  0.0014
  579PEP     CB19468  15.877   3.138   2.982  0.4159  0.2747  0.5563
  579PEP     CB19469  16.169   2.847   3.043  0.1409  0.1136  0.1228
  579PEP     CB19470  16.345   2.415   2.956 -0.2205 -0.2568 -0.2022
  579PEP     CB19471  16.702   2.179   2.890  0.0078  0.1394 -0.0284
  579PEP     CB19472  17.022   1.870   2.838 -0.2628  0.1189  0.1695
  579PEP     CB19473  17.237   1.721   2.515 -0.0072 -0.2126 -0.2822
  579PEP     CB19474  17.495   1.499   2.342  0.3979 -0.1802 -0.1790
  579PEP     CB19475  17.487   1.174   2.072 -0.2087  0.2134 -0.1032
  579PEP     CB19476  17.523   0.900   1.742  0.0663  0.0185  0.2015
  579PEP     CB19477  17.962   0.745   1.513  0.0067  0.0383 -0.2186
  579PEP     CB19478  18.469   0.900   1.471 -0.0256 -0.0314  0.2225
  579PEP     CB19479  18.690   1.169   1.159  0.0399  0.4076  0.1112
  579PEP     CB19480  18.488   1.606   1.048  0.0639  0.0520 -0.2128
  580PEP     CB19481   1.524   8.630   9.560 -0.2611  0.0920  0.1655
  580PEP     CB19482   1.963   8.643   9.901 -0.0020 -0.0612 -0.5347
  580PEP     CB19483   2.313   8.452  10.201  0.1244 -0.2932  0.1461
  580PEP     CB19484   2.459   8.127  10.421  0.0059  0.2611 -0.0406
  580PEP     CB19485   2.811   7.841  10.424  0.0057  0.1705 -0.0461
  580PEP     CB19486   2.821   7.389  10.482 -0.2374 -0.3764 -0.1253
  580PEP     CB19487   2.495   7.084  10.472  0.0822  0.1198 -0.3308
  580PEP     CB19488   2.169   7.009  10.770  0.1865 -0.6204 -0.0124
  580PEP     CB19489   1.989   7.288  11.124 -0.2694  0.2619  0.0343
  580PEP     CB19490   1.983   7.651  11.213  0.0624  0.2308 -0.3674
  580PEP     CB19491   1.937   8.069  11.244 -0.0058  0.0512 -0.0822
  580PEP     CB19492   1.880   8.473  11.401  0.5551  0.0666 -0.0561
  580PEP     CB19493   2.213   8.549  11.685 -0.2434 -0.3094  0.0784
  580PEP     CB19494   2.654   8.338  11.666  0.6055  0.3596 -0.2913
  580PEP     CB19495   2.949   8.027  11.487  0.0845 -0.1979  0.1697
  580PEP     CB19496   3.413   7.988  11.526 -0.0482 -0.0880  0.1289
  580PEP     CB19497   3.651   8.033  11.857 -0.2720  0.0656  0.0319
  580PEP     CB19498   3.950   7.900  12.147  0.0121 -0.0987  0.0920
  580PEP     CB19499   4.123   7.643  12.373 -0.0978 -0.0472 -0.1109
  580PEP     CB19500   4.582   7.511  12.544 -0.2510 -0.2044  0.1940
  580PEP     CB19501   4.973   7.630  12.337  0.6173  0.1609  0.0534
  580PEP     CB19502   5.221   7.863  12.205  0.0256 -0.3406 -0.0367
  580PEP     CB19503   5.483   8.212  12.295  0.0489  0.2800  0.1546
  580PEP     CB19504   5.744   8.463  12.275  0.1106  0.3200 -0.1717
  580PEP     CB19505   6.223   8.563  12.497  0.0272  0.0119  0.2269
  580PEP     CB19506   6.231   8.740  12.882 -0.1288  0.2468  0.1977
  580PEP     CB19507   5.921   8.525  13.240  0.0610  0.0900  0.1983
  580PEP     CB19508   5.576   8.337  13.114 -0.0143  0.1063 -0.2129
  580PEP     CB19509   5.230   8.418  12.829  0.2856  0.1181 -0.1081
  580PEP     CB19510   5.006   8.320  12.439 -0.1027 -0.1319 -0.3097
  580PEP     CB19511   5.139   8.314  12.026 -0.0413 -0.2639 -0.1105
  580PEP     CB19512   5.255   8.631  11.726 -0.3089  0.1854  0.4997
  580PEP     CB19513   5.118   8.735  11.324  0.0915  0.1476 -0.0790
  580PEP     CB19514   4.667   8.979  11.249 -0.1876 -0.2769  0.0556
  580PEP     CB19515   4.380   9.109  11.595  0.0980 -0.1541  0.1824
  580PEP     CB19516   4.083   8.836  11.779  0.0265  0.1283 -0.0556
  580PEP     CB19517   4.262   8.390  11.886  0.0218  0.2634 -0.1640
  580PEP     CB19518   4.692   8.166  11.900  0.3738  0.2259 -0.1366
  580PEP     CB19519   4.851   7.744  11.889  0.1751 -0.0973 -0.1864
  580PEP     CB19520   5.256   7.527  11.775  0.1214  0.2496 -0.3291
  581PEP     CB19521  19.404  15.608  21.669 -0.1851 -0.2119 -0.3476
  581PEP     CB19522  19.377  16.053  21.564  0.2218 -0.2180  0.1644
  581PEP     CB19523  19.775  16.307  21.423  0.0322  0.3532  0.1817
  581PEP     CB19524  20.037  16.111  21.082 -0.1683 -0.0100  0.1037
  581PEP     CB19525  20.101  15.677  21.087  0.0270  0.5026  0.1751
  581PEP     CB19526  20.014  15.414  21.402 -0.2477 -0.1261 -0.2142
  581PEP     CB19527  19.936  15.524  21.815 -0.0460  0.3031 -0.0982
  581PEP     CB19528  20.181  15.828  22.018  0.2493  0.2452 -0.0772
  581PEP     CB19529  20.496  16.067  21.910 -0.0044  0.2152  0.1839
  581PEP     CB19530  20.854  16.076  21.640 -0.0861 -0.2116  0.1943
  581PEP     CB19531  21.116  15.874  21.368 -0.1282  0.4326  0.0877
  581PEP     CB19532  21.178  15.431  21.293  0.2193  0.1615 -0.0238
  581PEP     CB19533  21.205  15.078  21.646 -0.0204 -0.0727 -0.2818
  581PEP     CB19534  21.021  14.938  21.970 -0.1364  0.1232 -0.0990
  581PEP     CB19535  21.032  14.635  22.372  0.1013 -0.0731 -0.0080
  581PEP     CB19536  21.234  14.271  22.451 -0.0168 -0.0012  0.4414
  581PEP     CB19537  21.565  14.008  22.146  0.1030  0.4622  0.3716
  581PEP     CB19538  21.497  13.549  21.855  0.2741 -0.2745  0.5272
  581PEP     CB19539  21.223  13.294  21.590 -0.1278  0.2975 -0.1552
  581PEP     CB19540  20.812  13.423  21.581  0.0572  0.0654 -0.1534
  581PEP     CB19541  20.482  13.668  21.532 -0.0605 -0.2607 -0.0964
  581PEP     CB19542  20.184  13.831  21.257 -0.0493  0.1370  0.0137
  581PEP     CB19543  19.857  13.548  21.261  0.1716 -0.4433  0.0031
  581PEP     CB19544  19.536  13.609  21.547 -0.1527 -0.3493  0.1501
  581PEP     CB19545  19.323  13.970  21.705  0.1778 -0.1025  0.0435
  581PEP     CB19546  19.120  14.354  21.678 -0.1460  0.1392 -0.5278
  581PEP     CB19547  19.091  14.802  21.466 -0.1436 -0.5609 -0.0652
  581PEP     CB19548  19.046  14.968  21.083  0.2897  0.1481 -0.3464
  581PEP     CB19549  18.766  15.027  20.816  0.0087 -0.4172 -0.5759
  581PEP     CB19550  18.712  14.894  20.402 -0.3572  0.3851 -0.2682
  581PEP     CB19551  18.933  14.724  20.091 -0.0751 -0.1516  0.0601
  581PEP     CB19552  19.097  14.454  19.709  0.1901 -0.0233  0.0755
  581PEP     CB19553  19.028  14.468  19.211  0.0853 -0.1818 -0.0588
  581PEP     CB19554  19.134  14.506  18.742 -0.0580  0.0675 -0.5120
  581PEP     CB19555  19.277  14.708  18.332 -0.2208  0.0978 -0.1544
  581PEP     CB19556  19.344  15.072  18.207  0.4713 -0.0298  0.3432
  581PEP     CB19557  19.060  15.329  18.067 -0.0681 -0.3575  0.4544
  581PEP     CB19558  18.633  15.376  18.019  0.0751  0.0457 -0.4085
  581PEP     CB19559  18.339  15.140  17.811 -0.2294 -0.1149  0.2414
  581PEP     CB19560  18.074  15.038  17.376  0.2962 -0.3867  0.1536
  582PEP     CB19561  21.044   4.341  21.702 -0.4337  0.0823 -0.0959
  582PEP     CB19562  20.963   4.766  21.686 -0.5666  0.2755  0.0315
  582PEP     CB19563  20.962   5.270  21.805  0.0358 -0.2441  0.0702
  582PEP     CB19564  20.882   5.655  21.518  0.1178  0.0031  0.0805
  582PEP     CB19565  20.562   5.907  21.446 -0.0128 -0.1320  0.1235
  582PEP     CB19566  20.238   6.079  21.274 -0.2060  0.0713  0.1551
  582PEP     CB19567  20.111   6.174  20.801  0.1937 -0.1408 -0.1130
  582PEP     CB19568  19.907   6.177  20.411  0.2406  0.1611  0.1244
  582PEP     CB19569  19.938   6.184  19.994 -0.0557 -0.1794 -0.2951
  582PEP     CB19570  19.943   6.546  19.742 -0.2846  0.2333 -0.1577
  582PEP     CB19571  19.885   6.882  20.032  0.2398  0.0013  0.3988
  582PEP     CB19572  19.578   6.817  20.248  0.0525  0.1109  0.3931
  582PEP     CB19573  19.415   6.371  20.330  0.0429  0.2845 -0.1849
  582PEP     CB19574  19.350   5.969  20.188 -0.4593 -0.1543  0.1736
  582PEP     CB19575  19.673   5.675  20.117  0.1126  0.3532 -0.1656
  582PEP     CB19576  20.122   5.724  20.253  0.0473  0.1861  0.1363
  582PEP     CB19577  20.476   5.989  19.952  0.3769 -0.0196  0.4760
  582PEP     CB19578  20.575   6.344  19.594  0.4719 -0.2140  0.0660
  582PEP     CB19579  20.286   6.551  19.374  0.0912 -0.0524  0.0733
  582PEP     CB19580  19.959   6.807  19.347  0.2675  0.3280 -0.2947
  582PEP     CB19581  19.544   6.808  19.308 -0.0106  0.2630 -0.3183
  582PEP     CB19582  19.120   6.556  19.315 -0.1364 -0.0589  0.2617
  582PEP     CB19583  18.774   6.496  19.138 -0.1738 -0.0322  0.3082
  582PEP     CB19584  18.352   6.744  19.009  0.4477 -0.2644  0.3480
  582PEP     CB19585  18.094   6.603  18.654 -0.2544 -0.0619 -0.2206
  582PEP     CB19586  18.238   6.447  18.327 -0.4933 -0.2184  0.3184
  582PEP     CB19587  18.463   6.142  18.010  0.0302  0.1474  0.3106
  582PEP     CB19588  18.567   5.745  17.720 -0.1049 -0.0049  0.0457
  582PEP     CB19589  18.719   5.443  17.425 -0.1791  0.1434 -0.3273
  582PEP     CB19590  19.011   5.368  17.097  0.0447  0.4353  0.3394
  582PEP     CB19591  19.049   5.267  16.618  0.0683  0.1971  0.4567
  582PEP     CB19592  19.166   5.575  16.286  0.3632 -0.0611  0.0790
  582PEP     CB19593  19.171   5.963  16.370  0.2540  0.2304  0.1043
  582PEP     CB19594  19.491   6.352  16.442 -0.0374 -0.0986 -0.2871
  582PEP     CB19595  19.719   6.636  16.348 -0.1623  0.4491  0.0348
  582PEP     CB19596  20.054   6.920  16.286  0.1600  0.2014  0.1623
  582PEP     CB19597  20.354   7.103  16.013  0.0498 -0.4283  0.2107
  582PEP     CB19598  20.728   7.280  15.776 -0.2453  0.1973 -0.3798
  582PEP     CB19599  21.037   7.400  15.433 -0.0027 -0.1089 -0.0734
  582PEP     CB19600  21.283   7.256  15.129  0.4209  0.0503  0.1922
  583PEP     CB19601  15.865   1.921  13.560  0.1370 -0.5736  0.3149
  583PEP     CB19602  15.528   1.828  13.653 -0.0215  0.1707 -0.0170
  583PEP     CB19603  15.144   1.970  13.352 -0.0883  0.1687  0.2499
  583PEP     CB19604  15.175   2.143  12.977  0.3867 -0.0883 -0.2898
  583PEP     CB19605  15.487   2.146  12.638  0.1132 -0.1069  0.0910
  583PEP     CB19606  15.400   1.850  12.209 -0.1735 -0.4729  0.2844
  583PEP     CB19607  15.056   1.575  12.231  0.0233  0.0533 -0.0028
  583PEP     CB19608  14.746   1.497  12.567 -0.3336  0.0715 -0.4810
  583PEP     CB19609  14.585   1.126  12.734  0.0381 -0.3457 -0.4484
  583PEP     CB19610  14.425   0.704  12.805 -0.1088 -0.0029  0.1779
  583PEP     CB19611  14.079   0.424  12.834  0.3198  0.0699  0.3581
  583PEP     CB19612  13.661   0.267  13.028  0.2397 -0.7364 -0.1454
  583PEP     CB19613  13.609  -0.101  13.187 -0.0325 -0.1254  0.0150
  583PEP     CB19614  13.285  -0.334  13.343  0.2361 -0.2816 -0.6245
  583PEP     CB19615  13.009  -0.537  13.676  0.0131 -0.1291  0.0235
  583PEP     CB19616  12.837  -0.437  14.098 -0.3134  0.2458  0.1430
  583PEP     CB19617  12.703  -0.530  14.598  0.2297  0.1061  0.3669
  583PEP     CB19618  12.772  -0.424  15.068 -0.1267 -0.2224 -0.2598
  583PEP     CB19619  12.944  -0.242  15.502  0.2141  0.5237  0.2270
  583PEP     CB19620  12.949   0.108  15.751 -0.1357  0.0983  0.4195
  583PEP     CB19621  12.929   0.244  16.223 -0.0754 -0.0097 -0.2967
  583PEP     CB19622  12.852   0.650  16.481 -0.1236 -0.0936  0.0383
  583PEP     CB19623  12.892   0.880  16.797  0.2437 -0.5021 -0.3917
  583PEP     CB19624  12.827   0.958  17.249 -0.2192 -0.1969  0.5287
  583PEP     CB19625  12.594   1.246  17.446  0.0074 -0.2230 -0.3310
  583PEP     CB19626  12.407   1.613  17.283  0.1076 -0.2988 -0.2586
  583PEP     CB19627  12.186   1.668  16.995 -0.3228 -0.1447 -0.3355
  583PEP     CB19628  11.854   1.719  16.654  0.3612 -0.2264 -0.0332
  583PEP     CB19629  11.482   1.660  16.384 -0.1702  0.2301  0.0944
  583PEP     CB19630  11.429   1.563  15.939  0.2281 -0.1398  0.0275
  583PEP     CB19631  11.604   1.759  15.611  0.0900  0.0619  0.2392
  583PEP     CB19632  11.499   2.071  15.327 -0.1047  0.2183  0.4760
  583PEP     CB19633  11.629   2.247  14.898 -0.0208 -0.3276 -0.1323
  583PEP     CB19634  11.820   2.106  14.557  0.1396  0.2876  0.1854
  583PEP     CB19635  12.111   1.801  14.211  0.1221 -0.3287 -0.4406
  583PEP     CB19636  12.467   1.497  14.250  0.1295  0.4322 -0.0003
  583PEP     CB19637  12.594   1.314  14.595 -0.3518  0.6072  0.0842
  583PEP     CB19638  12.689   1.074  14.903  0.2214 -0.0883 -0.3256
  583PEP     CB19639  12.855   0.997  15.286 -0.0637 -0.2938 -0.1229
  583PEP     CB19640  13.299   1.039  15.502 -0.0963  0.0051  0.0035
  584PEP     CB19641   2.776  11.019  21.058  0.0785  0.5197  0.0389
  584PEP     CB19642   2.378  10.890  21.333 -0.2772 -0.5811 -0.3654
  584PEP     CB19643   2.119  10.995  21.647 -0.3687  0.0776 -0.2438
  584PEP     CB19644   2.160  11.207  22.059  0.0918 -0.0759  0.0141
  584PEP     CB19645   2.413  11.597  22.262  0.0449 -0.0934 -0.1366
  584PEP     CB19646   2.784  11.720  22.286 -0.4128 -0.1711  0.2168
  584PEP     CB19647   3.187  11.373  22.286 -0.1059 -0.2808 -0.1137
  584PEP     CB19648   3.601  11.247  22.170 -0.0198  0.0964 -0.2617
  584PEP     CB19649   4.044  11.177  22.264  0.1182  0.2019  0.0638
  584PEP     CB19650   4.519  11.255  22.349 -0.1869 -0.1962  0.1060
  584PEP     CB19651   5.001  11.225  22.208 -0.2244 -0.1398 -0.0258
  584PEP     CB19652   5.478  11.294  22.281  0.1300  0.0658  0.1010
  584PEP     CB19653   5.692  11.416  22.608 -0.3754  0.1466 -0.0281
  584PEP     CB19654   6.136  11.416  22.863  0.0023 -0.2170  0.0910
  584PEP     CB19655   6.515  11.380  23.119  0.1062 -0.1914 -0.0682
  584PEP     CB19656   6.638  11.048  23.242  0.0756  0.3362 -0.3204
  584PEP     CB19657   6.675  10.623  22.955  0.4824 -0.1757  0.4551
  584PEP     CB19658   6.504  10.206  22.948 -0.3289  0.1516  0.0989
  584PEP     CB19659   6.223   9.893  22.981 -0.0902 -0.0826 -0.2434
  584PEP     CB19660   5.978   9.565  22.698 -0.1670 -0.2900 -0.1961
  584PEP     CB19661   5.524   9.510  22.673  0.0731 -0.0757 -0.3945
  584PEP     CB19662   5.292   9.723  22.907  0.1605 -0.0041  0.1606
  584PEP     CB19663   5.088   9.699  23.319 -0.2897  0.3020 -0.1684
  584PEP     CB19664   4.751   9.953  23.609  0.0511  0.4388  0.0592
  584PEP     CB19665   4.387  10.054  23.761  0.2462 -0.2557  0.4207
  584PEP     CB19666   3.932  10.097  23.828  0.0732  0.2155 -0.2483
  584PEP     CB19667   3.580  10.307  24.129  0.2034 -0.1273 -0.1515
  584PEP     CB19668   3.151  10.248  24.083  0.0036 -0.3640  0.2224
  584PEP     CB19669   3.043  10.102  23.656 -0.1163 -0.0443 -0.1211
  584PEP     CB19670   3.109  10.266  23.168  0.3977 -0.1835  0.1308
  584PEP     CB19671   3.135  10.555  22.936 -0.5809 -0.1041  0.1401
  584PEP     CB19672   3.495  10.795  22.826  0.0704  0.0607  0.2654
  584PEP     CB19673   3.866  11.067  22.766  0.0990 -0.3105  0.4392
  584PEP     CB19674   4.276  10.966  22.677  0.0170  0.1533 -0.1996
  584PEP     CB19675   4.439  10.525  22.588  0.3485  0.3125 -0.2435
  584PEP     CB19676   4.279  10.125  22.423  0.2093  0.0551  0.0547
  584PEP     CB19677   4.252   9.677  22.551 -0.3024 -0.0746 -0.0763
  584PEP     CB19678   4.386   9.380  22.898  0.3173 -0.2339  0.3546
  584PEP     CB19679   4.503   9.019  23.123 -0.4214 -0.0330  0.3369
  584PEP     CB19680   4.513   8.668  23.299 -0.1534 -0.0533 -0.2554
  585PEP     CB19681  12.324   1.900  21.982 -0.1499 -0.3917  0.0094
  585PEP     CB19682  12.082   2.195  21.614  0.2352 -0.1155 -0.1520
  585PEP     CB19683  11.932   2.660  21.522 -0.0378 -0.0914 -0.6475
  585PEP     CB19684  12.285   2.928  21.656  0.0494 -0.1091  0.2302
  585PEP     CB19685  12.732   2.822  21.510 -0.3160 -0.3404 -0.2773
  585PEP     CB19686  13.006   2.398  21.294  0.1837  0.1307 -0.1953
  585PEP     CB19687  13.225   2.344  21.014 -0.4090 -0.6206  0.0692
  585PEP     CB19688  13.306   2.227  20.674 -0.2816  0.1625  0.3719
  585PEP     CB19689  13.227   2.272  20.200  0.1573 -0.2169 -0.0048
  585PEP     CB19690  13.082   2.299  19.728  0.0352 -0.0709  0.2243
  585PEP     CB19691  13.165   2.491  19.306  0.1256  0.2332 -0.3682
  585PEP     CB19692  13.374   2.868  19.053 -0.0711 -0.1500 -0.0259
  585PEP     CB19693  13.656   3.234  18.892  0.2707 -0.0256 -0.1582
  585PEP     CB19694  14.063   3.182  18.702  0.0987  0.0737  0.0616
  585PEP     CB19695  14.444   2.936  18.805  0.0226  0.1170 -0.1660
  585PEP     CB19696  14.611   2.471  18.961 -0.1642 -0.1144 -0.1241
  585PEP     CB19697  14.525   2.015  19.115 -0.1900 -0.1761 -0.1645
  585PEP     CB19698  14.478   1.715  19.536 -0.2571 -0.0115  0.3233
  585PEP     CB19699  14.276   1.738  19.939  0.3149  0.0730 -0.1087
  585PEP     CB19700  14.226   1.474  20.304  0.1003  0.1046 -0.4864
  585PEP     CB19701  14.087   1.178  20.607 -0.3795  0.2393 -0.7070
  585PEP     CB19702  14.362   0.874  20.926  0.2229  0.4089  0.1192
  585PEP     CB19703  14.697   0.828  21.182 -0.1841  0.2076 -0.0477
  585PEP     CB19704  15.147   0.844  21.272 -0.1325  0.0349  0.0143
  585PEP     CB19705  15.491   0.703  21.510 -0.4730 -0.0874  0.1097
  585PEP     CB19706  15.833   0.605  21.685  0.0325 -0.0351 -0.2031
  585PEP     CB19707  15.992   0.510  22.024  0.1116  0.0284 -0.1685
  585PEP     CB19708  16.175   0.787  22.340  0.1037 -0.0746 -0.0851
  585PEP     CB19709  16.191   1.135  22.658  0.0070 -0.2261 -0.1438
  585PEP     CB19710  16.277   1.265  23.076 -0.1106 -0.0780  0.3670
  585PEP     CB19711  16.582   1.205  23.359  0.0058  0.2586 -0.0710
  585PEP     CB19712  16.860   0.870  23.489 -0.4394  0.0595  0.2094
  585PEP     CB19713  17.268   0.756  23.324  0.0332  0.3380  0.3877
  585PEP     CB19714  17.540   1.019  23.271 -0.4535  0.1415  0.0612
  585PEP     CB19715  17.715   1.320  23.510  0.6017 -0.2762  0.4384
  585PEP     CB19716  17.890   1.398  23.913  0.1370 -0.1641  0.1537
  585PEP     CB19717  18.242   1.205  23.971  0.2632  0.1101 -0.3128
  585PEP     CB19718  18.650   1.226  23.936  0.0884 -0.0628  0.0284
  585PEP     CB19719  19.050   1.159  23.687 -0.3008  0.0504 -0.1063
  585PEP     CB19720  19.246   0.742  23.457  0.2071  0.1991 -0.2255
  586PEP     CB19721   5.617   8.544   2.930 -0.0703  0.0233  0.0004
  586PEP     CB19722   5.882   8.782   3.193 -0.3049 -0.3742  0.0761
  586PEP     CB19723   6.147   8.656   3.529  0.6097 -0.1013 -0.1344
  586PEP     CB19724   6.358   8.242   3.617  0.0018  0.0309  0.2776
  586PEP     CB19725   6.319   7.850   3.618 -0.3119 -0.2549  0.0640
  586PEP     CB19726   6.444   7.510   3.424  0.2607  0.1906 -0.0629
  586PEP     CB19727   6.786   7.209   3.331 -0.1437 -0.1269 -0.3320
  586PEP     CB19728   7.078   6.975   3.591 -0.1246  0.2125 -0.0539
  586PEP     CB19729   7.044   6.852   4.012  0.1719 -0.0778 -0.1131
  586PEP     CB19730   6.758   6.699   4.293  0.0191  0.3511 -0.2047
  586PEP     CB19731   6.687   6.212   4.391  0.0096  0.0241  0.2496
  586PEP     CB19732   6.873   5.855   4.035 -0.0916  0.1159 -0.1848
  586PEP     CB19733   6.689   5.693   3.580  0.1354 -0.0076  0.1078
  586PEP     CB19734   6.685   5.856   3.090 -0.0532  0.2112  0.0500
  586PEP     CB19735   6.627   6.003   2.613  0.1612 -0.1482  0.2110
  586PEP     CB19736   6.628   6.145   2.161 -0.2246 -0.3663 -0.1310
  586PEP     CB19737   6.758   6.236   1.782 -0.0445 -0.2560 -0.3458
  586PEP     CB19738   6.673   6.230   1.252 -0.1328 -0.2465 -0.2282
  586PEP     CB19739   6.667   5.940   1.000  0.0877  0.0893  0.1640
  586PEP     CB19740   6.821   5.658   0.810  0.1070  0.1755  0.1167
  586PEP     CB19741   6.782   5.313   0.532  0.1555  0.3149 -0.1680
  586PEP     CB19742   7.068   5.271   0.151 -0.0667 -0.0258 -0.3987
  586PEP     CB19743   7.123   5.559  -0.234  0.2398 -0.0973 -0.2705
  586PEP     CB19744   6.902   5.830  -0.470  0.1395  0.0856 -0.2083
  586PEP     CB19745   6.466   6.032  -0.345  0.2854  0.0488  0.3751
  586PEP     CB19746   6.265   6.071   0.008  0.0727  0.3377  0.1234
  586PEP     CB19747   6.022   5.989   0.311  0.2492  0.1136  0.2123
  586PEP     CB19748   5.877   6.165   0.659  0.1373 -0.0664  0.3056
  586PEP     CB19749   5.515   6.383   0.720 -0.2029  0.4292  0.3532
  586PEP     CB19750   5.397   6.728   0.447 -0.1818 -0.1630  0.1083
  586PEP     CB19751   5.424   6.839  -0.024  0.2864  0.0081 -0.2390
  586PEP     CB19752   5.614   7.005  -0.393  0.2423  0.5663 -0.3297
  586PEP     CB19753   5.493   7.253  -0.740 -0.1751  0.0696  0.0992
  586PEP     CB19754   5.488   7.602  -1.034  0.0780  0.0888 -0.0723
  586PEP     CB19755   5.323   7.907  -1.263 -0.3796  0.0849  0.1177
  586PEP     CB19756   5.370   8.220  -1.660  0.1905 -0.0306  0.0056
  586PEP     CB19757   5.608   8.436  -1.971 -0.2689 -0.2590  0.1397
  586PEP     CB19758   6.090   8.428  -1.978 -0.3597 -0.0066  0.0047
  586PEP     CB19759   6.418   8.544  -1.849  0.0370  0.0485  0.0148
  586PEP     CB19760   6.704   8.566  -1.405 -0.1479  0.3284 -0.0679
  587PEP     CB19761   5.185   6.600  13.193 -0.0400 -0.0481  0.1379
  587PEP     CB19762   4.715   6.753  13.077 -0.2999  0.3346  0.0366
  587PEP     CB19763   4.387   6.940  12.817 -0.1678 -0.0859  0.1110
  587PEP     CB19764   3.993   7.077  12.809 -0.0571 -0.2099  0.0190
  587PEP     CB19765   3.605   7.377  12.649 -0.4446  0.3578 -0.5471
  587PEP     CB19766   3.358   7.651  12.596  0.2614 -0.0313  0.0377
  587PEP     CB19767   2.973   7.614  12.461 -0.0954 -0.0917  0.2696
  587PEP     CB19768   2.692   7.295  12.305 -0.1206  0.1136  0.0581
  587PEP     CB19769   2.568   7.133  11.906  0.3671  0.3694  0.1713
  587PEP     CB19770   2.626   7.104  11.514 -0.1523 -0.1754 -0.3021
  587PEP     CB19771   2.579   6.854  11.101 -0.2642 -0.0988 -0.0196
  587PEP     CB19772   2.352   6.542  10.836 -0.0169 -0.0090  0.5032
  587PEP     CB19773   1.961   6.349  10.639  0.1337  0.0926 -0.0209
  587PEP     CB19774   1.590   6.209  10.462  0.2018  0.0114 -0.4217
  587PEP     CB19775   1.212   6.183  10.253 -0.2825  0.3253 -0.1808
  587PEP     CB19776   1.026   5.944   9.929  0.1810  0.1203 -0.0045
  587PEP     CB19777   1.173   5.573   9.739  0.1763 -0.5126  0.2799
  587PEP     CB19778   1.185   5.227   9.547 -0.2106 -0.4051 -0.0247
  587PEP     CB19779   1.204   5.113   9.038 -0.0952 -0.4991 -0.0199
  587PEP     CB19780   1.043   5.260   8.673 -0.1564  0.1212 -0.1079
  587PEP     CB19781   0.891   5.440   8.291 -0.2263 -0.1377 -0.1300
  587PEP     CB19782   0.807   5.579   7.824 -0.0661 -0.0224  0.2366
  587PEP     CB19783   0.526   5.468   7.451  0.2260 -0.1032  0.2588
  587PEP     CB19784   0.239   5.484   7.154 -0.0128  0.1264  0.0506
  587PEP     CB19785   0.053   5.544   6.693  0.0940 -0.1316  0.4679
  587PEP     CB19786  -0.334   5.451   6.543 -0.1194  0.0108  0.1736
  587PEP     CB19787  -0.543   5.100   6.419 -0.0023  0.6859 -0.0630
  587PEP     CB19788  -0.611   4.691   6.508  0.1045  0.0373 -0.0412
  587PEP     CB19789  -0.397   4.286   6.423 -0.0261 -0.1082 -0.0640
  587PEP     CB19790  -0.143   3.846   6.326  0.2421  0.2875 -0.0087
  587PEP     CB19791  -0.145   3.345   6.436 -0.2563 -0.2750 -0.4771
  587PEP     CB19792   0.043   2.924   6.515  0.2460 -0.4240  0.2665
  587PEP     CB19793   0.133   2.473   6.360 -0.4040  0.0196 -0.0805
  587PEP     CB19794   0.051   2.072   6.458  0.2491  0.1762  0.2055
  587PEP     CB19795   0.267   1.928   6.831 -0.1567 -0.1000  0.1094
  587PEP     CB19796   0.697   1.853   6.870 -0.2038  0.4135 -0.2053
  587PEP     CB19797   1.040   1.975   7.128 -0.1250  0.0203 -0.1019
  587PEP     CB19798   1.271   2.302   7.187 -0.0182 -0.4115  0.4326
  587PEP     CB19799   1.673   2.520   7.382  0.0520  0.1719 -0.1553
  587PEP     CB19800   1.913   2.933   7.356 -0.1657 -0.4998  0.0825
  588PEP     CB19801  14.730  21.428  22.021 -0.1807  0.0380 -0.3102
  588PEP     CB19802  15.089  21.150  21.971  0.0125 -0.1240 -0.0740
  588PEP     CB19803  15.378  20.839  21.789 -0.1953  0.0846  0.0041
  588PEP     CB19804  15.467  20.389  21.644 -0.2807  0.0091  0.3180
  588PEP     CB19805  15.569  20.192  21.308 -0.1182  0.0292 -0.0899
  588PEP     CB19806  15.462  20.261  20.866  0.5168 -0.4007 -0.1681
  588PEP     CB19807  15.303  20.656  20.738 -0.1819 -0.0348  0.3491
  588PEP     CB19808  15.006  20.920  20.848 -0.1659  0.1009 -0.0436
  588PEP     CB19809  15.001  20.978  21.236 -0.1742 -0.2309 -0.3408
  588PEP     CB19810  14.946  20.664  21.495  0.2101  0.0989 -0.1692
  588PEP     CB19811  14.757  20.252  21.672  0.0803 -0.1713  0.0979
  588PEP     CB19812  14.703  19.885  21.484  0.0058  0.0056 -0.1269
  588PEP     CB19813  14.519  19.711  21.024 -0.0953  0.0828 -0.0026
  588PEP     CB19814  14.606  19.873  20.570 -0.1633 -0.3999 -0.1406
  588PEP     CB19815  14.600  19.897  19.971  0.1751 -0.0385 -0.2790
  588PEP     CB19816  14.648  20.133  19.596  0.1823 -0.1275 -0.1596
  588PEP     CB19817  14.391  20.419  19.499 -0.0845  0.0942 -0.1236
  588PEP     CB19818  14.066  20.431  19.760 -0.1740 -0.1581  0.0905
  588PEP     CB19819  14.138  20.171  20.063  0.2421 -0.1956  0.2523
  588PEP     CB19820  14.392  20.290  20.396 -0.2638  0.0198  0.2603
  588PEP     CB19821  14.461  20.749  20.520  0.1439  0.0305 -0.0751
  588PEP     CB19822  14.194  21.052  20.583  0.0317  0.3595 -0.1634
  588PEP     CB19823  13.738  21.121  20.609 -0.0252  0.0055 -0.1452
  588PEP     CB19824  13.339  21.226  20.903  0.0837  0.4332 -0.1447
  588PEP     CB19825  13.074  21.360  21.242  0.1325 -0.1479  0.1662
  588PEP     CB19826  12.719  21.579  21.412 -0.3417  0.1023 -0.2980
  588PEP     CB19827  12.312  21.765  21.268 -0.3997  0.0059  0.1009
  588PEP     CB19828  12.090  21.945  21.118 -0.0977 -0.1573  0.1150
  588PEP     CB19829  11.802  22.164  20.820  0.0091  0.3194 -0.2507
  588PEP     CB19830  11.537  22.156  20.453 -0.0399 -0.2770 -0.0330
  588PEP     CB19831  11.307  21.908  20.162 -0.0002  0.3369 -0.4039
  588PEP     CB19832  11.175  21.871  19.691  0.0325  0.1195  0.1003
  588PEP     CB19833  11.044  22.178  19.429 -0.6104 -0.2864 -0.1549
  588PEP     CB19834  11.171  22.254  18.997 -0.0058 -0.2513 -0.0085
  588PEP     CB19835  11.290  22.471  18.611 -0.0485  0.2782 -0.0933
  588PEP     CB19836  11.403  22.825  18.383  0.2848  0.0233  0.4403
  588PEP     CB19837  11.338  23.176  18.249  0.1349  0.3492  0.0002
  588PEP     CB19838  11.496  23.562  18.170 -0.2333 -0.1552  0.1736
  588PEP     CB19839  11.643  24.000  18.278  0.0254  0.0585 -0.3967
  588PEP     CB19840  11.604  24.388  18.461  0.1249  0.2690 -0.1212
  589PEP     CB19841   8.461   2.065  12.291 -0.0655 -0.0976  0.3448
  589PEP     CB19842   8.477   2.540  12.581 -0.2447 -0.0514 -0.2756
  589PEP     CB19843   8.320   2.838  12.896 -0.1629  0.2769 -0.3509
  589PEP     CB19844   8.231   2.691  13.468 -0.1847  0.1731 -0.0477
  589PEP     CB19845   8.148   2.618  13.943 -0.4646  0.3389 -0.0195
  589PEP     CB19846   7.880   2.358  14.198  0.0661  0.0135 -0.0894
  589PEP     CB19847   7.500   2.355  14.351  0.2056  0.0600 -0.3681
  589PEP     CB19848   7.096   2.364  14.168  0.1241  0.2306 -0.1553
  589PEP     CB19849   6.883   2.388  13.743  0.4833  0.0719  0.4259
  589PEP     CB19850   6.584   2.244  13.408  0.2815 -0.1384 -0.1789
  589PEP     CB19851   6.126   2.101  13.411  0.3464 -0.0025  0.0505
  589PEP     CB19852   5.985   2.031  13.793 -0.0072  0.3571  0.0824
  589PEP     CB19853   6.270   1.877  14.225 -0.0979 -0.0267  0.3516
  589PEP     CB19854   6.409   1.731  14.508  0.1898 -0.0284 -0.0907
  589PEP     CB19855   6.552   1.842  14.954 -0.0123 -0.2279  0.0973
  589PEP     CB19856   6.744   2.031  15.296 -0.1611 -0.2879 -0.0165
  589PEP     CB19857   7.021   2.152  15.527 -0.1774 -0.1434 -0.0052
  589PEP     CB19858   7.398   2.204  15.550  0.1807  0.1234 -0.0271
  589PEP     CB19859   7.845   2.359  15.511  0.2156 -0.0405  0.4438
  589PEP     CB19860   8.019   2.728  15.303 -0.1106  0.2556  0.0237
  589PEP     CB19861   8.037   3.145  15.211 -0.1508 -0.1500  0.0520
  589PEP     CB19862   7.936   3.587  15.162 -0.1371 -0.0065 -0.1820
  589PEP     CB19863   7.904   3.844  14.854 -0.3355  0.0048 -0.1862
  589PEP     CB19864   7.568   3.806  14.508  0.0068 -0.0061  0.1303
  589PEP     CB19865   7.412   3.330  14.449  0.0363  0.0663  0.0063
  589PEP     CB19866   7.530   2.993  14.692 -0.1357 -0.3349 -0.3885
  589PEP     CB19867   7.854   2.676  14.740 -0.0809 -0.0025 -0.2593
  589PEP     CB19868   8.033   2.286  14.904  0.1850 -0.0298  0.0662
  589PEP     CB19869   7.842   1.878  14.855  0.0869  0.1932 -0.0800
  589PEP     CB19870   7.579   1.510  14.644 -0.3937  0.2759  0.0491
  589PEP     CB19871   7.261   1.410  14.426  0.2543  0.1677 -0.1154
  589PEP     CB19872   7.016   1.229  14.133 -0.0641 -0.1981  0.0300
  589PEP     CB19873   6.982   1.498  13.790  0.2032 -0.0350 -0.2777
  589PEP     CB19874   7.086   1.941  13.699  0.1698  0.0611  0.5494
  589PEP     CB19875   7.288   2.232  13.384  0.3269  0.2897 -0.1165
  589PEP     CB19876   7.423   2.491  13.145 -0.3162  0.0399  0.2515
  589PEP     CB19877   7.334   2.970  13.082 -0.1607  0.1470  0.3689
  589PEP     CB19878   7.018   3.251  13.110  0.1228 -0.0952 -0.0468
  589PEP     CB19879   6.842   3.563  13.404  0.0213 -0.0056  0.3962
  589PEP     CB19880   6.620   3.846  13.577  0.0672 -0.5262 -0.0567
  590PEP     CB19881   1.988   1.843   6.724  0.2070  0.3695  0.0520
  590PEP     CB19882   2.070   1.477   6.608  0.1988 -0.2051  0.0780
  590PEP     CB19883   2.463   1.294   6.396  0.1117  0.0397  0.1915
  590PEP     CB19884   2.914   1.303   6.489 -0.0254  0.0775  0.5019
  590PEP     CB19885   3.315   1.356   6.232  0.0860  0.3314 -0.2434
  590PEP     CB19886   3.551   1.765   6.131  0.0902  0.0618  0.4066
  590PEP     CB19887   3.753   2.157   6.041  0.3915 -0.1773 -0.0610
  590PEP     CB19888   4.089   2.501   5.955 -0.3530  0.1747 -0.1769
  590PEP     CB19889   4.503   2.724   5.947 -0.4195 -0.0521 -0.1072
  590PEP     CB19890   4.831   2.551   5.949  0.3434  0.3806 -0.2680
  590PEP     CB19891   5.001   2.304   6.302 -0.4422  0.3165 -0.1655
  590PEP     CB19892   4.952   2.302   6.736 -0.0131  0.0784 -0.1351
  590PEP     CB19893   4.518   2.312   6.911  0.0775  0.1218  0.1014
  590PEP     CB19894   4.227   2.530   7.162  0.0801 -0.2996  0.1605
  590PEP     CB19895   4.043   2.474   7.539  0.3896 -0.2839 -0.5388
  590PEP     CB19896   3.634   2.249   7.707  0.2034 -0.0800  0.0303
  590PEP     CB19897   3.348   1.962   7.746  0.3383  0.1770  0.3595
  590PEP     CB19898   2.945   1.667   7.711 -0.1833 -0.3757  0.0417
  590PEP     CB19899   2.763   1.367   7.944 -0.0386  0.0345 -0.2225
  590PEP     CB19900   2.651   0.887   7.782  0.3315 -0.0958 -0.0641
  590PEP     CB19901   2.852   0.772   7.476  0.1122 -0.2465 -0.1560
  590PEP     CB19902   2.844   0.425   7.203  0.1329 -0.0793  0.2566
  590PEP     CB19903   2.999   0.070   7.289  0.1651 -0.0532 -0.1640
  590PEP     CB19904   3.182  -0.173   7.581  0.1391 -0.0745  0.1783
  590PEP     CB19905   3.254  -0.090   8.037  0.1222  0.1216 -0.0453
  590PEP     CB19906   3.364  -0.117   8.520  0.3399  0.2735 -0.0218
  590PEP     CB19907   3.500  -0.306   8.871  0.4304  0.3063  0.0196
  590PEP     CB19908   3.876  -0.282   9.175 -0.0857 -0.1860  0.3392
  590PEP     CB19909   4.258   0.070   9.434 -0.0237  0.3559 -0.3634
  590PEP     CB19910   4.301   0.050   9.847 -0.2102 -0.2948  0.3518
  590PEP     CB19911   3.955   0.099  10.182  0.2966  0.1731  0.1036
  590PEP     CB19912   3.677   0.381  10.293  0.0315  0.0863 -0.1728
  590PEP     CB19913   3.303   0.490  10.489 -0.0027  0.2671 -0.5009
  590PEP     CB19914   3.005   0.810  10.326  0.1482 -0.1485 -0.2792
  590PEP     CB19915   2.979   1.171  10.074 -0.6921  0.0273  0.2707
  590PEP     CB19916   2.721   1.173   9.770 -0.0979  0.1443 -0.3126
  590PEP     CB19917   2.392   1.145   9.397  0.3266  0.2171 -0.0354
  590PEP     CB19918   2.350   1.244   8.964  0.2398 -0.0663 -0.1231
  590PEP     CB19919   2.192   1.271   8.555  0.0079 -0.1189 -0.1482
  590PEP     CB19920   2.233   1.302   8.035  0.1060 -0.0456 -0.0020
  591PEP     CB19921  11.408   2.617   2.816  0.1833 -0.0656 -0.0701
  591PEP     CB19922  11.562   2.927   3.125 -0.0506  0.2155 -0.0404
  591PEP     CB19923  11.858   3.127   3.404 -0.1258 -0.0628  0.0226
  591PEP     CB19924  12.243   3.081   3.612 -0.1675  0.2056 -0.1410
  591PEP     CB19925  12.457   3.054   3.957 -0.0861 -0.0349  0.2901
  591PEP     CB19926  12.685   3.157   4.251 -0.0520  0.1411 -0.2584
  591PEP     CB19927  12.683   3.488   4.606  0.0200 -0.0439 -0.1780
  591PEP     CB19928  12.502   3.836   4.831  0.2811  0.1151  0.1506
  591PEP     CB19929  12.346   4.229   5.080 -0.1860  0.1114 -0.1376
  591PEP     CB19930  12.466   4.388   5.467  0.0228  0.5146 -0.0043
  591PEP     CB19931  12.779   4.186   5.598 -0.0757 -0.0551 -0.1546
  591PEP     CB19932  13.047   4.140   5.866  0.0504 -0.0822  0.3903
  591PEP     CB19933  13.236   3.804   6.138 -0.2851 -0.3612  0.1499
  591PEP     CB19934  13.575   3.502   6.050  0.0132  0.0381 -0.2237
  591PEP     CB19935  13.771   3.036   6.006 -0.1482  0.1071  0.0062
  591PEP     CB19936  13.566   2.584   6.019  0.1411 -0.1732  0.0623
  591PEP     CB19937  13.286   2.338   5.716  0.2579  0.0967  0.3706
  591PEP     CB19938  13.290   2.356   5.301 -0.2416  0.0483  0.1224
  591PEP     CB19939  13.496   2.670   5.114 -0.5065  0.3308  0.0172
  591PEP     CB19940  13.774   3.076   5.330  0.0881 -0.0396  0.4208
  591PEP     CB19941  13.878   3.367   5.585  0.0156 -0.1942  0.1962
  591PEP     CB19942  13.807   3.868   5.748  0.5768 -0.3832  0.2713
  591PEP     CB19943  13.500   4.077   5.836 -0.3372  0.1022 -0.0137
  591PEP     CB19944  13.366   4.288   6.252  0.0471 -0.2153 -0.0360
  591PEP     CB19945  13.519   4.541   6.609  0.3850 -0.2740 -0.2088
  591PEP     CB19946  13.761   4.707   7.005  0.2283 -0.3174  0.0077
  591PEP     CB19947  14.059   4.548   7.303  0.1098 -0.0370 -0.0049
  591PEP     CB19948  14.407   4.351   7.155 -0.3355 -0.1283  0.0507
  591PEP     CB19949  14.740   4.073   7.092  0.0736 -0.4498 -0.2781
  591PEP     CB19950  15.221   3.880   7.096  0.0654  0.2577  0.0613
  591PEP     CB19951  15.535   3.748   6.860  0.0694  0.0855  0.0244
  591PEP     CB19952  15.908   3.676   6.815 -0.1402 -0.1164  0.2329
  591PEP     CB19953  16.196   3.437   6.858  0.1823  0.5290 -0.3968
  591PEP     CB19954  16.524   3.146   6.617  0.0286 -0.0408 -0.0439
  591PEP     CB19955  16.832   3.315   6.383 -0.1021  0.0205 -0.0780
  591PEP     CB19956  16.833   3.795   6.285 -0.3687  0.5244 -0.1363
  591PEP     CB19957  17.017   3.939   5.895  0.0877 -0.0009  0.2946
  591PEP     CB19958  16.868   3.972   5.471  0.4466 -0.0984  0.0654
  591PEP     CB19959  16.953   4.049   5.089 -0.0246  0.1050  0.4384
  591PEP     CB19960  17.208   4.295   4.778  0.0730 -0.0736  0.0844
  592PEP     CB19961   8.209   9.310   2.110 -0.1031 -0.3453  0.1116
  592PEP     CB19962   8.467   9.615   2.403 -0.5008  0.0163  0.2261
  592PEP     CB19963   8.525   9.856   2.831 -0.0941  0.0868  0.0335
  592PEP     CB19964   8.735  10.026   3.116 -0.0586 -0.2134 -0.1022
  592PEP     CB19965   9.113  10.237   3.000 -0.1372 -0.2744 -0.6373
  592PEP     CB19966   9.330  10.031   2.602 -0.2039 -0.3211 -0.6044
  592PEP     CB19967   9.321   9.935   2.175  0.4045 -0.3012 -0.1837
  592PEP     CB19968   9.559   9.967   1.779 -0.3167  0.2889 -0.3965
  592PEP     CB19969   9.874  10.158   1.439  0.2589 -0.0502  0.3124
  592PEP     CB19970   9.880   9.883   1.026  0.0340  0.0896 -0.0229
  592PEP     CB19971   9.774   9.498   1.019  0.1292  0.1237 -0.1671
  592PEP     CB19972   9.649   9.113   1.274 -0.2412 -0.3282  0.1798
  592PEP     CB19973   9.363   9.223   1.587  0.2266 -0.0926  0.0770
  592PEP     CB19974   8.988   9.325   1.806  0.4963  0.1577  0.1333
  592PEP     CB19975   8.748   9.191   2.124  0.1021  0.0942 -0.3116
  592PEP     CB19976   8.543   9.129   2.514 -0.1474  0.0370  0.0046
  592PEP     CB19977   8.569   9.374   2.901  0.1816  0.0745 -0.2022
  592PEP     CB19978   8.269   9.551   3.130 -0.1268 -0.2098  0.1404
  592PEP     CB19979   7.846   9.663   3.096  0.0271 -0.0587  0.4525
  592PEP     CB19980   7.564   9.529   2.856  0.5295 -0.0447 -0.3253
  592PEP     CB19981   7.518   9.333   2.457  0.0358 -0.2148  0.5395
  592PEP     CB19982   7.620   9.622   2.088 -0.0237  0.2334  0.0734
  592PEP     CB19983   8.026   9.819   2.002 -0.0421  0.0797 -0.1882
  592PEP     CB19984   8.421  10.072   2.086 -0.1673  0.3695  0.2560
  592PEP     CB19985   8.586  10.495   2.067  0.2727 -0.1875  0.2169
  592PEP     CB19986   8.464  10.935   2.013 -0.0680 -0.1904  0.2094
  592PEP     CB19987   8.110  11.100   1.816 -0.0689  0.0762 -0.1915
  592PEP     CB19988   7.840  10.933   1.390 -0.1021  0.0463 -0.1024
  592PEP     CB19989   7.992  10.944   0.915 -0.1048 -0.1647  0.1750
  592PEP     CB19990   8.102  10.651   0.559 -0.4154 -0.0443 -0.1626
  592PEP     CB19991   7.896  10.298   0.453 -0.0783  0.4789  0.0444
  592PEP     CB19992   7.835   9.966   0.728 -0.1010  0.0515 -0.1084
  592PEP     CB19993   8.058  10.053   1.114 -0.5308 -0.0720 -0.2275
  592PEP     CB19994   8.464  10.301   1.229 -0.1211 -0.1354 -0.0914
  592PEP     CB19995   8.775  10.551   1.391 -0.3497 -0.1755 -0.2941
  592PEP     CB19996   9.074  10.825   1.628  0.1618  0.0376  0.5373
  592PEP     CB19997   9.163  11.166   1.810  0.1133  0.0835  0.3588
  592PEP     CB19998   9.474  11.332   1.993  0.0475  0.1260 -0.0310
  592PEP     CB19999   9.918  11.407   1.789 -0.2083 -0.2037  0.1316
  592PEP     CB20000   9.954  11.444   1.349  0.0287  0.0086  0.0916
  593PEP     CB20001   5.477   2.537  14.471  0.1767 -0.1121  0.1496
  593PEP     CB20002   5.718   2.449  14.836 -0.0308  0.1342 -0.1146
  593PEP     CB20003   6.096   2.635  14.963 -0.3812  0.0381 -0.2942
  593PEP     CB20004   6.152   2.988  15.297 -0.2908  0.1880 -0.0670
  593PEP     CB20005   5.930   3.296  15.365 -0.1484  0.3060  0.3398
  593PEP     CB20006   5.721   3.689  15.094 -0.1934 -0.3641 -0.2532
  593PEP     CB20007   5.570   3.729  14.694  0.3966  0.2245 -0.3155
  593PEP     CB20008   5.382   4.015  14.386  0.0583  0.2227 -0.2353
  593PEP     CB20009   4.864   3.994  14.339 -0.4405 -0.0238 -0.2030
  593PEP     CB20010   4.570   3.734  14.677  0.0470  0.2471  0.1198
  593PEP     CB20011   4.397   3.667  15.024 -0.5457 -0.3437 -0.0654
  593PEP     CB20012   4.128   3.967  15.296 -0.2078 -0.1848 -0.4330
  593PEP     CB20013   3.823   4.109  15.715  0.0546  0.4828 -0.2978
  593PEP     CB20014   3.716   4.156  16.159 -0.1405 -0.0744  0.0602
  593PEP     CB20015   3.788   4.151  16.549  0.1418  0.1073 -0.0743
  593PEP     CB20016   3.996   3.998  16.880 -0.0987  0.1311 -0.1404
  593PEP     CB20017   4.193   3.584  16.874 -0.1221 -0.0739  0.1685
  593PEP     CB20018   4.314   3.318  16.647  0.1900 -0.1821  0.4242
  593PEP     CB20019   4.221   3.081  16.292 -0.6140  0.2622  0.1022
  593PEP     CB20020   4.457   2.775  16.011  0.0917  0.0297  0.0806
  593PEP     CB20021   4.786   2.634  15.773 -0.6169  0.6914  0.1330
  593PEP     CB20022   5.175   2.459  15.607  0.2407 -0.0444  0.5685
  593PEP     CB20023   5.414   2.325  15.299 -0.0616  0.1842  0.1040
  593PEP     CB20024   5.328   2.135  14.803  0.0327 -0.2757  0.0692
  593PEP     CB20025   5.551   2.010  14.512  0.2496 -0.1504 -0.0735
  593PEP     CB20026   5.833   1.657  14.344 -0.0083 -0.1732  0.4928
  593PEP     CB20027   5.973   1.240  14.246 -0.1316 -0.1262  0.0931
  593PEP     CB20028   5.837   0.895  14.486 -0.1722 -0.0654 -0.1636
  593PEP     CB20029   5.456   0.627  14.646 -0.3076 -0.2422 -0.3384
  593PEP     CB20030   5.147   0.383  14.682 -0.1207  0.3051 -0.2815
  593PEP     CB20031   4.724   0.546  14.662 -0.2432 -0.0504 -0.1332
  593PEP     CB20032   4.431   0.910  14.537 -0.2599  0.0974 -0.1582
  593PEP     CB20033   4.456   1.330  14.396 -0.1619 -0.0471  0.0503
  593PEP     CB20034   4.508   1.689  14.178 -0.1725  0.1279 -0.1460
  593PEP     CB20035   4.860   1.601  13.948 -0.0133  0.0144 -0.2444
  593PEP     CB20036   4.918   1.101  13.883 -0.0199  0.1803 -0.1256
  593PEP     CB20037   4.939   0.899  14.300 -0.0356  0.2310 -0.1234
  593PEP     CB20038   4.906   0.994  14.797 -0.0791 -0.1136 -0.1521
  593PEP     CB20039   4.835   1.068  15.208 -0.1702  0.0334  0.4522
  593PEP     CB20040   4.643   1.291  15.602 -0.0629  0.3465 -0.1961
  594PEP     CB20041  22.020  17.316  11.976  0.4574 -0.1150  0.1578
  594PEP     CB20042  21.707  17.433  12.325 -0.0626 -0.1449 -0.0336
  594PEP     CB20043  21.648  17.377  12.771 -0.2776 -0.1421  0.0725
  594PEP     CB20044  21.613  17.622  13.181 -0.1006 -0.2495  0.2872
  594PEP     CB20045  21.787  17.862  13.536  0.6614 -0.0958  0.3445
  594PEP     CB20046  21.658  17.999  13.954  0.3823 -0.1556  0.0792
  594PEP     CB20047  21.267  17.967  14.157 -0.0175 -0.1390  0.1268
  594PEP     CB20048  21.225  18.384  14.346  0.3438 -0.1369  0.3863
  594PEP     CB20049  21.413  18.734  14.140 -0.2207  0.1395  0.0204
  594PEP     CB20050  21.418  18.769  13.713 -0.1412  0.0285 -0.2668
  594PEP     CB20051  21.063  18.574  13.413 -0.0088  0.0461 -0.2295
  594PEP     CB20052  20.835  18.217  13.442 -0.1642  0.0854  0.0452
  594PEP     CB20053  20.549  17.895  13.762 -0.2902 -0.4371 -0.1816
  594PEP     CB20054  20.146  17.809  13.999  0.1853 -0.1169 -0.2429
  594PEP     CB20055  19.923  17.964  14.377  0.1790 -0.1550  0.1450
  594PEP     CB20056  19.796  18.330  14.644 -0.0465  0.6015  0.2267
  594PEP     CB20057  19.668  18.661  14.853 -0.4229  0.3305 -0.1368
  594PEP     CB20058  19.761  19.115  14.855  0.3122 -0.3337 -0.2358
  594PEP     CB20059  19.868  19.468  14.697 -0.0035  0.0787 -0.2355
  594PEP     CB20060  19.782  19.964  14.790 -0.1737  0.1440 -0.2126
  594PEP     CB20061  19.416  20.231  14.806 -0.0283 -0.1426  0.0362
  594PEP     CB20062  18.929  20.327  14.783 -0.0936  0.4717  0.0025
  594PEP     CB20063  18.541  20.434  15.030 -0.0344 -0.0517 -0.0452
  594PEP     CB20064  18.358  20.751  15.138 -0.2860  0.0436  0.4153
  594PEP     CB20065  18.355  21.133  15.056 -0.0745 -0.0363  0.2895
  594PEP     CB20066  18.524  21.418  14.883 -0.4124 -0.2188  0.1147
  594PEP     CB20067  18.616  21.818  15.029 -0.0858  0.1398 -0.2760
  594PEP     CB20068  18.567  21.987  15.534  0.0705  0.0812 -0.2913
  594PEP     CB20069  18.446  22.062  15.922 -0.0489 -0.4236 -0.0948
  594PEP     CB20070  18.630  22.249  16.326 -0.1539 -0.1441 -0.0183
  594PEP     CB20071  19.089  22.360  16.359 -0.0463 -0.5695  0.1558
  594PEP     CB20072  19.364  22.308  16.002  0.5452  0.0883 -0.1185
  594PEP     CB20073  19.265  22.554  15.581  0.1611  0.1667 -0.1398
  594PEP     CB20074  18.847  22.805  15.494  0.0823 -0.3227  0.1494
  594PEP     CB20075  18.526  23.082  15.427  0.1900 -0.0852 -0.1009
  594PEP     CB20076  18.234  23.234  15.597  0.0497  0.0910  0.1908
  594PEP     CB20077  17.914  23.147  15.793 -0.0494  0.0800 -0.1261
  594PEP     CB20078  17.522  22.944  15.726  0.2409  0.0562 -0.1504
  594PEP     CB20079  17.209  22.686  15.519  0.0104  0.0599 -0.0808
  594PEP     CB20080  16.940  22.408  15.635  0.3930  0.3865 -0.2450
  595PEP     CB20081  10.220   5.636   3.271  0.1386  0.3394 -0.2362
  595PEP     CB20082   9.901   5.338   3.384 -0.0637  0.1339 -0.1205
  595PEP     CB20083   9.775   4.962   3.354 -0.4744  0.4702  0.1951
  595PEP     CB20084   9.826   4.617   3.030  0.0254 -0.1596 -0.2072
  595PEP     CB20085   9.756   4.571   2.639 -0.1944  0.2334 -0.1962
  595PEP     CB20086   9.653   4.798   2.241  0.2794 -0.1305 -0.2934
  595PEP     CB20087   9.541   5.191   2.148  0.0223  0.1508 -0.0651
  595PEP     CB20088   9.233   5.462   2.416 -0.0260 -0.2626 -0.0923
  595PEP     CB20089   9.206   5.537   2.864 -0.3321  0.2673 -0.1671
  595PEP     CB20090   9.590   5.670   3.129 -0.2408  0.3725 -0.1852
  595PEP     CB20091   9.883   5.960   3.032 -0.0677 -0.0833 -0.0496
  595PEP     CB20092   9.715   6.367   2.701  0.1190  0.1771  0.1330
  595PEP     CB20093   9.315   6.581   2.778  0.1202 -0.2083  0.0582
  595PEP     CB20094   8.921   6.295   2.884 -0.3262  0.3861  0.4265
  595PEP     CB20095   8.629   5.972   3.061  0.5149 -0.4862 -0.2891
  595PEP     CB20096   8.307   5.683   3.193 -0.0015  0.3859 -0.2530
  595PEP     CB20097   7.911   5.495   3.224  0.1947  0.3851  0.0710
  595PEP     CB20098   7.645   5.173   3.296  0.0143  0.2102 -0.0787
  595PEP     CB20099   7.684   4.691   3.324  0.0320 -0.1116 -0.2864
  595PEP     CB20100   7.770   4.434   3.652 -0.3003 -0.1510  0.0056
  595PEP     CB20101   8.140   4.634   3.807  0.2091 -0.1443 -0.3173
  595PEP     CB20102   8.371   4.944   3.596  0.0693 -0.5184 -0.1605
  595PEP     CB20103   8.601   5.243   3.283  0.0264 -0.0810  0.1706
  595PEP     CB20104   8.692   5.429   2.963  0.5099 -0.2822 -0.1005
  595PEP     CB20105   8.800   5.871   2.613  0.2020  0.2591  0.1995
  595PEP     CB20106   8.875   6.242   2.390  0.1245 -0.0130 -0.3786
  595PEP     CB20107   9.229   6.481   2.300 -0.0002  0.0448 -0.3032
  595PEP     CB20108   9.645   6.785   2.478  0.0056  0.3756  0.0468
  595PEP     CB20109   9.969   6.778   2.814  0.4237 -0.1487 -0.2306
  595PEP     CB20110  10.049   6.409   3.202 -0.0339  0.2678 -0.0091
  595PEP     CB20111   9.970   6.111   3.532  0.2328 -0.4348  0.1654
  595PEP     CB20112   9.755   5.747   3.716 -0.1144 -0.1339  0.0856
  595PEP     CB20113   9.352   5.526   3.900 -0.0917 -0.0360  0.3523
  595PEP     CB20114   8.985   5.486   4.194 -0.5649  0.1402  0.0453
  595PEP     CB20115   8.659   5.747   4.285 -0.5288  0.2003 -0.2680
  595PEP     CB20116   8.619   6.165   4.478  0.0458 -0.0101 -0.1379
  595PEP     CB20117   8.572   6.600   4.674  0.0964  0.1271 -0.0204
  595PEP     CB20118   8.526   6.960   4.988 -0.3415 -0.3507 -0.0574
  595PEP     CB20119   8.297   7.363   5.209 -0.2028  0.1768  0.0354
  595PEP     CB20120   8.285   7.801   5.183  0.2770  0.0495 -0.3926
  596PEP     CB20121   7.913  17.163  11.911 -0.0459  0.0447  0.1489
  596PEP     CB20122   7.743  17.464  12.231 -0.1899  0.0746 -0.2882
  596PEP     CB20123   7.702  17.895  12.262  0.0458 -0.2417 -0.3220
  596PEP     CB20124   7.980  18.216  12.404  0.0141 -0.3476 -0.0400
  596PEP     CB20125   8.354  18.460  12.255 -0.1441 -0.0187 -0.1493
  596PEP     CB20126   8.717  18.312  12.214 -0.1536 -0.1760 -0.0663
  596PEP     CB20127   8.994  17.962  12.177  0.1241 -0.0594  0.3412
  596PEP     CB20128   9.089  17.746  12.559  0.1416 -0.0444 -0.0555
  596PEP     CB20129   8.872  17.709  12.986 -0.5572  0.1108 -0.1583
  596PEP     CB20130   8.839  18.109  13.224 -0.0021  0.0956  0.2045
  596PEP     CB20131   8.690  18.518  13.108 -0.2830 -0.2252  0.3034
  596PEP     CB20132   8.569  18.503  12.677  0.2018 -0.1141 -0.0712
  596PEP     CB20133   8.397  18.084  12.543 -0.5198 -0.2564  0.0429
  596PEP     CB20134   8.217  17.795  12.282 -0.2318 -0.0096  0.4785
  596PEP     CB20135   8.232  17.523  11.918  0.1303  0.0569  0.1877
  596PEP     CB20136   8.398  17.234  11.615  0.2229  0.1840  0.2970
  596PEP     CB20137   8.532  17.099  11.218 -0.0410  0.0452 -0.4251
  596PEP     CB20138   8.526  16.763  10.834  0.2319  0.0704 -0.4102
  596PEP     CB20139   8.162  16.776  10.508 -0.1050 -0.0169  0.1036
  596PEP     CB20140   7.854  16.910  10.247  0.1727  0.4144  0.0825
  596PEP     CB20141   7.807  17.071   9.846  0.1024 -0.2153 -0.2155
  596PEP     CB20142   8.048  17.286   9.615  0.1874 -0.0410  0.1658
  596PEP     CB20143   8.299  17.514   9.372 -0.1478 -0.0209  0.3184
  596PEP     CB20144   8.545  17.442   9.019 -0.0790  0.1768 -0.0717
  596PEP     CB20145   9.010  17.515   8.818 -0.0001  0.0084  0.2727
  596PEP     CB20146   9.334  17.600   9.081 -0.4524  0.0075  0.0119
  596PEP     CB20147   9.336  17.524   9.543 -0.0235  0.1339  0.1307
  596PEP     CB20148   9.154  17.295   9.891  0.2887  0.0975 -0.3373
  596PEP     CB20149   9.279  17.184  10.303  0.0066  0.3350  0.2475
  596PEP     CB20150   9.352  16.935  10.620  0.2542  0.2417  0.4463
  596PEP     CB20151   9.310  16.737  10.969 -0.0486 -0.0602 -0.1257
  596PEP     CB20152   9.364  16.449  11.354  0.0296 -0.0887  0.0588
  596PEP     CB20153   9.339  16.263  11.727  0.3512  0.2706  0.1204
  596PEP     CB20154   9.068  16.093  12.092  0.1401  0.0025  0.1723
  596PEP     CB20155   8.960  16.296  12.505 -0.1274  0.2306 -0.0328
  596PEP     CB20156   8.852  16.782  12.501 -0.3045 -0.0616 -0.1741
  596PEP     CB20157   8.898  17.107  12.349  0.2924  0.0743  0.1443
  596PEP     CB20158   9.113  17.433  12.022  0.3745 -0.3052  0.7016
  596PEP     CB20159   9.295  17.788  11.761 -0.2424  0.0287 -0.1638
  596PEP     CB20160   9.576  18.128  11.695  0.0122 -0.0126  0.1421
  597PEP     CB20161  11.663   3.022   7.898 -0.1061 -0.2844 -0.3357
  597PEP     CB20162  12.014   3.060   8.237 -0.3464  0.1696  0.2094
  597PEP     CB20163  12.319   3.248   8.479  0.3460  0.1224 -0.1238
  597PEP     CB20164  12.803   3.195   8.419  0.0802 -0.1528 -0.0233
  597PEP     CB20165  13.125   2.929   8.678  0.3527  0.0030 -0.1092
  597PEP     CB20166  13.084   2.757   9.057  0.1387 -0.0442  0.2077
  597PEP     CB20167  12.705   2.786   9.197  0.1844  0.1018  0.2285
  597PEP     CB20168  12.298   2.616   9.058  0.5549  0.1160  0.0335
  597PEP     CB20169  12.119   2.656   8.677 -0.2127 -0.1813 -0.0239
  597PEP     CB20170  12.280   2.707   8.296 -0.2966 -0.1146  0.1095
  597PEP     CB20171  12.712   2.681   8.146  0.2962  0.1687  0.3304
  597PEP     CB20172  13.232   2.589   8.279  0.1100 -0.1926  0.0685
  597PEP     CB20173  13.506   2.510   8.563  0.2271  0.0857 -0.5083
  597PEP     CB20174  13.564   2.568   8.980 -0.2469  0.3695  0.0963
  597PEP     CB20175  13.563   2.623   9.429  0.0034 -0.5985  0.0677
  597PEP     CB20176  13.573   2.568   9.873  0.1473  0.1241 -0.6001
  597PEP     CB20177  13.497   2.429  10.239  0.0521  0.1890 -0.2453
  597PEP     CB20178  13.551   2.369  10.747 -0.1711 -0.1931  0.1139
  597PEP     CB20179  14.013   2.226  10.948 -0.2217  0.2970 -0.1078
  597PEP     CB20180  14.373   2.449  10.902 -0.2833 -0.6866  0.1410
  597PEP     CB20181  14.610   2.583  10.451 -0.1522  0.0911 -0.2013
  597PEP     CB20182  14.679   2.762  10.090 -0.1884 -0.3977  0.0556
  597PEP     CB20183  14.983   3.003   9.779 -0.0952  0.1504 -0.1555
  597PEP     CB20184  15.278   3.430   9.658  0.0652  0.1215 -0.1722
  597PEP     CB20185  15.244   3.710   9.321 -0.0091  0.0350  0.0275
  597PEP     CB20186  15.236   4.042   8.976  0.2064  0.1486  0.0202
  597PEP     CB20187  15.005   4.380   8.919 -0.0936  0.1573  0.1525
  597PEP     CB20188  14.624   4.621   9.042  0.1314 -0.0461 -0.0882
  597PEP     CB20189  14.475   4.851   9.392 -0.2678 -0.2757 -0.1318
  597PEP     CB20190  14.743   5.189   9.634  0.3106 -0.2534 -0.0738
  597PEP     CB20191  15.013   5.576   9.525 -0.1439  0.0890  0.0670
  597PEP     CB20192  15.124   5.910   9.332 -0.1643 -0.0677 -0.3819
  597PEP     CB20193  15.443   6.121   9.109  0.1227 -0.0628  0.2861
  597PEP     CB20194  15.727   6.336   8.898  0.1486  0.6214 -0.2151
  597PEP     CB20195  15.895   6.806   8.868  0.0448 -0.1431  0.1431
  597PEP     CB20196  15.668   7.186   8.656 -0.0603  0.0981 -0.2855
  597PEP     CB20197  15.245   7.169   8.593  0.2733  0.0508 -0.0813
  597PEP     CB20198  14.935   7.086   8.191 -0.0781 -0.0423 -0.2139
  597PEP     CB20199  14.750   6.797   7.928  0.0419  0.1585 -0.0956
  597PEP     CB20200  14.376   6.609   8.069  0.1622 -0.2212  0.3337
  598PEP     CB20201  20.231  18.100   7.811  0.3288 -0.1219  0.1210
  598PEP     CB20202  20.408  17.922   8.225 -0.1745  0.3563  0.3283
  598PEP     CB20203  20.206  17.663   8.544 -0.0841  0.1709 -0.0139
  598PEP     CB20204  19.757  17.763   8.526 -0.0931  0.2335 -0.0113
  598PEP     CB20205  19.359  17.932   8.384  0.2540  0.0608  0.1549
  598PEP     CB20206  19.030  18.274   8.239 -0.1379 -0.2067  0.0482
  598PEP     CB20207  18.610  18.275   7.986 -0.2683  0.1282  0.1434
  598PEP     CB20208  18.311  18.543   7.764 -0.1873 -0.0356  0.0142
  598PEP     CB20209  17.987  18.913   7.755 -0.0011 -0.0500 -0.4418
  598PEP     CB20210  17.678  19.079   7.529  0.3472 -0.0593  0.2047
  598PEP     CB20211  17.509  19.418   7.197  0.0989  0.4431 -0.1661
  598PEP     CB20212  17.747  19.770   7.147  0.4125  0.1746  0.1843
  598PEP     CB20213  17.877  20.299   6.948 -0.1751  0.0665  0.1566
  598PEP     CB20214  17.784  20.687   6.756  0.0961 -0.0511 -0.0622
  598PEP     CB20215  17.670  21.117   6.674 -0.0283 -0.0991  0.0639
  598PEP     CB20216  17.671  21.611   6.710  0.1978 -0.2703 -0.0581
  598PEP     CB20217  17.650  22.065   6.641 -0.2157  0.1265 -0.0313
  598PEP     CB20218  17.654  22.481   6.814  0.2199 -0.0679  0.1865
  598PEP     CB20219  17.560  22.916   6.981 -0.0330  0.3095  0.2087
  598PEP     CB20220  17.606  23.264   6.806  0.1056  0.2583  0.2037
  598PEP     CB20221  17.889  23.657   6.934  0.2228 -0.1166 -0.0789
  598PEP     CB20222  18.131  23.644   7.264  0.0433  0.4500 -0.0268
  598PEP     CB20223  18.219  23.379   7.556  0.1174  0.1255  0.1257
  598PEP     CB20224  18.212  22.966   7.572 -0.1912 -0.0431 -0.2656
  598PEP     CB20225  18.242  22.528   7.681  0.4369 -0.1184  0.2700
  598PEP     CB20226  18.253  22.120   7.901  0.1047  0.2205 -0.1778
  598PEP     CB20227  18.633  21.808   7.926  0.0165  0.0835  0.0235
  598PEP     CB20228  19.031  21.623   7.833  0.1218  0.3561 -0.3863
  598PEP     CB20229  19.344  21.499   7.451  0.0612  0.1628  0.1688
  598PEP     CB20230  19.548  21.339   7.282  0.1090 -0.7168 -0.1929
  598PEP     CB20231  19.731  21.222   6.934  0.2271  0.0385 -0.3138
  598PEP     CB20232  20.070  21.016   6.678  0.2202 -0.2499  0.0266
  598PEP     CB20233  20.414  20.872   6.316 -0.0313  0.2084 -0.2352
  598PEP     CB20234  20.669  20.978   6.068 -0.0983 -0.0467 -0.2397
  598PEP     CB20235  20.921  21.341   5.886  0.0073 -0.1139  0.4262
  598PEP     CB20236  21.024  21.599   5.581 -0.2431  0.0451 -0.1643
  598PEP     CB20237  21.147  21.978   5.443 -0.0166  0.2814 -0.1955
  598PEP     CB20238  21.502  22.118   5.175 -0.1787 -0.0254  0.0612
  598PEP     CB20239  21.809  21.882   5.014 -0.0998  0.3511 -0.2434
  598PEP     CB20240  22.147  21.842   4.701 -0.5028  0.2495 -0.0518
  599PEP     CB20241  21.396   3.378   8.758 -0.1233  0.0589 -0.1707
  599PEP     CB20242  21.412   3.385   9.222  0.1214  0.0643 -0.1035
  599PEP     CB20243  21.525   3.105   9.614  0.2050 -0.0936 -0.4547
  599PEP     CB20244  21.595   2.861   9.959 -0.1553 -0.1087  0.1995
  599PEP     CB20245  21.699   2.594  10.341 -0.0483  0.6158  0.1745
  599PEP     CB20246  21.837   2.293  10.709 -0.2290  0.1655 -0.5580
  599PEP     CB20247  22.216   1.971  10.688  0.3185  0.3412  0.1592
  599PEP     CB20248  22.466   1.906  10.443  0.1811 -0.1736 -0.0095
  599PEP     CB20249  22.563   2.075   9.933 -0.3125  0.0353 -0.0974
  599PEP     CB20250  22.869   2.155   9.597  0.3786  0.3419  0.0801
  599PEP     CB20251  23.265   2.041   9.367 -0.4068 -0.3351 -0.1423
  599PEP     CB20252  23.379   1.941   8.896  0.1012  0.1235 -0.4119
  599PEP     CB20253  23.607   1.943   8.462  0.0853  0.2748  0.0294
  599PEP     CB20254  23.851   2.184   8.310  0.2150  0.2779  0.1475
  599PEP     CB20255  24.304   2.345   8.490  0.0507 -0.2921 -0.2110
  599PEP     CB20256  24.578   2.572   8.752 -0.1285  0.2755  0.2906
  599PEP     CB20257  24.808   2.952   8.776 -0.0779  0.3319 -0.3241
  599PEP     CB20258  24.947   3.244   8.435 -0.0191  0.0491 -0.4409
  599PEP     CB20259  24.718   3.577   8.159 -0.0146 -0.0140 -0.6064
  599PEP     CB20260  24.248   3.549   8.169 -0.3488 -0.0008 -0.0821
  599PEP     CB20261  23.943   3.394   8.448  0.0811  0.0335  0.2296
  599PEP     CB20262  23.463   3.420   8.569 -0.0345 -0.1373 -0.1090
  599PEP     CB20263  23.091   3.772   8.536  0.1593 -0.1482  0.5206
  599PEP     CB20264  22.627   3.915   8.580  0.0490  0.2261 -0.0250
  599PEP     CB20265  22.158   3.915   8.740  0.2606  0.2614 -0.0335
  599PEP     CB20266  21.688   3.832   8.971  0.0430  0.2660 -0.6440
  599PEP     CB20267  21.238   3.772   8.930 -0.0166  0.4966 -0.1854
  599PEP     CB20268  20.895   3.959   9.079 -0.0652  0.1800  0.5486
  599PEP     CB20269  20.686   4.279   9.270 -0.1786 -0.1781  0.0772
  599PEP     CB20270  20.775   4.677   9.393 -0.0048 -0.0018 -0.1838
  599PEP     CB20271  21.242   4.884   9.317  0.0361 -0.3921  0.0618
  599PEP     CB20272  21.578   4.708   9.012  0.0082  0.4895 -0.3718
  599PEP     CB20273  21.840   4.358   8.953 -0.0813  0.1667 -0.1776
  599PEP     CB20274  22.237   4.290   9.068  0.3850  0.2415 -0.1713
  599PEP     CB20275  22.735   4.268   9.200  0.4000 -0.0887  0.2401
  599PEP     CB20276  23.202   4.339   9.153 -0.0785 -0.0318  0.0849
  599PEP     CB20277  23.577   4.306   9.219 -0.3491 -0.4263 -0.1853
  599PEP     CB20278  23.942   4.568   9.249  0.0462  0.1059 -0.1664
  599PEP     CB20279  24.189   5.005   9.138  0.0728  0.1783 -0.1107
  599PEP     CB20280  24.459   5.114   8.833  0.0583  0.0729 -0.1074
  600PEP     CB20281   2.019  16.154  10.162 -0.2411  0.2543  0.0731
  600PEP     CB20282   1.850  16.442  10.311  0.1348 -0.2010  0.1959
  600PEP     CB20283   1.919  16.679  10.645 -0.1303  0.0005 -0.2910
  600PEP     CB20284   1.832  16.996  11.023  0.3278  0.0396 -0.2271
  600PEP     CB20285   1.767  17.222  11.439  0.2879  0.2242 -0.2539
  600PEP     CB20286   1.658  17.355  11.827  0.0698 -0.0064  0.0577
  600PEP     CB20287   1.725  17.275  12.188 -0.0531  0.0093  0.4254
  600PEP     CB20288   1.571  16.895  12.451  0.0975  0.1133  0.1748
  600PEP     CB20289   1.180  16.762  12.772 -0.2387  0.2622 -0.2533
  600PEP     CB20290   0.851  16.624  12.991 -0.3095  0.4064 -0.1409
  600PEP     CB20291   0.785  16.397  13.351 -0.1632 -0.0100  0.4439
  600PEP     CB20292   0.832  16.032  13.523  0.1557 -0.1448 -0.5799
  600PEP     CB20293   1.140  15.722  13.712 -0.1348  0.0396  0.0610
  600PEP     CB20294   1.300  15.369  13.981 -0.1038 -0.2138  0.2604
  600PEP     CB20295   1.106  14.939  14.038  0.1833 -0.0069 -0.3809
  600PEP     CB20296   0.642  14.925  14.028  0.0935 -0.1933 -0.3511
  600PEP     CB20297   0.381  15.173  14.381 -0.1164  0.1249 -0.0464
  600PEP     CB20298   0.051  15.253  14.650 -0.0115  0.1904  0.1674
  600PEP     CB20299  -0.250  15.251  14.955  0.0222  0.2060 -0.1255
  600PEP     CB20300  -0.622  15.291  15.010  0.1233 -0.0732  0.0181
  600PEP     CB20301  -1.021  15.118  15.052 -0.0750 -0.2600 -0.2635
  600PEP     CB20302  -1.488  15.000  15.009  0.0598  0.3138 -0.3712
  600PEP     CB20303  -1.918  14.867  15.042 -0.0222  0.0473 -0.0317
  600PEP     CB20304  -2.322  14.914  15.214 -0.0740  0.4537  0.3172
  600PEP     CB20305  -2.648  14.649  15.341 -0.5427 -0.2165 -0.1701
  600PEP     CB20306  -3.065  14.780  15.470  0.2424  0.1000  0.1584
  600PEP     CB20307  -3.528  14.875  15.454  0.1733  0.4357  0.0736
  600PEP     CB20308  -3.871  15.064  15.638 -0.1521 -0.1183 -0.1131
  600PEP     CB20309  -4.074  15.503  15.672  0.1576 -0.2549  0.7351
  600PEP     CB20310  -4.127  15.972  15.740  0.2042 -0.4509 -0.0670
  600PEP     CB20311  -4.449  16.230  15.568 -0.0853  0.1442  0.2632
  600PEP     CB20312  -4.766  16.468  15.383 -0.0236  0.0843  0.0744
  600PEP     CB20313  -4.960  16.705  14.870 -0.2107  0.2009  0.2480
  600PEP     CB20314  -5.136  16.781  14.449  0.6053  0.1175 -0.4494
  600PEP     CB20315  -5.533  16.696  14.269 -0.1206  0.5266 -0.1940
  600PEP     CB20316  -5.963  16.718  14.396  0.2918 -0.2706 -0.2447
  600PEP     CB20317  -6.203  16.980  14.626  0.1403  0.1568 -0.1049
  600PEP     CB20318  -6.073  16.868  15.120  0.0420 -0.2531  0.2600
  600PEP     CB20319  -5.659  16.674  15.153  0.0441  0.2995 -0.0199
  600PEP     CB20320  -5.417  16.593  14.818 -0.0597 -0.3697 -0.5642
  601PEP     CB20321  11.258  18.592   3.693  0.2337 -0.2641  0.1318
  601PEP     CB20322  11.471  18.207   3.742  0.2189 -0.2100 -0.2634
  601PEP     CB20323  11.718  17.930   3.989  0.0695  0.0660 -0.1379
  601PEP     CB20324  12.097  17.741   4.120  0.0570 -0.1982 -0.0059
  601PEP     CB20325  12.506  17.705   4.136 -0.0215  0.0241 -0.0274
  601PEP     CB20326  12.674  17.916   3.746  0.2737 -0.1903 -0.1661
  601PEP     CB20327  12.453  17.966   3.372 -0.4961 -0.1021  0.1147
  601PEP     CB20328  12.340  18.281   3.133  0.3594 -0.1843  0.5632
  601PEP     CB20329  12.008  18.583   3.019 -0.2411  0.2621  0.4770
  601PEP     CB20330  11.778  18.688   2.795 -0.1320 -0.1637  0.3086
  601PEP     CB20331  11.641  18.958   2.451 -0.2788 -0.0549  0.3232
  601PEP     CB20332  11.343  19.359   2.451  0.3244 -0.0565  0.1644
  601PEP     CB20333  10.973  19.376   2.685  0.2200 -0.0406  0.2812
  601PEP     CB20334  10.578  19.422   3.005  0.1470  0.0118  0.0100
  601PEP     CB20335  10.214  19.383   3.122 -0.1622  0.6952 -0.0559
  601PEP     CB20336   9.793  19.449   3.043  0.3124 -0.1003  0.0778
  601PEP     CB20337   9.309  19.542   2.994 -0.0822  0.3462  0.1248
  601PEP     CB20338   8.959  19.856   2.927  0.0434  0.2251 -0.1607
  601PEP     CB20339   8.765  20.231   2.963  0.0895  0.2118  0.2910
  601PEP     CB20340   8.749  20.631   2.780 -0.1681 -0.2005  0.0601
  601PEP     CB20341   8.862  21.180   2.573 -0.1664  0.2605  0.1907
  601PEP     CB20342   8.563  21.482   2.267 -0.1222  0.0325  0.1307
  601PEP     CB20343   8.109  21.777   2.276 -0.2342  0.0835  0.2629
  601PEP     CB20344   7.717  21.741   2.151 -0.2225  0.1631  0.2883
  601PEP     CB20345   7.407  21.458   2.072 -0.0030  0.2738  0.2397
  601PEP     CB20346   7.319  21.234   1.718  0.0345  0.0517  0.0805
  601PEP     CB20347   7.619  21.062   1.447  0.0572  0.3543  0.0145
  601PEP     CB20348   7.900  20.582   1.444 -0.3264  0.0129  0.1325
  601PEP     CB20349   7.783  20.132   1.501 -0.0004 -0.0901  0.3248
  601PEP     CB20350   7.417  19.880   1.275 -0.4793  0.2126  0.0066
  601PEP     CB20351   7.221  19.967   0.863 -0.0884 -0.3346  0.0638
  601PEP     CB20352   7.229  20.308   0.634  0.0770  0.2226  0.1718
  601PEP     CB20353   7.604  20.284   0.378 -0.1895 -0.1703 -0.2419
  601PEP     CB20354   7.793  19.774   0.493  0.0814  0.1311  0.0268
  601PEP     CB20355   7.498  19.520   0.809  0.0211  0.2056 -0.4072
  601PEP     CB20356   7.053  19.523   0.823 -0.4296 -0.1272 -0.2668
  601PEP     CB20357   6.747  19.740   0.494 -0.0217  0.1142  0.0915
  601PEP     CB20358   6.674  19.683   0.073  0.5594  0.3458  0.1131
  601PEP     CB20359   6.415  19.423  -0.098 -0.2222 -0.1983 -0.0087
  601PEP     CB20360   6.028  19.241  -0.202  0.0966 -0.0985  0.1910
  602PEP     CB20361  18.803   6.439   6.725 -0.0580  0.0973 -0.0284
  602PEP     CB20362  18.457   6.389   6.884 -0.2947 -0.0758 -0.1621
  602PEP     CB20363  18.040   6.367   6.952 -0.3888 -0.2554  0.0953
  602PEP     CB20364  17.751   6.676   6.855 -0.1849  0.5421 -0.1811
  602PEP     CB20365  17.403   6.948   6.553  0.0557 -0.0531  0.2807
  602PEP     CB20366  17.085   7.128   6.486  0.1358 -0.3310 -0.0403
  602PEP     CB20367  16.730   6.907   6.338 -0.4918  0.1756 -0.1067
  602PEP     CB20368  16.660   6.643   6.020  0.5869 -0.0080 -0.1155
  602PEP     CB20369  16.406   6.467   5.690  0.1948 -0.1515  0.2885
  602PEP     CB20370  16.462   6.209   5.413  0.2414 -0.3071 -0.0790
  602PEP     CB20371  16.436   5.918   5.027  0.4339 -0.0159  0.1322
  602PEP     CB20372  16.359   5.496   4.922 -0.1218 -0.0936  0.0004
  602PEP     CB20373  16.253   5.165   5.135  0.1333 -0.2554  0.2105
  602PEP     CB20374  16.333   5.229   5.649  0.0734 -0.0486 -0.0708
  602PEP     CB20375  16.503   5.474   5.920 -0.2782  0.2479 -0.3099
  602PEP     CB20376  16.452   5.620   6.356  0.0526  0.3911  0.3008
  602PEP     CB20377  16.532   5.892   6.651  0.2448  0.1548 -0.4633
  602PEP     CB20378  16.453   6.297   6.784  0.0848  0.1689 -0.1881
  602PEP     CB20379  16.298   6.625   6.556 -0.1312  0.1701 -0.2650
  602PEP     CB20380  16.031   6.660   6.075 -0.1226 -0.0070 -0.1145
  602PEP     CB20381  15.832   6.256   5.947 -0.0146 -0.0443 -0.0419
  602PEP     CB20382  16.229   5.943   5.851  0.3043  0.2887  0.2321
  602PEP     CB20383  16.694   5.978   5.864 -0.2587  0.0073 -0.0917
  602PEP     CB20384  16.987   5.730   6.012  0.4187  0.3324 -0.3988
  602PEP     CB20385  17.368   5.551   6.227  0.0742 -0.1085  0.1380
  602PEP     CB20386  17.592   5.818   6.566 -0.0675  0.2080  0.1981
  602PEP     CB20387  17.882   6.124   6.590 -0.2046  0.3293  0.2029
  602PEP     CB20388  17.898   6.427   6.297  0.0377 -0.2543  0.2039
  602PEP     CB20389  17.907   6.835   6.038 -0.3646  0.2395  0.1902
  602PEP     CB20390  17.990   7.195   5.868 -0.0291  0.1830 -0.1602
  602PEP     CB20391  18.259   7.485   5.766 -0.0630 -0.1990  0.1300
  602PEP     CB20392  18.477   7.843   5.566 -0.6264  0.1471  0.0020
  602PEP     CB20393  18.735   8.221   5.483  0.1721 -0.2624  0.1308
  602PEP     CB20394  18.924   8.536   5.450  0.1012 -0.5272 -0.0716
  602PEP     CB20395  19.423   8.736   5.548  0.2662 -0.2511 -0.2440
  602PEP     CB20396  19.756   8.704   5.875 -0.1303 -0.0976  0.2435
  602PEP     CB20397  19.802   8.632   6.331  0.2404  0.0463 -0.1349
  602PEP     CB20398  19.842   8.599   6.757 -0.4059  0.2028 -0.0390
  602PEP     CB20399  19.800   8.537   7.180 -0.1661 -0.0521  0.3575
  602PEP     CB20400  19.513   8.346   7.420 -0.0384 -0.1524  0.1931
  603PEP     CB20401  17.758  18.676  12.718  0.3962  0.0755 -0.0312
  603PEP     CB20402  17.767  18.771  12.228  0.0838 -0.1151 -0.0826
  603PEP     CB20403  17.638  18.897  11.844 -0.1619  0.2911  0.1402
  603PEP     CB20404  17.872  18.806  11.424  0.0778  0.2808  0.0575
  603PEP     CB20405  18.058  18.442  11.309  0.0033 -0.3037 -0.0904
  603PEP     CB20406  18.068  17.996  11.283 -0.0098  0.1455 -0.0870
  603PEP     CB20407  18.418  17.672  11.318  0.1199 -0.1159  0.1552
  603PEP     CB20408  18.796  17.481  11.027  0.2153 -0.0052 -0.0594
  603PEP     CB20409  19.029  17.301  10.641  0.3029  0.0965 -0.2990
  603PEP     CB20410  19.411  17.323  10.495 -0.4458  0.0652 -0.1820
  603PEP     CB20411  19.714  17.329  10.263 -0.2851  0.6164  0.0993
  603PEP     CB20412  19.981  17.601  10.116 -0.1028  0.2963  0.0623
  603PEP     CB20413  19.961  17.667   9.669 -0.0622 -0.5401  0.1205
  603PEP     CB20414  19.674  17.546   9.402  0.0567 -0.0187 -0.0529
  603PEP     CB20415  19.220  17.351   9.416 -0.2298 -0.4867 -0.3215
  603PEP     CB20416  18.921  17.451   9.691 -0.0706 -0.0643 -0.1510
  603PEP     CB20417  19.076  17.686  10.121 -0.2522 -0.1876  0.1682
  603PEP     CB20418  19.521  17.769  10.384 -0.2274  0.0426 -0.0806
  603PEP     CB20419  19.786  17.460  10.772  0.3365 -0.1737 -0.5691
  603PEP     CB20420  19.832  17.076  10.791 -0.0627 -0.3296  0.0947
  603PEP     CB20421  19.941  16.648  10.945 -0.1711 -0.2521  0.1828
  603PEP     CB20422  20.099  16.303  10.981 -0.0255 -0.2304  0.2171
  603PEP     CB20423  20.067  16.039  11.391 -0.0407 -0.2518  0.1940
  603PEP     CB20424  19.825  16.052  11.750  0.0590 -0.0207  0.4245
  603PEP     CB20425  19.363  16.281  11.845  0.2440 -0.0115  0.7209
  603PEP     CB20426  18.928  16.223  11.773  0.0454  0.4621 -0.0952
  603PEP     CB20427  18.700  16.149  11.334  0.1789  0.3675 -0.1267
  603PEP     CB20428  19.061  16.143  11.018 -0.0886 -0.2374  0.2232
  603PEP     CB20429  19.232  15.706  10.840  0.0541 -0.2083  0.4182
  603PEP     CB20430  18.908  15.401  10.817  0.1080 -0.5580 -0.1454
  603PEP     CB20431  18.645  15.153  11.088  0.3366  0.1661  0.0720
  603PEP     CB20432  18.697  14.856  11.439  0.0477  0.0495  0.1881
  603PEP     CB20433  18.792  14.616  11.776  0.2603 -0.3945 -0.2504
  603PEP     CB20434  18.920  14.298  12.091 -0.0690 -0.0580  0.5123
  603PEP     CB20435  18.768  13.833  12.057 -0.3104 -0.0331  0.0469
  603PEP     CB20436  18.657  13.456  12.091  0.0776  0.1357  0.0743
  603PEP     CB20437  18.456  13.093  12.275  0.0953 -0.1489  0.2192
  603PEP     CB20438  18.677  12.683  12.514 -0.4828  0.1551 -0.4124
  603PEP     CB20439  18.759  12.728  12.990  0.1648  0.1040  0.3093
  603PEP     CB20440  18.692  12.994  13.311  0.3801 -0.2752 -0.3400
  604PEP     CB20441  12.713   8.108   8.306 -0.2416  0.0341  0.1828
  604PEP     CB20442  12.731   7.779   8.006 -0.3389 -0.1535 -0.1576
  604PEP     CB20443  12.543   7.684   7.547 -0.5109 -0.0541  0.0613
  604PEP     CB20444  12.518   7.622   7.132 -0.2104 -0.2142  0.0434
  604PEP     CB20445  12.633   7.477   6.755  0.2974 -0.1363  0.0575
  604PEP     CB20446  12.942   7.464   6.547 -0.0108 -0.1758 -0.2279
  604PEP     CB20447  13.356   7.539   6.448  0.0204 -0.3830 -0.0257
  604PEP     CB20448  13.871   7.533   6.532 -0.3397 -0.0517  0.0896
  604PEP     CB20449  14.127   7.565   6.938 -0.0570 -0.2643  0.2856
  604PEP     CB20450  14.166   7.526   7.385  0.0295  0.2232  0.2122
  604PEP     CB20451  14.166   7.536   7.845  0.0072 -0.0991 -0.1582
  604PEP     CB20452  14.198   7.782   8.292 -0.2789 -0.1140 -0.0584
  604PEP     CB20453  14.195   8.090   8.678  0.3798  0.2592  0.1135
  604PEP     CB20454  14.330   8.533   8.720  0.2939 -0.0988  0.2617
  604PEP     CB20455  14.774   8.725   8.535  0.0837 -0.2118  0.1244
  604PEP     CB20456  14.835   9.018   8.222 -0.0805  0.2582 -0.3500
  604PEP     CB20457  14.659   9.304   8.250 -0.0473 -0.2146 -0.1582
  604PEP     CB20458  14.222   9.332   8.366  0.1684  0.2269  0.3062
  604PEP     CB20459  13.801   9.185   8.245 -0.0320  0.0136 -0.4194
  604PEP     CB20460  13.578   8.714   8.258  0.0985  0.0946 -0.0335
  604PEP     CB20461  13.886   8.462   8.301 -0.4003  0.0910  0.1264
  604PEP     CB20462  14.219   8.530   8.062  0.0552 -0.0758  0.0718
  604PEP     CB20463  14.171   8.731   7.687 -0.2332  0.1342  0.0904
  604PEP     CB20464  13.818   8.918   7.430 -0.2628  0.1123 -0.1104
  604PEP     CB20465  13.652   9.460   7.325 -0.4916 -0.2638 -0.1650
  604PEP     CB20466  13.860   9.921   7.195  0.4131  0.3104 -0.5605
  604PEP     CB20467  14.219  10.078   7.137  0.3423  0.0773  0.3411
  604PEP     CB20468  14.623   9.885   7.179  0.2938  0.2283  0.0624
  604PEP     CB20469  15.009   9.677   7.240 -0.1928  0.3150  0.3607
  604PEP     CB20470  15.436   9.527   7.130 -0.1725 -0.2208 -0.2600
  604PEP     CB20471  15.873   9.455   7.158  0.3006 -0.4119  0.2653
  604PEP     CB20472  16.349   9.531   7.102 -0.2387  0.1800 -0.1252
  604PEP     CB20473  16.746   9.361   7.095 -0.1525  0.3002 -0.2972
  604PEP     CB20474  17.220   9.508   7.163  0.4958 -0.0988 -0.2143
  604PEP     CB20475  17.479   9.671   7.543 -0.2448 -0.3229 -0.1468
  604PEP     CB20476  17.527   9.955   7.721  0.3648 -0.0386 -0.4258
  604PEP     CB20477  17.629  10.052   8.249  0.2344  0.1873 -0.1384
  604PEP     CB20478  17.536  10.409   8.575  0.2031  0.2584  0.0163
  604PEP     CB20479  17.278  10.625   8.834 -0.0940  0.0563  0.3290
  604PEP     CB20480  16.989  10.669   9.243 -0.1180 -0.1533 -0.1430
  605PEP     CB20481  10.756   2.019  10.124 -0.4030  0.1453 -0.0300
  605PEP     CB20482  10.327   1.991  10.388 -0.2925  0.2867 -0.0497
  605PEP     CB20483  10.012   1.689  10.514 -0.1430  0.0109 -0.0688
  605PEP     CB20484   9.656   1.639  10.843 -0.1353 -0.0667 -0.3810
  605PEP     CB20485   9.697   1.717  11.258 -0.2416  0.3466 -0.1701
  605PEP     CB20486  10.084   1.747  11.497  0.4936 -0.2090  0.2386
  605PEP     CB20487  10.518   1.890  11.432 -0.1960  0.2650 -0.1380
  605PEP     CB20488  10.873   1.919  11.697 -0.8429  0.0090  0.2619
  605PEP     CB20489  11.327   1.907  11.855  0.1145 -0.0548 -0.2083
  605PEP     CB20490  11.752   1.771  11.880  0.5006  0.0302  0.3258
  605PEP     CB20491  11.905   1.566  12.319  0.3537 -0.1868  0.4067
  605PEP     CB20492  11.686   1.269  12.469 -0.2447 -0.1214  0.1033
  605PEP     CB20493  11.673   0.799  12.248  0.3125 -0.0337 -0.7481
  605PEP     CB20494  11.961   0.479  12.103  0.3629 -0.4036 -0.3108
  605PEP     CB20495  12.182   0.153  12.127 -0.0798  0.2704  0.4504
  605PEP     CB20496  12.440  -0.141  12.283  0.1238  0.6172  0.1725
  605PEP     CB20497  12.680  -0.484  12.220  0.2953  0.0442  0.0057
  605PEP     CB20498  12.568  -0.899  12.431  0.2494 -0.1750 -0.3912
  605PEP     CB20499  12.250  -0.968  12.734 -0.2560 -0.0688  0.3656
  605PEP     CB20500  12.025  -1.193  13.062  0.1830 -0.0358 -0.0112
  605PEP     CB20501  11.613  -1.402  13.157 -0.0362 -0.3384  0.0911
  605PEP     CB20502  11.192  -1.447  13.138  0.1249  0.0968  0.1543
  605PEP     CB20503  10.736  -1.523  13.316 -0.3217  0.0462 -0.2643
  605PEP     CB20504  10.372  -1.634  13.265  0.1186  0.4434  0.1917
  605PEP     CB20505   9.957  -1.696  13.123  0.3306 -0.0972  0.1614
  605PEP     CB20506   9.786  -1.576  12.772  0.6126  0.3341  0.3203
  605PEP     CB20507   9.480  -1.661  12.390 -0.3285  0.0306  0.0229
  605PEP     CB20508   9.282  -1.520  12.011 -0.1204  0.0636  0.3896
  605PEP     CB20509   9.041  -1.190  11.894 -0.0204 -0.0004 -0.3682
  605PEP     CB20510   8.875  -0.900  12.198  0.1503 -0.1459  0.2592
  605PEP     CB20511   8.985  -0.686  12.560  0.0553 -0.0069 -0.2116
  605PEP     CB20512   9.082  -0.298  12.703  0.0328  0.2608  0.4614
  605PEP     CB20513   9.005   0.057  12.543  0.3030 -0.0649 -0.0254
  605PEP     CB20514   8.875   0.443  12.420  0.2340  0.0905 -0.3886
  605PEP     CB20515   9.164   0.706  12.149 -0.0782  0.2407 -0.0961
  605PEP     CB20516   9.542   0.599  12.047 -0.2969 -0.0726  0.3257
  605PEP     CB20517   9.625   0.152  11.953  0.1333  0.1040  0.1393
  605PEP     CB20518   9.416  -0.128  11.795 -0.1957  0.0873 -0.6270
  605PEP     CB20519   9.009  -0.128  11.681  0.0978  0.4273  0.2728
  605PEP     CB20520   8.649   0.214  11.665 -0.0502  0.0172  0.0615
  606PEP     CB20521  17.922   4.027  10.701  0.0077  0.1788  0.3198
  606PEP     CB20522  17.580   3.932  10.406  0.1567 -0.0980 -0.0786
  606PEP     CB20523  17.392   4.007  10.044  0.1240 -0.0949  0.0124
  606PEP     CB20524  17.128   4.052   9.708 -0.2514  0.2157  0.3790
  606PEP     CB20525  16.767   3.820   9.736 -0.1529 -0.2627  0.1415
  606PEP     CB20526  16.610   3.452   9.957 -0.3535 -0.3405  0.0336
  606PEP     CB20527  16.283   3.240  10.125 -0.0053  0.2085 -0.4254
  606PEP     CB20528  15.936   3.206  10.249 -0.2219 -0.0742 -0.0970
  606PEP     CB20529  15.642   3.014  10.567  0.2729  0.0028  0.0620
  606PEP     CB20530  15.355   3.033  10.816  0.2588  0.3242 -0.1472
  606PEP     CB20531  15.099   2.959  11.274 -0.2329 -0.3451  0.2900
  606PEP     CB20532  14.654   2.678  11.399  0.1579 -0.0290  0.1103
  606PEP     CB20533  14.436   2.555  11.757 -0.1149  0.1666 -0.0000
  606PEP     CB20534  14.410   2.629  12.238 -0.0589 -0.0322 -0.4722
  606PEP     CB20535  14.613   2.496  12.608 -0.0843  0.0475 -0.2876
  606PEP     CB20536  14.979   2.430  12.663  0.1638 -0.0252  0.0667
  606PEP     CB20537  15.405   2.606  12.765 -0.0448  0.0379 -0.1052
  606PEP     CB20538  15.774   2.538  12.941  0.1104  0.1634  0.2122
  606PEP     CB20539  15.951   2.351  13.378 -0.0166 -0.3654  0.3104
  606PEP     CB20540  15.776   2.400  13.774  0.0969  0.2397  0.3389
  606PEP     CB20541  15.666   2.255  14.142  0.1061 -0.0612 -0.1561
  606PEP     CB20542  15.589   1.892  14.222 -0.0556 -0.3799  0.2595
  606PEP     CB20543  15.518   1.495  13.951 -0.0809  0.1919 -0.1148
  606PEP     CB20544  15.591   1.000  13.901  0.1779 -0.3761 -0.1993
  606PEP     CB20545  15.696   0.697  13.682  0.2395  0.2539 -0.2245
  606PEP     CB20546  15.798   0.405  13.753  0.2480 -0.1562  0.0111
  606PEP     CB20547  16.199   0.189  13.803  0.1684  0.3586  0.0373
  606PEP     CB20548  16.511   0.036  14.157  0.0510 -0.2979 -0.1130
  606PEP     CB20549  16.550  -0.260  14.477  0.2021  0.1551 -0.0048
  606PEP     CB20550  16.382  -0.606  14.683 -0.1981  0.3375 -0.2728
  606PEP     CB20551  16.192  -0.719  15.083  0.3760  0.0519 -0.2578
  606PEP     CB20552  15.893  -0.811  15.347 -0.1979  0.1214  0.0611
  606PEP     CB20553  15.444  -0.988  15.262 -0.1624 -0.2760  0.1141
  606PEP     CB20554  15.024  -1.059  15.386  0.0284  0.0628  0.0378
  606PEP     CB20555  14.620  -0.908  15.283 -0.1312  0.0656  0.1775
  606PEP     CB20556  14.498  -0.545  14.915  0.3141  0.0039 -0.1988
  606PEP     CB20557  14.766  -0.509  14.503  0.0649  0.5719 -0.0406
  606PEP     CB20558  15.015  -0.888  14.383  0.0507  0.1442 -0.4716
  606PEP     CB20559  14.780  -1.205  14.324 -0.3840  0.1179 -0.1950
  606PEP     CB20560  14.632  -1.554  14.120 -0.1197 -0.0271 -0.2358
  607PEP     CB20561  14.695  15.975  10.844  0.1683  0.2779 -0.2358
  607PEP     CB20562  14.866  16.113  10.461 -0.1160 -0.0338 -0.2107
  607PEP     CB20563  15.160  16.346  10.164 -0.1392 -0.0717  0.0183
  607PEP     CB20564  15.685  16.459  10.060  0.1041 -0.2248  0.1234
  607PEP     CB20565  16.076  16.616   9.909  0.0445 -0.4611 -0.1266
  607PEP     CB20566  16.380  16.813   9.735 -0.1284  0.0519 -0.5960
  607PEP     CB20567  16.659  17.010   9.925  0.1438  0.1429 -0.0274
  607PEP     CB20568  16.613  17.302  10.340 -0.2718 -0.2177 -0.1815
  607PEP     CB20569  16.532  17.691  10.407  0.1715  0.0675 -0.2538
  607PEP     CB20570  16.442  18.090  10.160  0.0126  0.3772 -0.3402
  607PEP     CB20571  16.227  18.265   9.835 -0.3313  0.7744  0.0650
  607PEP     CB20572  16.126  18.171   9.470 -0.2343 -0.3549 -0.0296
  607PEP     CB20573  15.800  18.253   9.151 -0.0123  0.0078  0.1010
  607PEP     CB20574  15.619  18.206   8.706  0.3564  0.2479  0.4909
  607PEP     CB20575  15.504  18.003   8.318  0.2639 -0.1562 -0.0747
  607PEP     CB20576  15.525  17.892   7.891 -0.2876 -0.1612 -0.0835
  607PEP     CB20577  15.542  17.665   7.471 -0.0820  0.2136 -0.1199
  607PEP     CB20578  15.618  17.516   7.047  0.0520  0.2496  0.0359
  607PEP     CB20579  15.468  17.341   6.665  0.4008  0.1136 -0.1334
  607PEP     CB20580  15.308  17.134   6.291 -0.1491 -0.2324 -0.1799
  607PEP     CB20581  15.449  16.766   6.089  0.5781 -0.1323 -0.5015
  607PEP     CB20582  15.455  16.312   5.977  0.4646 -0.5581  0.1558
  607PEP     CB20583  15.360  15.925   6.017  0.1079 -0.3321  0.2187
  607PEP     CB20584  14.978  15.710   6.078  0.4807  0.1880  0.3626
  607PEP     CB20585  14.889  15.722   6.534 -0.2469  0.1285 -0.1834
  607PEP     CB20586  14.872  16.057   6.899  0.2174  0.3009  0.2566
  607PEP     CB20587  14.776  16.531   6.945 -0.0971 -0.0041 -0.1251
  607PEP     CB20588  14.707  17.002   7.073  0.2908 -0.3360 -0.0690
  607PEP     CB20589  14.520  17.299   7.131  0.0572  0.3780  0.3447
  607PEP     CB20590  14.544  17.713   6.972 -0.1731 -0.2468  0.1875
  607PEP     CB20591  14.373  17.972   6.619 -0.2969 -0.0670 -0.1841
  607PEP     CB20592  14.300  18.193   6.178  0.1160 -0.2628 -0.2605
  607PEP     CB20593  14.126  18.319   5.772 -0.1384  0.3952  0.2952
  607PEP     CB20594  13.821  18.357   5.383 -0.0150 -0.0593 -0.3965
  607PEP     CB20595  13.645  18.121   5.052  0.0275  0.1245  0.3229
  607PEP     CB20596  13.317  17.910   4.901  0.1512  0.0535  0.3751
  607PEP     CB20597  13.034  17.641   4.974 -0.1129 -0.1844  0.3337
  607PEP     CB20598  12.730  17.502   4.613  0.2634  0.1942  0.0658
  607PEP     CB20599  12.369  17.291   4.319 -0.2824 -0.2388 -0.3600
  607PEP     CB20600  12.048  17.105   3.956  0.2462  0.0984  0.4086
  608PEP     CB20601  17.158  18.501  19.097  0.1688  0.2771 -0.1514
  608PEP     CB20602  16.900  18.084  19.035  0.1509 -0.1992  0.1933
  608PEP     CB20603  16.655  17.790  19.190 -0.1086  0.1196 -0.2772
  608PEP     CB20604  16.753  17.383  19.437 -0.0506 -0.1718 -0.1745
  608PEP     CB20605  17.061  17.105  19.445 -0.3458 -0.4148  0.0527
  608PEP     CB20606  17.400  17.166  19.215 -0.2064 -0.6292  0.7883
  608PEP     CB20607  17.645  16.957  18.854  0.2435 -0.0130 -0.0894
  608PEP     CB20608  17.641  16.764  18.440 -0.6544  0.2214  0.0557
  608PEP     CB20609  17.836  16.404  18.164 -0.1722 -0.3994 -0.2475
  608PEP     CB20610  18.045  16.188  17.804 -0.4701  0.0719  0.2791
  608PEP     CB20611  18.124  16.241  17.315 -0.4758  0.5570 -0.0026
  608PEP     CB20612  18.229  16.632  17.077  0.2674 -0.1359 -0.1998
  608PEP     CB20613  18.264  17.105  17.172  0.2439 -0.1210 -0.0406
  608PEP     CB20614  18.115  17.513  17.184  0.1331  0.2673 -0.1940
  608PEP     CB20615  18.131  17.942  17.043 -0.0103  0.5160 -0.3365
  608PEP     CB20616  18.171  18.349  16.933  0.2963  0.1498 -0.0903
  608PEP     CB20617  18.371  18.721  17.087 -0.1886  0.3635  0.0350
  608PEP     CB20618  18.696  18.741  17.247  0.2351  0.1335  0.1914
  608PEP     CB20619  19.128  18.740  17.209 -0.0487 -0.1534  0.0614
  608PEP     CB20620  19.451  18.745  16.904 -0.3412  0.3190 -0.2686
  608PEP     CB20621  19.910  18.841  16.586  0.2305 -0.2207  0.4751
  608PEP     CB20622  20.312  18.891  16.438 -0.3125 -0.1088 -0.1505
  608PEP     CB20623  20.601  18.915  16.173  0.5935  0.2288  0.0815
  608PEP     CB20624  20.915  18.797  15.866 -0.2840  0.1950  0.3439
  608PEP     CB20625  21.094  18.387  15.992  0.0789  0.2475 -0.0858
  608PEP     CB20626  20.952  17.972  15.930 -0.4010  0.1381  0.1738
  608PEP     CB20627  20.657  17.601  15.997 -0.2326 -0.0089 -0.1886
  608PEP     CB20628  20.427  17.406  15.636  0.0293 -0.0065  0.4925
  608PEP     CB20629  19.876  17.183  15.388 -0.0639  0.2263 -0.2708
  608PEP     CB20630  19.605  16.663  15.462  0.0165 -0.0774  0.2334
  608PEP     CB20631  19.747  16.226  15.316  0.0866 -0.0472  0.1077
  608PEP     CB20632  20.167  15.901  15.306  0.2289  0.0448 -0.1517
  608PEP     CB20633  20.666  15.966  15.330 -0.0702  0.2492 -0.1207
  608PEP     CB20634  20.860  16.292  15.164 -0.0095 -0.1822 -0.3041
  608PEP     CB20635  21.133  16.600  15.178  0.2052 -0.1793  0.0475
  608PEP     CB20636  21.193  17.056  15.099  0.3016 -0.0415 -0.0210
  608PEP     CB20637  21.330  17.352  14.805 -0.3618  0.1437 -0.0593
  608PEP     CB20638  21.386  17.798  14.684 -0.0573 -0.0647  0.1962
  608PEP     CB20639  21.155  18.173  14.774 -0.1123  0.0128  0.2028
  608PEP     CB20640  21.096  18.462  15.033 -0.0747  0.2578 -0.0253
  609PEP     CB20641   5.334  20.596  11.877 -0.1934 -0.1038  0.1515
  609PEP     CB20642   5.262  20.756  11.520  0.0314 -0.4530 -0.1400
  609PEP     CB20643   5.289  20.901  11.049 -0.2551  0.0719 -0.1399
  609PEP     CB20644   5.228  20.640  10.659 -0.0584  0.0230 -0.0359
  609PEP     CB20645   4.921  20.316  10.532 -0.1526  0.3308 -0.0395
  609PEP     CB20646   4.815  19.876  10.572  0.2420  0.3160  0.3231
  609PEP     CB20647   4.748  19.584  10.342  0.3265  0.3253 -0.0642
  609PEP     CB20648   4.709  19.566   9.892  0.0568  0.2746 -0.2818
  609PEP     CB20649   4.455  19.213   9.680 -0.2804  0.4245 -0.1661
  609PEP     CB20650   4.160  18.902   9.836 -0.0090 -0.2143 -0.3352
  609PEP     CB20651   4.053  18.679  10.204 -0.0049 -0.3907  0.1545
  609PEP     CB20652   3.813  18.645  10.506 -0.1232 -0.2517 -0.2541
  609PEP     CB20653   3.643  18.794  10.835  0.0570  0.2007  0.0350
  609PEP     CB20654   3.285  18.943  11.087  0.1230 -0.0073  0.1505
  609PEP     CB20655   3.020  18.863  11.392 -0.7561  0.0398 -0.0704
  609PEP     CB20656   2.709  18.668  11.406 -0.1619 -0.0120  0.2069
  609PEP     CB20657   2.406  18.535  11.191 -0.2831  0.2880  0.0491
  609PEP     CB20658   2.199  18.388  10.799 -0.2057  0.0603 -0.2231
  609PEP     CB20659   2.094  18.004  10.709 -0.0147  0.1369 -0.1047
  609PEP     CB20660   1.987  17.634  11.013 -0.0384  0.0988  0.3210
  609PEP     CB20661   2.094  17.637  11.395 -0.2484 -0.1916 -0.2737
  609PEP     CB20662   2.203  17.459  11.773 -0.2569 -0.0812 -0.0527
  609PEP     CB20663   2.352  17.324  12.191 -0.1075 -0.0232 -0.0024
  609PEP     CB20664   2.359  17.550  12.551 -0.2903 -0.2931  0.1883
  609PEP     CB20665   2.386  17.758  12.961  0.1606 -0.0282 -0.0843
  609PEP     CB20666   2.659  18.018  13.184 -0.4482  0.2622  0.3432
  609PEP     CB20667   3.056  18.171  13.230  0.0461  0.1661  0.0507
  609PEP     CB20668   3.349  18.416  13.109  0.2088  0.0796  0.3206
  609PEP     CB20669   3.730  18.669  13.222 -0.0508  0.5030 -0.1084
  609PEP     CB20670   4.085  18.909  13.231 -0.2124  0.1962 -0.2380
  609PEP     CB20671   4.575  18.918  13.220  0.0485  0.2562 -0.3557
  609PEP     CB20672   4.922  18.737  13.021 -0.2572 -0.1656 -0.6019
  609PEP     CB20673   5.335  18.831  13.002  0.2704 -0.0248  0.0382
  609PEP     CB20674   5.543  19.206  13.247  0.1187 -0.0903 -0.0670
  609PEP     CB20675   5.404  19.368  13.555  0.1441 -0.0521 -0.1684
  609PEP     CB20676   5.287  19.118  13.953 -0.0033  0.0516 -0.2123
  609PEP     CB20677   5.146  19.072  14.430 -0.0808 -0.1626 -0.0073
  609PEP     CB20678   5.113  19.324  14.705  0.1548  0.0204  0.0511
  609PEP     CB20679   5.515  19.555  14.873  0.2042  0.1122  0.3369
  609PEP     CB20680   5.924  19.598  14.683  0.5712 -0.0586  0.1351
  610PEP     CB20681  18.365  19.318  13.328  0.1917  0.0560  0.4076
  610PEP     CB20682  18.309  19.687  13.472  0.2572  0.0977 -0.0628
  610PEP     CB20683  18.134  19.848  13.861  0.1585  0.1654  0.0184
  610PEP     CB20684  17.975  20.001  14.236 -0.1147  0.0323  0.4971
  610PEP     CB20685  17.777  20.256  14.521 -0.0699  0.1731 -0.1636
  610PEP     CB20686  17.383  20.545  14.667 -0.4866  0.2079  0.1729
  610PEP     CB20687  17.277  20.985  14.892 -0.1011 -0.2587  0.0666
  610PEP     CB20688  17.426  21.355  15.141 -0.3409 -0.1740  0.3446
  610PEP     CB20689  17.350  21.779  15.446 -0.0618 -0.3806 -0.3434
  610PEP     CB20690  17.130  22.241  15.198 -0.0299 -0.2738 -0.1872
  610PEP     CB20691  16.700  22.391  15.173  0.2392 -0.2196  0.2758
  610PEP     CB20692  16.369  22.241  15.034 -0.4960  0.1878  0.2980
  610PEP     CB20693  16.314  21.795  15.081 -0.1010  0.1303 -0.1730
  610PEP     CB20694  16.232  21.579  15.495 -0.4665 -0.1375  0.2490
  610PEP     CB20695  16.051  21.423  15.897  0.2345  0.5177 -0.1487
  610PEP     CB20696  15.774  21.172  16.176  0.0333  0.0563  0.3380
  610PEP     CB20697  15.539  20.942  16.547  0.2234  0.2290 -0.1700
  610PEP     CB20698  15.107  20.738  16.532  0.1426 -0.0335 -0.2382
  610PEP     CB20699  14.637  20.659  16.599 -0.1138 -0.2237 -0.2212
  610PEP     CB20700  14.213  20.573  16.627  0.5599  0.1233 -0.0966
  610PEP     CB20701  13.873  20.793  16.691  0.1189 -0.2163 -0.5091
  610PEP     CB20702  13.489  20.693  16.620 -0.3571  0.6901 -0.2071
  610PEP     CB20703  13.353  20.240  16.734  0.5250  0.3828  0.3516
  610PEP     CB20704  13.100  19.823  16.580 -0.2174  0.1983 -0.4799
  610PEP     CB20705  12.640  19.585  16.700  0.1034 -0.2978  0.3298
  610PEP     CB20706  12.294  19.457  16.821 -0.0496  0.2703  0.0615
  610PEP     CB20707  11.922  19.656  16.941 -0.0578  0.0911  0.0688
  610PEP     CB20708  11.685  19.976  17.001  0.1332 -0.2934  0.2580
  610PEP     CB20709  11.324  20.234  16.818  0.0952 -0.0845 -0.5307
  610PEP     CB20710  10.976  20.616  16.711  0.0671 -0.0580  0.2310
  610PEP     CB20711  10.923  21.000  16.505  0.0184 -0.0659  0.3885
  610PEP     CB20712  11.012  21.423  16.410 -0.1185  0.1491 -0.2190
  610PEP     CB20713  11.256  21.665  16.037 -0.2035 -0.1907 -0.1002
  610PEP     CB20714  11.148  22.102  15.846 -0.1431  0.2028  0.0706
  610PEP     CB20715  10.881  22.506  16.101 -0.0934 -0.1782  0.0114
  610PEP     CB20716  10.660  22.777  16.401  0.1893 -0.3696  0.0919
  610PEP     CB20717  10.544  23.131  16.411 -0.1894  0.2367  0.1194
  610PEP     CB20718  10.206  23.539  16.384 -0.1527  0.1419  0.2658
  610PEP     CB20719  10.003  23.943  16.286 -0.0788  0.4522  0.0439
  610PEP     CB20720   9.950  24.350  16.446 -0.0964  0.0529  0.2483
  611PEP     CB20721  20.011  12.323  14.344  0.0489 -0.1389  0.3896
  611PEP     CB20722  19.942  12.638  14.661 -0.2402  0.2006 -0.2655
  611PEP     CB20723  20.059  13.057  14.675  0.4245 -0.0483  0.0510
  611PEP     CB20724  20.181  13.473  14.374  0.1406 -0.2365  0.0541
  611PEP     CB20725  20.189  13.826  14.140  0.0977  0.0302  0.0036
  611PEP     CB20726  20.344  14.231  13.941  0.0864  0.0895  0.0739
  611PEP     CB20727  20.468  14.573  13.771  0.2772 -0.1036 -0.3279
  611PEP     CB20728  20.652  14.698  13.434  0.4150  0.4190 -0.3755
  611PEP     CB20729  20.866  14.462  13.150  0.2756  0.1192 -0.0803
  611PEP     CB20730  21.014  14.013  13.106 -0.1801  0.1898  0.4024
  611PEP     CB20731  20.944  13.593  12.913  0.1418  0.4009 -0.1972
  611PEP     CB20732  20.703  13.178  13.088 -0.1056  0.2810 -0.0747
  611PEP     CB20733  20.228  13.219  13.264  0.4016  0.1832  0.1119
  611PEP     CB20734  19.864  13.432  12.997 -0.1181 -0.3409 -0.3774
  611PEP     CB20735  20.001  13.557  12.580 -0.1408 -0.2892  0.0108
  611PEP     CB20736  20.050  13.735  12.149 -0.1730 -0.0406  0.2484
  611PEP     CB20737  19.991  14.122  11.923  0.0222 -0.5614 -0.1186
  611PEP     CB20738  19.986  14.516  11.682 -0.0415  0.0343  0.1649
  611PEP     CB20739  19.660  14.822  11.608 -0.2475  0.0135 -0.0786
  611PEP     CB20740  19.615  15.161  11.344  0.1211  0.5003  0.1812
  611PEP     CB20741  19.674  15.537  11.210  0.2067  0.1720 -0.3922
  611PEP     CB20742  19.578  15.977  10.999 -0.0468  0.1645  0.1265
  611PEP     CB20743  19.432  16.195  10.684 -0.0895 -0.0408  0.1630
  611PEP     CB20744  19.498  16.251  10.210 -0.0833 -0.0277 -0.0202
  611PEP     CB20745  19.573  16.130   9.812  0.2604 -0.1456  0.0405
  611PEP     CB20746  19.795  15.799   9.726  0.1544  0.1567  0.1656
  611PEP     CB20747  20.229  15.667   9.579 -0.2459  0.1676 -0.0888
  611PEP     CB20748  20.550  15.756   9.333 -0.3269  0.2949 -0.2492
  611PEP     CB20749  20.909  16.099   9.434 -0.0687 -0.0318 -0.0330
  611PEP     CB20750  20.970  16.526   9.504  0.0923  0.0556  0.1732
  611PEP     CB20751  20.886  16.890   9.723 -0.0679 -0.2786  0.0283
  611PEP     CB20752  20.575  16.925  10.034 -0.1051  0.1424 -0.0280
  611PEP     CB20753  20.459  16.511  10.242  0.2475 -0.1516 -0.0289
  611PEP     CB20754  20.635  16.333  10.654  0.1018  0.4166  0.1942
  611PEP     CB20755  20.885  16.638  10.909  0.4819  0.2219  0.1205
  611PEP     CB20756  21.215  16.760  10.825  0.1035  0.0374 -0.5176
  611PEP     CB20757  21.673  16.657  10.851  0.2065  0.1242 -0.1431
  611PEP     CB20758  21.986  16.358  10.996 -0.0897 -0.0940 -0.0718
  611PEP     CB20759  22.048  15.907  11.234 -0.0816  0.2601  0.0276
  611PEP     CB20760  22.179  15.696  11.503  0.3083  0.0029  0.0099
  612PEP     CB20761   9.401   6.363  14.723 -0.4429  0.0092  0.0966
  612PEP     CB20762   8.975   6.170  14.788  0.0676 -0.4940  0.0246
  612PEP     CB20763   8.589   6.080  14.815  0.0647 -0.0422  0.3025
  612PEP     CB20764   8.148   6.006  14.751  0.1220  0.1601 -0.4834
  612PEP     CB20765   7.936   5.962  14.386  0.5114  0.2774  0.3638
  612PEP     CB20766   7.924   5.882  13.939  0.0279  0.1459  0.0894
  612PEP     CB20767   7.625   5.901  13.641  0.1245 -0.1266 -0.0238
  612PEP     CB20768   7.266   6.142  13.504 -0.2699 -0.2360  0.1358
  612PEP     CB20769   6.971   6.452  13.702  0.0707  0.1121  0.1991
  612PEP     CB20770   6.617   6.726  13.846  0.0445  0.0190 -0.3619
  612PEP     CB20771   6.167   6.825  13.712 -0.1302 -0.2398  0.2117
  612PEP     CB20772   6.082   6.978  13.284  0.1465  0.2384  0.0712
  612PEP     CB20773   6.148   7.440  13.140  0.0034 -0.1744  0.3220
  612PEP     CB20774   6.235   7.788  13.506 -0.3756 -0.3813 -0.0116
  612PEP     CB20775   5.989   7.704  13.968 -0.3434  0.1859  0.2609
  612PEP     CB20776   5.834   7.359  14.258  0.1541  0.2631  0.1964
  612PEP     CB20777   5.481   7.197  14.377 -0.1821  0.0883  0.2329
  612PEP     CB20778   5.061   7.440  14.297 -0.1260 -0.6921 -0.1630
  612PEP     CB20779   4.973   7.935  14.290  0.1813 -0.3764 -0.0594
  612PEP     CB20780   5.167   8.242  14.081 -0.4022 -0.2033  0.0061
  612PEP     CB20781   5.540   8.353  14.032  0.1634  0.1501  0.1148
  612PEP     CB20782   5.860   8.221  14.339  0.1438 -0.2674  0.2451
  612PEP     CB20783   5.982   7.876  14.549  0.3710 -0.0656 -0.2633
  612PEP     CB20784   6.328   7.806  14.845  0.0935 -0.1818  0.2411
  612PEP     CB20785   6.372   7.815  15.373  0.2073 -0.0806  0.0600
  612PEP     CB20786   6.137   7.563  15.716 -0.4297 -0.2368 -0.2674
  612PEP     CB20787   5.843   7.302  15.683  0.2476 -0.0141  0.0823
  612PEP     CB20788   5.453   7.160  15.620 -0.0399  0.2082  0.1055
  612PEP     CB20789   5.108   7.117  15.342 -0.2916 -0.1449  0.3299
  612PEP     CB20790   4.676   7.179  15.277  0.0646 -0.0873 -0.0200
  612PEP     CB20791   4.366   6.942  15.443  0.7116  0.3776  0.0297
  612PEP     CB20792   4.181   6.515  15.274  0.0344  0.0508 -0.1691
  612PEP     CB20793   4.072   6.286  14.951 -0.5052  0.2907  0.1200
  612PEP     CB20794   4.030   6.142  14.554  0.2108 -0.2417  0.2841
  612PEP     CB20795   4.166   5.935  14.218 -0.5696 -0.1240  0.2059
  612PEP     CB20796   4.453   5.660  13.838 -0.0613 -0.2520 -0.2443
  612PEP     CB20797   4.831   5.799  13.607 -0.1085 -0.1035 -0.2048
  612PEP     CB20798   5.008   6.201  13.481  0.3867 -0.2821 -0.1713
  612PEP     CB20799   4.980   6.704  13.570  0.0122  0.0097 -0.0170
  612PEP     CB20800   5.274   7.020  13.458  0.1005 -0.2435  0.1435
  613PEP     CB20801   0.312  14.273  10.270 -0.3966 -0.4662  0.0485
  613PEP     CB20802   0.041  14.419   9.905  0.2306  0.0578  0.0551
  613PEP     CB20803  -0.192  14.367   9.485  0.3534  0.0377 -0.1458
  613PEP     CB20804  -0.393  14.132   9.244 -0.0780 -0.1420 -0.1639
  613PEP     CB20805  -0.413  13.862   8.818 -0.0612  0.3751 -0.3373
  613PEP     CB20806  -0.688  13.556   8.776 -0.0032  0.2422  0.1971
  613PEP     CB20807  -1.035  13.363   8.935  0.0337 -0.0315  0.0679
  613PEP     CB20808  -1.407  13.153   9.202 -0.1059 -0.0837 -0.0105
  613PEP     CB20809  -1.865  13.116   9.290  0.4197 -0.1468  0.1493
  613PEP     CB20810  -2.332  12.946   9.308  0.2397  0.3205  0.1662
  613PEP     CB20811  -2.727  12.690   9.250 -0.0003  0.0265 -0.0500
  613PEP     CB20812  -3.172  12.877   9.137  0.1983  0.2473 -0.2153
  613PEP     CB20813  -3.266  13.241   8.972 -0.3183  0.2414 -0.0541
  613PEP     CB20814  -3.405  13.484   8.706 -0.2567  0.1458 -0.0190
  613PEP     CB20815  -3.610  13.779   8.537  0.0828 -0.1435  0.2784
  613PEP     CB20816  -3.781  13.966   8.187 -0.1522 -0.0957  0.2111
  613PEP     CB20817  -4.038  14.230   7.911 -0.2541  0.0264 -0.5128
  613PEP     CB20818  -4.035  14.694   7.809  0.4428  0.0256  0.0617
  613PEP     CB20819  -3.842  15.062   7.982 -0.4772  0.3056 -0.0356
  613PEP     CB20820  -3.752  15.596   7.946  0.0037  0.3299  0.1759
  613PEP     CB20821  -3.377  15.840   7.852  0.3398  0.5026 -0.1157
  613PEP     CB20822  -3.029  15.610   7.816 -0.0762  0.2439 -0.4750
  613PEP     CB20823  -2.899  15.208   7.661 -0.1107 -0.1434 -0.2396
  613PEP     CB20824  -3.125  14.905   7.425 -0.1443  0.2374 -0.3933
  613PEP     CB20825  -3.303  14.984   7.110 -0.1383  0.0066 -0.1891
  613PEP     CB20826  -3.694  15.144   7.161  0.0359  0.0163  0.2719
  613PEP     CB20827  -3.935  15.251   7.546 -0.3620 -0.4581  0.0703
  613PEP     CB20828  -4.322  15.062   7.794 -0.3195  0.3083 -0.2224
  613PEP     CB20829  -4.581  14.913   8.037  0.5773  0.3019  0.0363
  613PEP     CB20830  -4.944  15.040   8.039 -0.1046  0.3699  0.1075
  613PEP     CB20831  -5.261  15.089   7.670 -0.1270 -0.0123  0.3578
  613PEP     CB20832  -5.110  15.063   7.258  0.0484 -0.0588 -0.1599
  613PEP     CB20833  -4.859  15.147   7.006  0.2043 -0.0677  0.2256
  613PEP     CB20834  -4.728  15.100   6.663 -0.2380  0.0217  0.1886
  613PEP     CB20835  -4.392  15.003   6.303 -0.2224 -0.2709 -0.2028
  613PEP     CB20836  -4.284  14.909   5.770 -0.0614  0.1586 -0.0601
  613PEP     CB20837  -4.228  14.805   5.423 -0.0717 -0.5684 -0.1334
  613PEP     CB20838  -4.386  14.457   5.073 -0.0490  0.1887 -0.2983
  613PEP     CB20839  -4.754  14.157   5.001  0.1398 -0.1260  0.1539
  613PEP     CB20840  -4.939  13.839   5.099  0.0018 -0.0462  0.0563
  614PEP     CB20841  21.552  10.692  16.340 -0.1161 -0.0434 -0.1576
  614PEP     CB20842  21.822  10.578  16.726  0.0334  0.1193  0.1758
  614PEP     CB20843  22.249  10.616  16.707  0.1037  0.4125  0.4367
  614PEP     CB20844  22.535  10.870  16.355 -0.0354  0.1646  0.1350
  614PEP     CB20845  22.484  11.315  16.260  0.0948  0.1341 -0.2333
  614PEP     CB20846  22.278  11.694  16.556 -0.5211 -0.0882 -0.3399
  614PEP     CB20847  22.038  11.504  16.941  0.1991 -0.0336 -0.1925
  614PEP     CB20848  21.996  11.034  17.205  0.1973 -0.3827 -0.0764
  614PEP     CB20849  21.885  10.619  17.270 -0.0220 -0.0726 -0.2501
  614PEP     CB20850  22.035  10.202  17.357 -0.0768 -0.4091  0.5320
  614PEP     CB20851  22.091   9.778  17.471  0.2698 -0.4028  0.2175
  614PEP     CB20852  21.957   9.472  17.768 -0.3040  0.4071 -0.0943
  614PEP     CB20853  21.633   9.343  17.934 -0.0897 -0.2893 -0.2358
  614PEP     CB20854  21.385   9.540  18.218 -0.0497 -0.0407 -0.0527
  614PEP     CB20855  21.328   9.636  18.624 -0.1352  0.1178  0.4190
  614PEP     CB20856  21.518   9.725  19.030  0.1214 -0.1735 -0.2454
  614PEP     CB20857  21.801   9.621  19.409  0.2354 -0.1865 -0.0719
  614PEP     CB20858  22.079   9.395  19.631  0.1425  0.4622 -0.3164
  614PEP     CB20859  22.333   9.481  19.981 -0.4756 -0.1324  0.1215
  614PEP     CB20860  22.725   9.610  20.188  0.3364  0.2472 -0.2906
  614PEP     CB20861  23.141   9.380  20.289  0.1892  0.2685  0.2120
  614PEP     CB20862  23.445   9.187  20.183 -0.0483 -0.3741 -0.0275
  614PEP     CB20863  23.788   8.948  20.107 -0.2323  0.0217  0.0800
  614PEP     CB20864  24.190   8.969  20.207 -0.4136 -0.0123 -0.1670
  614PEP     CB20865  24.470   9.316  20.529 -0.0191 -0.2153  0.0788
  614PEP     CB20866  24.302   9.725  20.667  0.1362 -0.0779  0.3706
  614PEP     CB20867  24.156   9.994  20.277 -0.1331 -0.1825  0.1896
  614PEP     CB20868  24.426   9.965  19.840 -0.3046  0.0020 -0.0803
  614PEP     CB20869  24.905   9.770  19.789 -0.0277  0.2770 -0.4810
  614PEP     CB20870  25.167   9.548  20.118 -0.2365 -0.2830  0.4161
  614PEP     CB20871  25.521   9.630  20.328  0.1289  0.5193 -0.2936
  614PEP     CB20872  25.799   9.982  20.179  0.0749 -0.3979 -0.0362
  614PEP     CB20873  25.748  10.192  19.736 -0.1907  0.2783 -0.1840
  614PEP     CB20874  25.385  10.377  19.561 -0.2158 -0.0492  0.0223
  614PEP     CB20875  25.070  10.443  19.288 -0.1105 -0.7972  0.3078
  614PEP     CB20876  24.696  10.469  19.115  0.5820 -0.0232  0.0716
  614PEP     CB20877  24.268  10.521  19.154  0.3382 -0.0559 -0.4075
  614PEP     CB20878  23.895  10.275  19.038 -0.3246  0.0402 -0.0369
  614PEP     CB20879  23.699  10.065  18.711 -0.1928 -0.0293  0.0361
  614PEP     CB20880  23.493  10.024  18.359  0.0768  0.1287  0.1457
  615PEP     CB20881  18.437  11.769  15.980  0.3985  0.0598 -0.0079
  615PEP     CB20882  18.557  12.213  15.964 -0.0301 -0.1247 -0.3343
  615PEP     CB20883  18.443  12.444  15.608 -0.3793 -0.1379 -0.1640
  615PEP     CB20884  18.274  12.294  15.206 -0.3138 -0.2711  0.4468
  615PEP     CB20885  18.112  11.846  15.159  0.0821  0.0508 -0.1670
  615PEP     CB20886  18.073  11.652  15.390 -0.1082 -0.1528  0.1418
  615PEP     CB20887  17.808  11.316  15.482  0.1642  0.0595  0.0028
  615PEP     CB20888  17.322  11.256  15.480 -0.2003  0.0679  0.3639
  615PEP     CB20889  16.887  11.075  15.557 -0.0509  0.0533 -0.0847
  615PEP     CB20890  16.619  10.780  15.781 -0.2679  0.2607 -0.1801
  615PEP     CB20891  16.566  10.633  16.290  0.0790 -0.1567 -0.3135
  615PEP     CB20892  16.785  10.419  16.645  0.1457 -0.1357 -0.0862
  615PEP     CB20893  16.922  10.505  17.078 -0.1037 -0.2287 -0.1743
  615PEP     CB20894  16.951  10.628  17.431  0.2475  0.0943 -0.3185
  615PEP     CB20895  17.113  10.934  17.702  0.0965  0.1172 -0.2860
  615PEP     CB20896  17.380  11.217  17.925  0.2102 -0.0411 -0.3405
  615PEP     CB20897  17.827  11.408  18.021  0.2639 -0.0493  0.2605
  615PEP     CB20898  18.265  11.346  17.973 -0.0541  0.0649 -0.2796
  615PEP     CB20899  18.491  11.013  18.156 -0.3682 -0.1360 -0.7748
  615PEP     CB20900  18.323  10.617  18.076  0.1767 -0.0267  0.3644
  615PEP     CB20901  17.895  10.365  17.969 -0.0045 -0.0972 -0.1852
  615PEP     CB20902  17.594  10.035  17.979  0.2389 -0.0067  0.1249
  615PEP     CB20903  17.269   9.735  17.883 -0.2655 -0.2119 -0.2759
  615PEP     CB20904  16.844   9.580  17.869 -0.0399 -0.1667  0.2933
  615PEP     CB20905  16.393   9.537  17.779  0.1076  0.0428  0.1257
  615PEP     CB20906  15.962   9.486  17.854 -0.0179  0.1670 -0.0162
  615PEP     CB20907  15.801   9.195  18.151  0.1204  0.2166 -0.1157
  615PEP     CB20908  15.960   9.026  18.566  0.0776 -0.4924  0.4692
  615PEP     CB20909  16.165   9.332  18.825 -0.1318  0.1041  0.4056
  615PEP     CB20910  16.227   9.794  18.682  0.2000 -0.3085  0.0493
  615PEP     CB20911  16.008   9.937  18.285  0.0592  0.0190 -0.1224
  615PEP     CB20912  15.674   9.795  18.150  0.0116 -0.0993 -0.2647
  615PEP     CB20913  15.423   9.650  17.754 -0.2931 -0.2577 -0.2935
  615PEP     CB20914  15.062   9.371  17.539  0.0795  0.2429 -0.0809
  615PEP     CB20915  14.631   9.239  17.592 -0.1097 -0.2651  0.2407
  615PEP     CB20916  14.393   8.942  17.888  0.1255 -0.3565  0.4883
  615PEP     CB20917  14.316   8.549  17.970 -0.1419 -0.4419 -0.0266
  615PEP     CB20918  14.040   8.280  18.040  0.3107 -0.1917  0.0340
  615PEP     CB20919  13.800   7.971  18.331 -0.2513 -0.0700 -0.1934
  615PEP     CB20920  13.706   7.774  18.704 -0.2727  0.2766  0.1063
  616PEP     CB20921  16.908  10.164   6.075 -0.2079 -0.3166  0.0344
  616PEP     CB20922  16.737   9.965   6.420 -0.0964  0.1644  0.0324
  616PEP     CB20923  16.415   9.657   6.610 -0.3531 -0.0303  0.2010
  616PEP     CB20924  15.956   9.731   6.687  0.3256 -0.2291 -0.1463
  616PEP     CB20925  15.551   9.882   6.783  0.3510  0.3201 -0.0430
  616PEP     CB20926  15.278  10.131   6.635 -0.0731  0.1021  0.1331
  616PEP     CB20927  14.971  10.271   6.368 -0.0029  0.2502 -0.0314
  616PEP     CB20928  14.800  10.392   6.048  0.4429 -0.4441  0.0844
  616PEP     CB20929  14.637  10.624   5.753 -0.2199  0.1274  0.3734
  616PEP     CB20930  14.743  11.051   5.558  0.4416 -0.0040  0.0488
  616PEP     CB20931  15.231  11.212   5.621  0.1754 -0.1724  0.4283
  616PEP     CB20932  15.628  10.933   5.490  0.3265 -0.1184 -0.3057
  616PEP     CB20933  15.890  10.645   5.481  0.0122  0.0406  0.4285
  616PEP     CB20934  16.316  10.406   5.597  0.4048  0.2708 -0.0727
  616PEP     CB20935  16.817  10.286   5.592  0.1439  0.2426  0.0336
  616PEP     CB20936  17.207  10.404   5.296  0.0913  0.8236  0.0542
  616PEP     CB20937  17.605  10.298   5.055 -0.2103 -0.2617  0.0584
  616PEP     CB20938  17.877  10.145   4.732  0.0964  0.0316 -0.0016
  616PEP     CB20939  18.143  10.096   4.402 -0.1588  0.1628 -0.0657
  616PEP     CB20940  18.470  10.240   4.060  0.1288  0.0375 -0.4103
  616PEP     CB20941  18.569   9.978   3.575 -0.1297  0.3384  0.4923
  616PEP     CB20942  18.468   9.475   3.542  0.2513  0.3104  0.2997
  616PEP     CB20943  18.261   9.230   3.855  0.2457 -0.4105  0.1905
  616PEP     CB20944  17.929   9.380   4.142  0.2736 -0.0770  0.0157
  616PEP     CB20945  17.646   9.789   4.240  0.0829 -0.3329  0.1451
  616PEP     CB20946  17.493  10.152   4.357 -0.0024 -0.1031 -0.5131
  616PEP     CB20947  17.122  10.384   4.686  0.0060 -0.0094 -0.0514
  616PEP     CB20948  16.826  10.191   4.969 -0.0723  0.2255 -0.0945
  616PEP     CB20949  16.557   9.929   5.250 -0.2867 -0.2174  0.0201
  616PEP     CB20950  16.501   9.573   5.293  0.2200  0.1731  0.0152
  616PEP     CB20951  16.160   9.280   5.072  0.0709 -0.1929 -0.1634
  616PEP     CB20952  15.829   9.291   4.872 -0.2538  0.2056  0.1682
  616PEP     CB20953  15.635   9.335   4.651 -0.4443  0.3683  0.0432
  616PEP     CB20954  15.371   9.247   4.228  0.2827  0.1520 -0.1866
  616PEP     CB20955  15.289   9.229   3.732 -0.0085 -0.1574  0.1946
  616PEP     CB20956  15.138   9.426   3.368  0.1671  0.0794 -0.1918
  616PEP     CB20957  14.787   9.375   3.207  0.1243 -0.1020  0.2137
  616PEP     CB20958  14.400   9.535   3.222 -0.3335  0.0636 -0.1685
  616PEP     CB20959  14.237   9.862   3.352  0.4712 -0.0930 -0.2406
  616PEP     CB20960  14.265  10.238   3.556 -0.1520  0.0936 -0.2799
  617PEP     CB20961   9.293  20.438  17.586  0.3179 -0.1463 -0.0391
  617PEP     CB20962   9.430  20.102  17.336  0.1401  0.2358 -0.0548
  617PEP     CB20963   9.503  19.711  17.015  0.2083 -0.0782  0.4158
  617PEP     CB20964   9.255  19.599  16.668 -0.4280 -0.1966 -0.0232
  617PEP     CB20965   9.232  19.298  16.352 -0.1527  0.0409  0.2390
  617PEP     CB20966   9.449  18.971  16.131  0.2052 -0.2086  0.0789
  617PEP     CB20967   9.663  18.652  16.239 -0.1349  0.3038  0.1456
  617PEP     CB20968   9.736  18.239  16.240 -0.4610  0.0513 -0.3403
  617PEP     CB20969   9.399  17.986  16.219  0.0767 -0.2698 -0.0931
  617PEP     CB20970   9.135  18.144  16.373  0.0802  0.4970 -0.3860
  617PEP     CB20971   8.788  18.445  16.465  0.3720 -0.1781 -0.2270
  617PEP     CB20972   8.418  18.665  16.412 -0.1608 -0.3858 -0.1170
  617PEP     CB20973   8.084  18.875  16.324  0.2478 -0.0773  0.1329
  617PEP     CB20974   7.686  19.048  16.517  0.2341 -0.0121 -0.0005
  617PEP     CB20975   7.446  19.359  16.717  0.0194 -0.0769 -0.3870
  617PEP     CB20976   7.242  19.695  17.015 -0.1774  0.1786 -0.2165
  617PEP     CB20977   7.145  20.107  17.201  0.3500 -0.1480  0.4666
  617PEP     CB20978   7.365  20.437  17.313 -0.4223  0.2811  0.3687
  617PEP     CB20979   7.714  20.646  17.128 -0.1423  0.0557 -0.0906
  617PEP     CB20980   8.035  20.484  16.957  0.0642 -0.1995  0.0479
  617PEP     CB20981   8.125  20.067  17.075 -0.9424  0.0656 -0.5770
  617PEP     CB20982   8.178  19.904  17.412 -0.2164  0.4076 -0.0169
  617PEP     CB20983   8.470  20.097  17.650  0.0250 -0.0041  0.0848
  617PEP     CB20984   8.730  20.490  17.590  0.2948  0.1199 -0.2224
  617PEP     CB20985   9.012  20.397  17.118 -0.2661  0.1616 -0.1286
  617PEP     CB20986   9.132  20.036  16.953 -0.3110  0.1633  0.0062
  617PEP     CB20987   8.996  19.612  17.145  0.2717  0.2579  0.0099
  617PEP     CB20988   8.664  19.518  17.517 -0.2961 -0.5387 -0.2343
  617PEP     CB20989   8.751  19.505  17.903 -0.0593 -0.0563  0.0941
  617PEP     CB20990   8.827  19.514  18.282 -0.2682 -0.3522 -0.1267
  617PEP     CB20991   8.857  19.547  18.820  0.1659  0.0178 -0.0574
  617PEP     CB20992   9.153  19.635  19.166 -0.1015  0.2671 -0.0399
  617PEP     CB20993   9.243  19.805  19.530  0.0893  0.3214 -0.0608
  617PEP     CB20994   9.247  19.566  19.914  0.2563  0.1704 -0.1959
  617PEP     CB20995   9.406  19.524  20.335 -0.5621  0.1465  0.0882
  617PEP     CB20996   9.459  19.825  20.656  0.0096 -0.4473  0.0568
  617PEP     CB20997   9.367  20.081  21.041  0.1192  0.1104 -0.1468
  617PEP     CB20998   9.560  20.182  21.430 -0.3336 -0.2043 -0.1848
  617PEP     CB20999   9.842  20.475  21.765  0.4276 -0.3162 -0.0764
  617PEP     CB21000   9.889  20.882  21.859 -0.0369 -0.0536 -0.0596
  618PEP     CB21001  11.886  21.126   2.495 -0.0744 -0.0574  0.3353
  618PEP     CB21002  12.367  21.198   2.490 -0.5300 -0.2334 -0.1255
  618PEP     CB21003  12.723  21.135   2.206 -0.0718  0.0896  0.1693
  618PEP     CB21004  12.857  21.431   1.940  0.2140 -0.0259  0.1012
  618PEP     CB21005  12.720  21.870   1.606 -0.0948 -0.3940 -0.1671
  618PEP     CB21006  12.555  22.125   1.339  0.0516 -0.1437  0.0192
  618PEP     CB21007  12.259  22.321   1.025 -0.3060 -0.2256  0.1649
  618PEP     CB21008  11.814  22.360   0.920  0.2860  0.0201  0.0087
  618PEP     CB21009  11.547  22.601   0.860 -0.0016 -0.0104 -0.3617
  618PEP     CB21010  11.177  22.716   1.011  0.0559 -0.0887  0.0434
  618PEP     CB21011  11.104  23.011   1.309 -0.3488 -0.3138  0.1142
  618PEP     CB21012  11.418  23.155   1.554  0.0745 -0.1636 -0.0485
  618PEP     CB21013  11.785  23.154   1.861  0.0641 -0.0975  0.3607
  618PEP     CB21014  11.916  22.770   1.923 -0.1224 -0.0199 -0.2740
  618PEP     CB21015  11.742  22.382   1.902  0.0765 -0.2276 -0.0894
  618PEP     CB21016  11.514  22.113   2.139 -0.1223  0.2092  0.3136
  618PEP     CB21017  11.482  21.925   2.576  0.0741 -0.1029 -0.2498
  618PEP     CB21018  11.464  21.414   2.522  0.2826  0.2931 -0.2240
  618PEP     CB21019  11.505  21.132   2.160 -0.0080 -0.5884 -0.2593
  618PEP     CB21020  11.614  20.751   2.010  0.3592 -0.0396 -0.0516
  618PEP     CB21021  11.705  20.588   1.644  0.3266 -0.1198  0.0435
  618PEP     CB21022  11.922  20.654   1.289  0.2390  0.2799 -0.1571
  618PEP     CB21023  12.246  20.846   1.030  0.0795 -0.0905 -0.0326
  618PEP     CB21024  12.693  21.057   0.976  0.2858 -0.3658  0.1257
  618PEP     CB21025  13.141  20.891   1.068  0.0085 -0.4862 -0.1575
  618PEP     CB21026  13.477  20.700   0.895 -0.1755 -0.1120 -0.1059
  618PEP     CB21027  13.517  20.468   0.493  0.0821  0.0542  0.4279
  618PEP     CB21028  13.230  20.167   0.368  0.0032 -0.4598  0.2154
  618PEP     CB21029  12.786  20.232   0.390  0.2545 -0.1266 -0.0287
  618PEP     CB21030  12.593  20.425   0.794  0.1174  0.1491  0.0525
  618PEP     CB21031  12.827  20.521   1.172 -0.4799  0.4418 -0.3560
  618PEP     CB21032  13.314  20.523   1.319 -0.2840  0.4270  0.1753
  618PEP     CB21033  13.670  20.754   1.567  0.1245 -0.1512 -0.0181
  618PEP     CB21034  13.924  21.153   1.647 -0.2520 -0.3174  0.6494
  618PEP     CB21035  14.199  21.439   1.888  0.1388  0.4054 -0.1701
  618PEP     CB21036  14.276  21.589   2.294  0.4440  0.2147 -0.2960
  618PEP     CB21037  14.152  21.964   2.639 -0.0583 -0.2391 -0.1213
  618PEP     CB21038  14.135  22.269   2.850 -0.1300 -0.3848  0.3791
  618PEP     CB21039  14.417  22.557   3.095  0.2558  0.4854  0.5277
  618PEP     CB21040  14.699  22.542   3.380  0.2362  0.2158 -0.1086
  619PEP     CB21041  12.623   6.976   2.419  0.0342 -0.1595 -0.1131
  619PEP     CB21042  12.387   7.392   2.524 -0.2798 -0.1324 -0.3144
  619PEP     CB21043  12.345   7.801   2.220 -0.1532 -0.2507 -0.1277
  619PEP     CB21044  12.498   8.219   2.224  0.4645  0.5008 -0.0112
  619PEP     CB21045  12.259   8.638   2.367  0.0847 -0.2313  0.1157
  619PEP     CB21046  11.757   8.701   2.312  0.0342 -0.2443 -0.1591
  619PEP     CB21047  11.449   8.508   2.081 -0.1759 -0.0670  0.6005
  619PEP     CB21048  11.011   8.402   1.922 -0.4616  0.0762  0.1921
  619PEP     CB21049  10.674   8.176   1.714  0.2743  0.4314  0.4855
  619PEP     CB21050  10.381   7.918   1.790 -0.1271 -0.3561  0.3949
  619PEP     CB21051  10.049   7.804   1.568 -0.0752  0.1872 -0.0154
  619PEP     CB21052   9.633   7.428   1.338  0.0134  0.0186  0.0259
  619PEP     CB21053   9.474   7.014   1.383 -0.0232 -0.0481  0.0366
  619PEP     CB21054   9.299   6.611   1.194  0.4715  0.0262  0.3514
  619PEP     CB21055   9.177   6.291   0.915  0.1323 -0.1177  0.0951
  619PEP     CB21056   8.973   5.880   0.983  0.1876 -0.4576 -0.0597
  619PEP     CB21057   9.061   5.501   1.116  0.4845  0.0698 -0.5245
  619PEP     CB21058   9.269   5.196   1.278  0.0486 -0.0662  0.0143
  619PEP     CB21059   9.275   4.798   1.467  0.2888 -0.2172 -0.1084
  619PEP     CB21060   9.280   4.415   1.655 -0.0347  0.0239 -0.0303
  619PEP     CB21061   9.080   4.094   1.713  0.2465 -0.1751  0.1594
  619PEP     CB21062   9.000   3.980   2.053  0.2243  0.3652 -0.0073
  619PEP     CB21063   9.155   4.045   2.477  0.1113 -0.3411 -0.0398
  619PEP     CB21064   9.293   4.420   2.641  0.1852 -0.4754 -0.1482
  619PEP     CB21065   9.240   4.793   2.462  0.0318  0.1472  0.0755
  619PEP     CB21066   8.887   4.878   2.219 -0.0129  0.0563  0.0057
  619PEP     CB21067   8.725   4.508   1.915  0.2863 -0.3090 -0.0005
  619PEP     CB21068   8.526   4.086   2.056  0.2559  0.2062  0.2166
  619PEP     CB21069   8.662   3.860   2.512  0.2967 -0.3758  0.0618
  619PEP     CB21070   9.024   3.563   2.769  0.1785  0.0384 -0.0278
  619PEP     CB21071   9.421   3.471   2.980  0.5278 -0.0109 -0.0652
  619PEP     CB21072   9.695   3.086   3.009  0.2726 -0.1016  0.2037
  619PEP     CB21073   9.703   2.815   2.623 -0.1696  0.4917 -0.0393
  619PEP     CB21074   9.318   2.715   2.376 -0.0082 -0.1967  0.2094
  619PEP     CB21075   8.888   2.797   2.620 -0.1574 -0.0478 -0.1500
  619PEP     CB21076   8.853   3.082   3.067 -0.1400 -0.5408 -0.1070
  619PEP     CB21077   8.728   3.404   3.259 -0.0868  0.3360  0.0358
  619PEP     CB21078   8.770   3.844   3.213 -0.2939 -0.0525  0.3763
  619PEP     CB21079   8.614   4.213   3.384 -0.2409  0.4912 -0.3296
  619PEP     CB21080   8.672   4.616   3.363 -0.5085 -0.1326  0.0611
  620PEP     CB21081   5.754   5.640   4.259  0.1424  0.0801 -0.0386
  620PEP     CB21082   5.694   5.186   4.386 -0.0454 -0.4704 -0.0306
  620PEP     CB21083   5.861   5.031   4.790 -0.0265 -0.0766  0.2330
  620PEP     CB21084   6.154   4.998   5.157  0.1472 -0.2708  0.4290
  620PEP     CB21085   6.595   4.937   5.315  0.3499  0.3405 -0.3470
  620PEP     CB21086   6.951   5.213   5.341 -0.2961  0.1238 -0.1579
  620PEP     CB21087   7.117   5.556   5.108 -0.0597 -0.0999  0.1869
  620PEP     CB21088   6.987   5.691   4.654  0.1171  0.0932 -0.1761
  620PEP     CB21089   6.790   5.423   4.297  0.0129 -0.4791 -0.2654
  620PEP     CB21090   6.632   5.257   3.903 -0.1142 -0.0888 -0.0434
  620PEP     CB21091   6.349   5.245   3.484  0.2248 -0.5683  0.3701
  620PEP     CB21092   5.940   5.227   3.364  0.2891 -0.0900 -0.3668
  620PEP     CB21093   5.572   5.438   3.254  0.2358 -0.2238 -0.0208
  620PEP     CB21094   5.374   5.759   3.177 -0.0645 -0.2278  0.1148
  620PEP     CB21095   5.286   6.261   3.122  0.1049  0.2816  0.0022
  620PEP     CB21096   5.373   6.678   2.947 -0.1943  0.0326  0.2003
  620PEP     CB21097   5.333   7.161   2.896 -0.0728  0.1025  0.2695
  620PEP     CB21098   5.069   7.502   3.063  0.0514 -0.1990  0.0472
  620PEP     CB21099   4.609   7.499   3.076  0.1241  0.1213  0.0403
  620PEP     CB21100   4.450   7.062   3.254  0.2340 -0.0755  0.2962
  620PEP     CB21101   4.535   6.907   3.614  0.4130  0.1074 -0.0374
  620PEP     CB21102   4.812   7.103   3.929 -0.1335  0.2117  0.2099
  620PEP     CB21103   4.872   7.589   4.073 -0.0099 -0.1032 -0.1632
  620PEP     CB21104   4.827   8.009   3.914 -0.2764  0.2872  0.2690
  620PEP     CB21105   4.953   8.537   4.063 -0.0367  0.0745  0.3313
  620PEP     CB21106   4.843   8.912   3.855 -0.1017  0.2054 -0.0276
  620PEP     CB21107   4.407   8.975   3.714  0.1265  0.2924  0.0353
  620PEP     CB21108   4.154   8.707   3.656  0.0861  0.4961 -0.2006
  620PEP     CB21109   4.052   8.248   3.684  0.2770  0.1785  0.0495
  620PEP     CB21110   3.848   7.884   3.409 -0.1019  0.0407  0.0729
  620PEP     CB21111   3.604   7.623   3.470 -0.1438  0.2271  0.0877
  620PEP     CB21112   3.510   7.189   3.686  0.6482 -0.0838  0.2635
  620PEP     CB21113   3.444   6.730   3.796 -0.2343 -0.0954 -0.1751
  620PEP     CB21114   3.601   6.283   3.857 -0.5266 -0.0515 -0.3952
  620PEP     CB21115   3.486   5.828   3.893  0.1385  0.1985 -0.0423
  620PEP     CB21116   3.093   5.593   4.083  0.1737  0.5783 -0.0888
  620PEP     CB21117   2.718   5.861   4.166  0.2546 -0.2617 -0.2622
  620PEP     CB21118   2.294   6.018   4.305 -0.0700 -0.3617 -0.2453
  620PEP     CB21119   1.904   5.922   4.122  0.1300 -0.0289  0.3693
  620PEP     CB21120   1.648   5.914   3.847  0.2495 -0.1890 -0.0266
  621PEP     CB21121  19.431  19.155  11.070 -0.0450 -0.1872 -0.1422
  621PEP     CB21122  19.600  19.525  11.176  0.1837 -0.2163  0.0881
  621PEP     CB21123  20.011  19.636  11.358 -0.0078  0.1655 -0.0396
  621PEP     CB21124  20.221  19.678  11.733  0.0463  0.0483 -0.4561
  621PEP     CB21125  20.064  19.792  12.138 -0.0217 -0.1455  0.0941
  621PEP     CB21126  20.004  20.045  12.473  0.2635 -0.0846 -0.5089
  621PEP     CB21127  19.651  20.058  12.717  0.1453  0.1211  0.0570
  621PEP     CB21128  19.276  19.731  12.649  0.2315 -0.1222 -0.0960
  621PEP     CB21129  18.975  19.417  12.469 -0.2051  0.2458 -0.0340
  621PEP     CB21130  19.106  19.054  12.368 -0.3045  0.1088 -0.2529
  621PEP     CB21131  19.445  18.917  11.997  0.3792 -0.0626 -0.4529
  621PEP     CB21132  19.794  18.640  11.892 -0.1381 -0.0559  0.2726
  621PEP     CB21133  20.018  18.229  11.944 -0.1698 -0.4011  0.4617
  621PEP     CB21134  19.949  17.868  11.876 -0.3505 -0.0541 -0.0874
  621PEP     CB21135  19.658  17.547  11.643  0.1784 -0.1135  0.2493
  621PEP     CB21136  19.375  17.179  11.518 -0.4768  0.0127 -0.4068
  621PEP     CB21137  19.373  16.836  11.170 -0.0406  0.0772 -0.1122
  621PEP     CB21138  19.425  16.780  10.734 -0.2156  0.3826  0.2339
  621PEP     CB21139  19.595  16.793  10.363  0.2607  0.1372  0.0590
  621PEP     CB21140  19.611  16.716   9.878  0.0964 -0.1215 -0.2715
  621PEP     CB21141  19.819  16.478   9.563 -0.3573  0.1123 -0.2300
  621PEP     CB21142  19.990  16.569   9.101 -0.2169  0.2112  0.0485
  621PEP     CB21143  19.806  16.743   8.787  0.0592 -0.1111  0.0758
  621PEP     CB21144  19.643  17.142   8.753  0.2737 -0.1452  0.0462
  621PEP     CB21145  19.336  17.333   8.933  0.1537 -0.0212  0.1415
  621PEP     CB21146  18.937  17.488   9.077 -0.0871 -0.4202 -0.1678
  621PEP     CB21147  18.799  17.787   9.364 -0.1025 -0.3502 -0.1027
  621PEP     CB21148  19.055  17.949   9.772  0.1296  0.1327 -0.3518
  621PEP     CB21149  19.225  18.149  10.061  0.0636 -0.0752 -0.2746
  621PEP     CB21150  19.111  18.356  10.468 -0.0624  0.0733 -0.4109
  621PEP     CB21151  18.792  18.304  10.844 -0.2456 -0.0429  0.2716
  621PEP     CB21152  18.431  18.035  10.887 -0.3086  0.1554  0.1291
  621PEP     CB21153  18.095  18.197  10.774  0.0371  0.0557 -0.1331
  621PEP     CB21154  17.937  18.549  10.491 -0.3664 -0.0537 -0.1325
  621PEP     CB21155  17.996  18.681  10.063  0.0008 -0.0358 -0.2158
  621PEP     CB21156  17.963  18.399   9.799 -0.1809  0.0955 -0.1415
  621PEP     CB21157  18.054  17.992   9.614  0.3951 -0.0417  0.1557
  621PEP     CB21158  17.839  17.574   9.652 -0.0735 -0.1305 -0.1531
  621PEP     CB21159  17.409  17.377   9.725  0.0167 -0.2009  0.4759
  621PEP     CB21160  17.071  17.347   9.984 -0.1865  0.2084 -0.2178
  622PEP     CB21161  12.728   0.730   0.851 -0.0754 -0.4456 -0.1344
  622PEP     CB21162  12.722   0.890   0.384 -0.3972  0.0797 -0.1923
  622PEP     CB21163  12.552   0.856   0.076  0.3055 -0.2618  0.0425
  622PEP     CB21164  12.249   0.766  -0.277 -0.0033  0.1125  0.1214
  622PEP     CB21165  12.031   0.794  -0.638 -0.4877 -0.3418  0.1239
  622PEP     CB21166  11.712   0.698  -0.949 -0.2987 -0.5287 -0.4485
  622PEP     CB21167  11.292   0.797  -1.110  0.5106 -0.0261 -0.2618
  622PEP     CB21168  10.880   0.944  -1.346  0.1805  0.0381  0.3325
  622PEP     CB21169  10.574   0.766  -1.668  0.2091  0.0169 -0.1606
  622PEP     CB21170  10.134   0.778  -1.732 -0.1843  0.1478  0.1782
  622PEP     CB21171   9.709   0.685  -1.653  0.3794 -0.3067  0.0854
  622PEP     CB21172   9.317   0.652  -1.368 -0.0352  0.1894 -0.0131
  622PEP     CB21173   9.036   0.365  -1.134 -0.0699 -0.3685 -0.0334
  622PEP     CB21174   8.701   0.158  -0.879 -0.1195 -0.1707  0.2726
  622PEP     CB21175   8.287   0.012  -0.860 -0.1644  0.2865  0.1363
  622PEP     CB21176   7.902  -0.046  -0.692 -0.0140  0.0787 -0.2114
  622PEP     CB21177   7.518  -0.144  -0.394  0.1217 -0.0020 -0.1560
  622PEP     CB21178   7.026  -0.214  -0.413 -0.0925  0.3932 -0.6745
  622PEP     CB21179   6.684  -0.499  -0.325 -0.2938 -0.0548  0.1191
  622PEP     CB21180   6.440  -0.783  -0.183 -0.3189  0.2158  0.2482
  622PEP     CB21181   5.981  -0.817  -0.124  0.2078 -0.3514  0.2682
  622PEP     CB21182   5.582  -0.579   0.077  0.4620 -0.3049  0.0541
  622PEP     CB21183   5.244  -0.495   0.356 -0.0054  0.0351 -0.2268
  622PEP     CB21184   4.953  -0.521   0.685  0.0678  0.1508 -0.2626
  622PEP     CB21185   4.626  -0.643   0.837 -0.1922  0.3337  0.1554
  622PEP     CB21186   4.200  -0.819   0.881 -0.1936  0.4857 -0.3452
  622PEP     CB21187   3.824  -1.043   0.990 -0.0417  0.1840 -0.1591
  622PEP     CB21188   3.416  -1.308   1.311 -0.3577  0.0932 -0.1610
  622PEP     CB21189   3.279  -1.646   1.488  0.0720  0.1949  0.0343
  622PEP     CB21190   3.354  -2.000   1.703 -0.1965  0.1666  0.0490
  622PEP     CB21191   3.202  -2.353   1.896  0.2210 -0.1416  0.1886
  622PEP     CB21192   3.242  -2.583   2.274 -0.2449 -0.1161 -0.2091
  622PEP     CB21193   3.526  -2.648   2.610  0.0860 -0.1549 -0.1228
  622PEP     CB21194   3.664  -2.647   3.022  0.1972  0.2346  0.3439
  622PEP     CB21195   3.826  -2.616   3.413 -0.1955 -0.1480  0.0297
  622PEP     CB21196   3.804  -2.768   3.736 -0.0146 -0.0522 -0.1012
  622PEP     CB21197   3.773  -3.172   3.909 -0.1047  0.0125 -0.2036
  622PEP     CB21198   3.759  -3.611   4.085 -0.0370 -0.3966 -0.0098
  622PEP     CB21199   3.563  -3.957   4.050  0.0172 -0.3403  0.3516
  622PEP     CB21200   3.254  -4.226   4.199 -0.0734  0.1849  0.0335
  623PEP     CB21201   2.016   0.150  17.450 -0.3181  0.1363  0.2190
  623PEP     CB21202   1.675   0.453  17.447  0.1354  0.1096 -0.1901
  623PEP     CB21203   1.250   0.407  17.557  0.1589 -0.0884  0.4339
  623PEP     CB21204   1.082   0.039  17.809 -0.1171  0.1586  0.2147
  623PEP     CB21205   1.286  -0.043  18.219 -0.2360 -0.2457  0.2357
  623PEP     CB21206   1.744   0.009  18.301 -0.1860 -0.1098  0.1414
  623PEP     CB21207   2.151  -0.114  18.083  0.0646 -0.4235 -0.4456
  623PEP     CB21208   2.573  -0.112  17.870  0.1503 -0.1798  0.4058
  623PEP     CB21209   3.027   0.002  17.873 -0.1679 -0.1274  0.2849
  623PEP     CB21210   3.262  -0.268  18.014 -0.1517  0.0666  0.0091
  623PEP     CB21211   3.260  -0.713  17.853  0.2805  0.0308  0.0258
  623PEP     CB21212   3.269  -0.891  17.397  0.1246  0.2936  0.2594
  623PEP     CB21213   3.575  -1.042  17.191  0.1774 -0.3265 -0.0041
  623PEP     CB21214   4.037  -1.293  17.219  0.5138 -0.0239 -0.4146
  623PEP     CB21215   4.498  -1.375  17.505 -0.1162 -0.1074  0.0806
  623PEP     CB21216   4.612  -1.097  17.832 -0.0973  0.3691 -0.0475
  623PEP     CB21217   4.782  -1.076  18.198 -0.0648 -0.2849 -0.2958
  623PEP     CB21218   4.946  -0.873  18.482  0.2850  0.1420 -0.3323
  623PEP     CB21219   5.111  -1.040  18.854  0.2205  0.2266  0.1690
  623PEP     CB21220   5.147  -1.063  19.279 -0.0095 -0.2579 -0.0617
  623PEP     CB21221   5.295  -1.010  19.693  0.1423  0.2062  0.0927
  623PEP     CB21222   5.835  -1.092  19.790  0.0297 -0.1128 -0.3147
  623PEP     CB21223   5.999  -1.387  19.464  0.0219 -0.1706 -0.0541
  623PEP     CB21224   6.168  -1.315  19.129 -0.0503 -0.1479  0.0332
  623PEP     CB21225   6.494  -1.088  18.862  0.2479  0.2173 -0.1427
  623PEP     CB21226   6.864  -0.984  18.676 -0.1777  0.1700 -0.2149
  623PEP     CB21227   7.107  -0.562  18.551  0.1864 -0.0104  0.1462
  623PEP     CB21228   6.856  -0.121  18.581  0.2045 -0.4442  0.3466
  623PEP     CB21229   6.533   0.065  18.728 -0.3166  0.1475  0.1142
  623PEP     CB21230   6.078  -0.007  18.642 -0.2583 -0.0488 -0.0668
  623PEP     CB21231   5.605  -0.166  18.627 -0.2183 -0.2535  0.1951
  623PEP     CB21232   5.256  -0.270  18.808  0.0760  0.0866 -0.0985
  623PEP     CB21233   4.815  -0.339  18.731  0.1224  0.2725  0.1328
  623PEP     CB21234   4.435  -0.427  18.933  0.1464 -0.0847 -0.1993
  623PEP     CB21235   4.288  -0.525  19.332 -0.5167  0.4415 -0.1729
  623PEP     CB21236   4.281  -0.471  19.749  0.4168  0.0072 -0.1031
  623PEP     CB21237   4.332  -0.697  20.120 -0.1285 -0.2511  0.2263
  623PEP     CB21238   4.707  -0.800  20.447 -0.3145 -0.1946 -0.1504
  623PEP     CB21239   5.112  -0.747  20.586 -0.3434 -0.2309  0.1347
  623PEP     CB21240   5.491  -0.551  20.793  0.1466 -0.0935 -0.0147
  624PEP     CB21241  11.228   6.094  19.696 -0.0590 -0.3190 -0.1087
  624PEP     CB21242  10.880   6.337  19.891 -0.4543  0.2021  0.2316
  624PEP     CB21243  10.741   6.484  20.345  0.2553  0.1643 -0.3060
  624PEP     CB21244  10.798   6.855  20.499  0.0143  0.1328  0.0293
  624PEP     CB21245  10.559   7.192  20.370  0.3196  0.2222  0.1822
  624PEP     CB21246  10.207   7.202  20.586  0.1939 -0.0661  0.1373
  624PEP     CB21247   9.866   6.832  20.800 -0.0875 -0.2460  0.0197
  624PEP     CB21248   9.625   6.844  21.159 -0.4111  0.1290 -0.2605
  624PEP     CB21249   9.451   7.385  21.219  0.0530 -0.5803  0.1998
  624PEP     CB21250   9.507   7.553  20.925 -0.0979  0.1935  0.0127
  624PEP     CB21251   9.300   7.692  20.509  0.0356 -0.1821 -0.0062
  624PEP     CB21252   8.919   7.641  20.200 -0.0458  0.0396 -0.1831
  624PEP     CB21253   8.424   7.549  20.118  0.0110  0.2777  0.2962
  624PEP     CB21254   8.199   7.206  19.909 -0.0583  0.1124  0.0190
  624PEP     CB21255   8.015   7.143  19.453  0.0920 -0.3086 -0.0027
  624PEP     CB21256   7.647   7.087  19.167 -0.0286  0.0746  0.2045
  624PEP     CB21257   7.330   7.316  19.033 -0.4029 -0.0710  0.2499
  624PEP     CB21258   7.149   7.640  18.906 -0.5678  0.1638 -0.1959
  624PEP     CB21259   6.929   8.057  18.741  0.2531  0.2411 -0.0493
  624PEP     CB21260   7.032   8.471  18.603  0.0825  0.0760  0.0828
  624PEP     CB21261   7.495   8.609  18.377  0.0899 -0.0685  0.1227
  624PEP     CB21262   7.870   8.516  18.143 -0.5025  0.1067 -0.0533
  624PEP     CB21263   8.245   8.397  17.873  0.0794 -0.0071 -0.1603
  624PEP     CB21264   8.652   8.506  17.826 -0.1347 -0.1697 -0.3048
  624PEP     CB21265   8.897   8.774  18.075  0.6755  0.0877  0.0347
  624PEP     CB21266   9.381   8.964  18.057  0.1362  0.0111 -0.2143
  624PEP     CB21267   9.565   9.364  18.058 -0.3136 -0.0015 -0.0150
  624PEP     CB21268   9.325   9.701  18.274 -0.1453  0.0037 -0.3356
  624PEP     CB21269   8.909   9.744  18.336  0.2248 -0.0990  0.0781
  624PEP     CB21270   8.583   9.464  18.248 -0.0390  0.0647 -0.1298
  624PEP     CB21271   8.513   9.301  17.893  0.1475  0.1305  0.0855
  624PEP     CB21272   8.739   9.073  17.626  0.0482  0.0651  0.3253
  624PEP     CB21273   9.141   8.878  17.621 -0.0736 -0.3546  0.1960
  624PEP     CB21274   9.603   8.853  17.554  0.1717 -0.3721 -0.0439
  624PEP     CB21275  10.070   8.926  17.522 -0.1211 -0.0333 -0.1752
  624PEP     CB21276  10.282   9.205  17.212  0.0660  0.3392  0.2451
  624PEP     CB21277   9.977   9.342  16.901  0.3500 -0.0383 -0.0602
  624PEP     CB21278   9.583   9.449  17.008  0.0567  0.3157  0.1526
  624PEP     CB21279   9.479   9.794  17.289  0.2963  0.1308 -0.0717
  624PEP     CB21280   9.714  10.111  17.609 -0.5032  0.2964  0.0050
  625PEP     CB21281   8.246   0.268  15.248 -0.1603 -0.1583 -0.2056
  625PEP     CB21282   8.364  -0.116  15.403 -0.0868  0.1110  0.2588
  625PEP     CB21283   8.471  -0.572  15.494 -0.0481  0.0754 -0.4297
  625PEP     CB21284   8.489  -1.011  15.589  0.2970 -0.1267 -0.0276
  625PEP     CB21285   8.261  -1.219  15.913  0.0024  0.1137 -0.2554
  625PEP     CB21286   7.814  -1.236  16.112 -0.1508  0.1266 -0.0709
  625PEP     CB21287   7.389  -1.168  15.905 -0.0131  0.0946 -0.0791
  625PEP     CB21288   7.279  -0.996  15.548  0.0737  0.0513 -0.3896
  625PEP     CB21289   6.988  -0.938  15.233 -0.3059  0.2871  0.0344
  625PEP     CB21290   6.616  -0.735  15.091 -0.1149 -0.4241  0.1571
  625PEP     CB21291   6.423  -0.354  15.017  0.0049 -0.2009  0.1021
  625PEP     CB21292   6.541  -0.027  14.703  0.0587 -0.0886  0.5214
  625PEP     CB21293   6.558   0.308  14.465  0.1722 -0.1584 -0.0651
  625PEP     CB21294   6.421   0.461  14.166 -0.2582 -0.1364  0.0032
  625PEP     CB21295   6.157   0.845  14.039 -0.1683  0.2771 -0.0935
  625PEP     CB21296   5.769   1.058  13.867 -0.1381 -0.3114  0.0075
  625PEP     CB21297   5.349   1.326  13.979 -0.0395 -0.2068 -0.0946
  625PEP     CB21298   5.119   1.387  14.270 -0.2565  0.1470 -0.3887
  625PEP     CB21299   5.071   1.657  14.595 -0.1828  0.6460 -0.5184
  625PEP     CB21300   5.346   1.594  14.909  0.1188 -0.0729 -0.0996
  625PEP     CB21301   5.802   1.691  14.841  0.1321 -0.0887  0.1001
  625PEP     CB21302   6.112   1.998  14.748  0.0713 -0.1378  0.0048
  625PEP     CB21303   6.384   2.349  14.790  0.0626 -0.1002  0.1615
  625PEP     CB21304   6.527   2.789  14.857 -0.2606 -0.0233 -0.3431
  625PEP     CB21305   6.719   3.129  15.164  0.0204 -0.0162 -0.0320
  625PEP     CB21306   7.034   3.146  15.502 -0.1918  0.0022 -0.2747
  625PEP     CB21307   7.169   3.027  15.946  0.2322  0.2095 -0.2281
  625PEP     CB21308   7.435   2.944  16.274 -0.5401 -0.0437  0.0523
  625PEP     CB21309   7.730   3.290  16.339  0.0657 -0.0535 -0.1651
  625PEP     CB21310   7.582   3.725  16.373  0.1279 -0.1484 -0.2602
  625PEP     CB21311   7.412   3.970  16.751  0.1676 -0.4190  0.1086
  625PEP     CB21312   7.540   3.847  17.192  0.0281 -0.2007  0.4251
  625PEP     CB21313   7.911   3.633  17.220 -0.3128 -0.0976  0.0820
  625PEP     CB21314   8.324   3.651  16.992 -0.0033  0.2465 -0.0590
  625PEP     CB21315   8.407   3.966  16.648 -0.2144 -0.1671 -0.0563
  625PEP     CB21316   8.538   3.900  16.298 -0.2360  0.1557 -0.0834
  625PEP     CB21317   8.628   3.493  16.126  0.1327 -0.2983  0.1265
  625PEP     CB21318   8.367   3.140  16.098 -0.0662  0.0346  0.0483
  625PEP     CB21319   7.971   3.052  16.025 -0.0862  0.1612  0.0278
  625PEP     CB21320   7.636   2.722  15.779  0.0326  0.1202 -0.4036
  626PEP     CB21321  17.573   3.510  15.949  0.2176 -0.1688  0.0249
  626PEP     CB21322  17.245   3.694  15.723 -0.4178  0.1881 -0.1557
  626PEP     CB21323  17.054   4.071  15.522 -0.3486 -0.1124  0.0503
  626PEP     CB21324  17.033   4.465  15.575 -0.0517 -0.3091 -0.2261
  626PEP     CB21325  17.110   4.801  15.775 -0.0356  0.0299  0.1179
  626PEP     CB21326  17.203   5.177  15.990 -0.4442 -0.0663  0.1326
  626PEP     CB21327  17.368   5.556  15.829  0.1694 -0.1918  0.3400
  626PEP     CB21328  17.649   5.758  15.911  0.0459 -0.0093 -0.0035
  626PEP     CB21329  17.791   6.122  15.836 -0.1333  0.0116  0.0481
  626PEP     CB21330  17.767   6.580  15.833  0.0418  0.0833  0.1471
  626PEP     CB21331  18.032   6.955  15.720 -0.0346  0.0119  0.2190
  626PEP     CB21332  18.073   7.111  15.290 -0.2027  0.0979  0.0059
  626PEP     CB21333  18.096   7.252  14.846 -0.1104  0.3531  0.3139
  626PEP     CB21334  17.866   7.424  14.433 -0.1628  0.0155 -0.1003
  626PEP     CB21335  17.651   7.593  14.044 -0.0192 -0.1234  0.2275
  626PEP     CB21336  17.704   7.566  13.542 -0.2609 -0.2784  0.2385
  626PEP     CB21337  17.698   7.267  13.216 -0.4639  0.2808 -0.1715
  626PEP     CB21338  17.619   6.853  13.093 -0.0009 -0.3332 -0.2701
  626PEP     CB21339  17.487   6.430  13.120  0.2063  0.1754  0.0832
  626PEP     CB21340  17.680   6.063  13.217 -0.1552  0.0085 -0.0326
  626PEP     CB21341  17.845   5.693  13.193  0.2622  0.0536 -0.0234
  626PEP     CB21342  17.789   5.282  13.366  0.0616  0.3155 -0.0013
  626PEP     CB21343  17.776   4.795  13.512  0.2931  0.1086 -0.1208
  626PEP     CB21344  17.856   4.521  13.890  0.0649  0.0479  0.3148
  626PEP     CB21345  17.584   4.265  14.271  0.4431  0.1225 -0.2207
  626PEP     CB21346  17.211   4.245  14.396  0.1567 -0.3242 -0.1999
  626PEP     CB21347  16.735   4.172  14.542 -0.3146 -0.3143 -0.2482
  626PEP     CB21348  16.582   4.114  14.980  0.1291 -0.2339 -0.2653
  626PEP     CB21349  16.509   3.889  15.307 -0.0294  0.1815 -0.3027
  626PEP     CB21350  16.259   3.768  15.574 -0.3489  0.5054  0.3292
  626PEP     CB21351  15.826   3.911  15.417 -0.0746 -0.2396 -0.3104
  626PEP     CB21352  15.735   3.960  15.045 -0.3002  0.0932 -0.1316
  626PEP     CB21353  15.765   3.997  14.642 -0.0449 -0.0969 -0.1670
  626PEP     CB21354  15.883   3.589  14.428  0.1054  0.3635  0.3549
  626PEP     CB21355  15.908   3.251  14.180 -0.3225  0.1403 -0.0244
  626PEP     CB21356  16.274   2.958  13.959  0.2601  0.2105  0.0449
  626PEP     CB21357  16.715   2.956  14.112 -0.0585  0.1248  0.1822
  626PEP     CB21358  16.899   3.364  14.268 -0.1168  0.1885  0.2329
  626PEP     CB21359  16.765   3.629  14.527 -0.1160 -0.0576  0.0684
  626PEP     CB21360  16.354   3.781  14.667 -0.0485 -0.2618 -0.1575
  627PEP     CB21361   8.797  18.447   5.863  0.1338  0.2650  0.4615
  627PEP     CB21362   8.769  18.101   5.708 -0.4334  0.3812 -0.0136
  627PEP     CB21363   8.555  17.732   5.853 -0.2109  0.1921  0.4011
  627PEP     CB21364   8.192  17.537   5.920  0.2470  0.0788  0.3853
  627PEP     CB21365   7.874  17.542   6.215 -0.0843 -0.1244 -0.3284
  627PEP     CB21366   7.407  17.471   6.394 -0.1244  0.0125  0.0725
  627PEP     CB21367   7.008  17.721   6.502 -0.1975 -0.1004 -0.1615
  627PEP     CB21368   6.616  17.922   6.320  0.1126 -0.4041  0.1836
  627PEP     CB21369   6.275  18.169   6.162 -0.1058  0.2837 -0.3344
  627PEP     CB21370   6.102  18.485   6.035  0.0542 -0.0673 -0.4668
  627PEP     CB21371   6.224  18.828   5.890 -0.0124  0.2657  0.1198
  627PEP     CB21372   6.164  19.318   5.826 -0.2607 -0.0912 -0.0609
  627PEP     CB21373   5.970  19.728   5.907  0.2023 -0.0060 -0.0664
  627PEP     CB21374   5.645  19.850   6.199  0.0344  0.0107  0.4452
  627PEP     CB21375   5.317  19.937   6.522  0.0044 -0.0383  0.1753
  627PEP     CB21376   4.886  19.949   6.426  0.1340 -0.0991 -0.2383
  627PEP     CB21377   4.460  19.831   6.379  0.4557 -0.0339 -0.0888
  627PEP     CB21378   4.231  19.646   6.744  0.2537 -0.1261  0.1275
  627PEP     CB21379   3.942  19.310   6.994 -0.1504  0.2379 -0.1049
  627PEP     CB21380   4.011  18.890   7.112 -0.0130  0.1808  0.0483
  627PEP     CB21381   4.072  18.599   6.886 -0.1049 -0.2066 -0.0845
  627PEP     CB21382   4.275  18.528   6.458  0.2068 -0.0746  0.3103
  627PEP     CB21383   4.193  18.615   6.019 -0.3908  0.1297  0.1818
  627PEP     CB21384   3.926  18.657   5.622 -0.2239  0.2071  0.1417
  627PEP     CB21385   3.741  18.902   5.196  0.1068  0.0845 -0.0609
  627PEP     CB21386   3.680  19.307   5.171 -0.3573  0.1836  0.1741
  627PEP     CB21387   3.311  19.526   5.260  0.2627  0.1243  0.1655
  627PEP     CB21388   2.993  19.363   5.264  0.2995 -0.0433  0.1191
  627PEP     CB21389   2.747  19.211   4.952 -0.0197 -0.2087  0.0494
  627PEP     CB21390   2.503  18.853   4.759  0.2380  0.0064  0.1089
  627PEP     CB21391   2.128  18.602   4.921 -0.1764  0.2839 -0.1230
  627PEP     CB21392   2.119  18.430   5.364 -0.0654  0.1084  0.0514
  627PEP     CB21393   1.919  18.202   5.679 -0.0757  0.2843  0.5192
  627PEP     CB21394   1.618  17.935   5.680  0.0412 -0.1064  0.2862
  627PEP     CB21395   1.287  17.664   5.794 -0.2657 -0.1716  0.0611
  627PEP     CB21396   0.866  17.594   5.874  0.0852 -0.1292  0.0567
  627PEP     CB21397   0.559  17.684   6.155 -0.1976  0.1676 -0.0876
  627PEP     CB21398   0.337  17.956   6.399  0.3079  0.3091  0.1577
  627PEP     CB21399   0.124  18.274   6.525 -0.3142 -0.0346 -0.0545
  627PEP     CB21400  -0.254  18.504   6.640 -0.1514 -0.1997  0.0696
  628PEP     CB21401   2.293   3.848   5.522  0.1249  0.0030 -0.4036
  628PEP     CB21402   2.715   3.976   5.552 -0.1226 -0.1002 -0.0271
  628PEP     CB21403   3.120   4.193   5.541  0.1615 -0.5087  0.2925
  628PEP     CB21404   3.502   4.196   5.568  0.3270 -0.4745 -0.1360
  628PEP     CB21405   3.865   3.947   5.395  0.0198 -0.2336 -0.2182
  628PEP     CB21406   3.917   3.885   4.964 -0.0373 -0.0545 -0.0288
  628PEP     CB21407   3.999   4.100   4.632 -0.1108 -0.0654  0.3031
  628PEP     CB21408   3.869   4.308   4.258  0.0015  0.2525 -0.2427
  628PEP     CB21409   3.927   4.350   3.780 -0.0577 -0.3674 -0.1434
  628PEP     CB21410   3.629   4.418   3.446  0.2916 -0.1189  0.2672
  628PEP     CB21411   3.211   4.451   3.540  0.1548 -0.0593 -0.3321
  628PEP     CB21412   3.085   4.769   3.869 -0.0384  0.1260 -0.0883
  628PEP     CB21413   3.299   5.094   4.002  0.1166  0.1702 -0.1520
  628PEP     CB21414   3.624   5.381   3.840 -0.3183  0.0827 -0.2380
  628PEP     CB21415   3.821   5.648   3.538  0.0650 -0.1700 -0.1494
  628PEP     CB21416   4.083   5.644   3.113 -0.1313  0.1964 -0.0205
  628PEP     CB21417   4.306   5.313   2.909  0.1220 -0.5600 -0.0440
  628PEP     CB21418   4.181   4.894   2.869  0.2956 -0.3305 -0.0352
  628PEP     CB21419   3.758   4.763   2.976  0.0792 -0.0826 -0.3260
  628PEP     CB21420   3.397   4.762   3.144  0.3892  0.0680  0.1701
  628PEP     CB21421   3.044   4.987   3.400  0.3634 -0.1928  0.5825
  628PEP     CB21422   2.896   5.290   3.749  0.2429 -0.0706  0.1463
  628PEP     CB21423   2.595   5.437   3.954 -0.2666 -0.1783  0.0185
  628PEP     CB21424   2.190   5.349   3.892  0.1117  0.1698  0.1351
  628PEP     CB21425   1.987   5.316   3.526 -0.0409 -0.0823 -0.2565
  628PEP     CB21426   1.612   5.181   3.474  0.2708 -0.0200  0.1396
  628PEP     CB21427   1.329   5.131   3.738  0.3289  0.3454 -0.3045
  628PEP     CB21428   1.175   5.209   4.202 -0.0308 -0.1656 -0.1635
  628PEP     CB21429   1.149   4.927   4.500 -0.1833 -0.0149  0.1126
  628PEP     CB21430   1.196   4.473   4.599  0.0557 -0.1527  0.3034
  628PEP     CB21431   1.260   4.116   4.341  0.0144  0.0308 -0.1235
  628PEP     CB21432   1.606   3.936   4.161 -0.1039 -0.3607  0.0863
  628PEP     CB21433   2.010   3.789   4.024 -0.2011 -0.1933 -0.0328
  628PEP     CB21434   2.403   3.565   3.974  0.0915  0.2593 -0.3439
  628PEP     CB21435   2.757   3.375   4.188  0.0659 -0.1013  0.1919
  628PEP     CB21436   3.164   3.280   4.441 -0.1315  0.0507  0.1916
  628PEP     CB21437   3.606   3.292   4.223 -0.0012  0.1495 -0.0321
  628PEP     CB21438   3.602   3.389   3.757 -0.0303 -0.2534 -0.2831
  628PEP     CB21439   3.293   3.338   3.460  0.0315  0.0239  0.1029
  628PEP     CB21440   3.010   3.161   3.123 -0.1071 -0.5501  0.0229
  629PEP     CB21441  16.497  19.012  16.712 -0.2871  0.0995 -0.1467
  629PEP     CB21442  16.260  18.722  16.719 -0.1602  0.0642  0.2133
  629PEP     CB21443  16.273  18.232  16.650 -0.1045 -0.1648  0.3356
  629PEP     CB21444  16.622  18.101  16.506 -0.3678 -0.1529 -0.1532
  629PEP     CB21445  17.059  18.170  16.491 -0.6112 -0.0503  0.2196
  629PEP     CB21446  17.409  17.730  16.443  0.0965 -0.1456 -0.1017
  629PEP     CB21447  17.360  17.427  16.153 -0.2880  0.0040 -0.0288
  629PEP     CB21448  17.153  17.253  15.831  0.0517 -0.3948 -0.0506
  629PEP     CB21449  17.211  16.824  15.729  0.1412  0.0601 -0.3998
  629PEP     CB21450  16.818  16.566  15.807 -0.0480  0.1512  0.2171
  629PEP     CB21451  16.448  16.757  15.850  0.1817 -0.1340 -0.1087
  629PEP     CB21452  16.108  16.919  16.074  0.1085  0.1901 -0.3244
  629PEP     CB21453  15.864  17.226  16.079  0.0586  0.1644 -0.0666
  629PEP     CB21454  15.624  17.344  15.665  0.0497  0.2134 -0.3134
  629PEP     CB21455  15.789  17.423  15.359 -0.2097 -0.6546 -0.1444
  629PEP     CB21456  16.191  17.340  15.166  0.1533  0.0263 -0.1872
  629PEP     CB21457  16.363  17.242  14.890  0.0696 -0.4619  0.1384
  629PEP     CB21458  16.498  17.167  14.462 -0.0400  0.1658  0.2036
  629PEP     CB21459  16.483  17.540  14.185 -0.1123 -0.1174  0.0696
  629PEP     CB21460  16.801  17.929  14.242  0.0557  0.0017 -0.1706
  629PEP     CB21461  17.176  17.961  14.301  0.2206  0.2659  0.0536
  629PEP     CB21462  17.441  17.829  14.019  0.4794 -0.1272 -0.0080
  629PEP     CB21463  17.496  17.520  13.620  0.0650  0.3597  0.3858
  629PEP     CB21464  17.267  17.180  13.512  0.2180  0.0382 -0.2240
  629PEP     CB21465  16.929  16.920  13.495 -0.1227 -0.1583 -0.2720
  629PEP     CB21466  16.537  16.708  13.615  0.2953  0.1129  0.2227
  629PEP     CB21467  16.195  16.721  13.765  0.2519 -0.0733 -0.0906
  629PEP     CB21468  15.901  16.979  14.005 -0.0252  0.0074 -0.1193
  629PEP     CB21469  15.968  17.414  14.156 -0.4349 -0.1524  0.2241
  629PEP     CB21470  15.800  17.887  14.166 -0.0924 -0.2509 -0.5811
  629PEP     CB21471  15.502  18.161  13.842  0.2503 -0.0183  0.0705
  629PEP     CB21472  15.084  18.033  13.683  0.3513 -0.0916 -0.3564
  629PEP     CB21473  14.741  17.705  13.655  0.1299 -0.2036 -0.1942
  629PEP     CB21474  14.597  17.379  14.006 -0.2299 -0.1950 -0.1828
  629PEP     CB21475  14.476  16.994  14.173 -0.0844  0.1802  0.1885
  629PEP     CB21476  14.229  16.728  14.403  0.0758 -0.3413 -0.4034
  629PEP     CB21477  13.751  16.570  14.560  0.3440  0.1850 -0.3947
  629PEP     CB21478  13.339  16.609  14.436  0.3983  0.3680  0.1309
  629PEP     CB21479  12.911  16.791  14.403 -0.1855  0.1722 -0.2504
  629PEP     CB21480  12.565  16.876  14.414 -0.3960 -0.0610  0.3722
  630PEP     CB21481  19.925   4.020   0.238 -0.5410  0.0061  0.5489
  630PEP     CB21482  19.716   3.667   0.163 -0.2915 -0.0693  0.0614
  630PEP     CB21483  19.596   3.285   0.285  0.1506 -0.5223 -0.1214
  630PEP     CB21484  19.284   3.071   0.389 -0.4062 -0.2145 -0.0593
  630PEP     CB21485  18.989   2.675   0.516  0.2414  0.0276  0.0439
  630PEP     CB21486  19.062   2.323   0.780 -0.0752 -0.1736  0.0742
  630PEP     CB21487  19.281   2.428   1.151  0.1269  0.0798  0.1531
  630PEP     CB21488  19.516   2.765   1.216  0.1977  0.0083  0.0357
  630PEP     CB21489  19.644   3.206   1.203  0.1165  0.1037 -0.2052
  630PEP     CB21490  19.717   3.650   1.268  0.2560  0.2068  0.1684
  630PEP     CB21491  19.554   4.142   1.269  0.2051 -0.1227  0.3285
  630PEP     CB21492  19.618   4.576   1.444 -0.1250  0.0288  0.0967
  630PEP     CB21493  19.566   4.955   1.596  0.0031 -0.0085 -0.1009
  630PEP     CB21494  19.534   5.186   1.851  0.1201 -0.1026 -0.3253
  630PEP     CB21495  19.292   5.383   2.152  0.0183  0.5344  0.4096
  630PEP     CB21496  18.915   5.538   2.342 -0.0316 -0.5354 -0.1712
  630PEP     CB21497  18.656   5.496   2.795  0.4163 -0.2895  0.0128
  630PEP     CB21498  18.711   5.479   3.230 -0.1905  0.1124  0.1638
  630PEP     CB21499  19.002   5.475   3.538  0.0659  0.1787  0.1151
  630PEP     CB21500  19.351   5.380   3.893  0.0867 -0.2087  0.0773
  630PEP     CB21501  19.591   5.006   4.027  0.0751  0.0086 -0.0808
  630PEP     CB21502  19.488   4.786   4.285  0.2628 -0.0749  0.0441
  630PEP     CB21503  19.115   4.621   4.465  0.0748  0.2978  0.2767
  630PEP     CB21504  18.808   4.621   4.810 -0.1517 -0.2390  0.3253
  630PEP     CB21505  18.528   4.940   5.009  0.6835  0.1820  0.3787
  630PEP     CB21506  18.636   5.192   5.286  0.2257  0.1979 -0.1907
  630PEP     CB21507  19.004   5.390   5.306  0.1339 -0.1512 -0.1872
  630PEP     CB21508  19.234   5.546   4.922  0.3462 -0.0451 -0.0416
  630PEP     CB21509  19.104   5.717   4.482  0.0458 -0.3979  0.1555
  630PEP     CB21510  18.688   5.674   4.413 -0.3916 -0.2002 -0.2318
  630PEP     CB21511  18.488   5.417   4.823 -0.1492  0.3055 -0.2620
  630PEP     CB21512  18.616   5.719   5.226 -0.0444  0.3301  0.2007
  630PEP     CB21513  18.709   6.117   5.123 -0.1919 -0.0098  0.1399
  630PEP     CB21514  18.441   6.302   4.905 -0.1149  0.1916 -0.0204
  630PEP     CB21515  18.173   6.421   4.578  0.1915 -0.1197 -0.2984
  630PEP     CB21516  17.914   6.267   4.263  0.2554 -0.1268 -0.2078
  630PEP     CB21517  17.857   5.798   4.184  0.1407 -0.1545 -0.1818
  630PEP     CB21518  18.114   5.514   4.380 -0.0607 -0.1183  0.2756
  630PEP     CB21519  18.147   4.994   4.521  0.1830  0.2700  0.1553
  630PEP     CB21520  18.003   4.641   4.580  0.0780 -0.2082  0.1864
  631PEP     CB21521  11.842  16.923  21.901 -0.3342  0.1952  0.3554
  631PEP     CB21522  11.941  16.569  21.647 -0.3565  0.1828 -0.0540
  631PEP     CB21523  11.946  16.258  21.371  0.0610  0.3029 -0.2071
  631PEP     CB21524  11.911  15.861  21.082 -0.2610  0.0820  0.0946
  631PEP     CB21525  11.729  15.517  20.893 -0.3622 -0.0677  0.0879
  631PEP     CB21526  11.692  15.175  20.562 -0.3306 -0.2540  0.4991
  631PEP     CB21527  11.712  15.226  20.198 -0.3599 -0.0189 -0.0117
  631PEP     CB21528  11.531  15.612  19.986 -0.2471  0.1955 -0.0465
  631PEP     CB21529  11.376  15.986  20.238 -0.0716  0.3998 -0.0670
  631PEP     CB21530  11.583  16.098  20.655  0.1115 -0.1110  0.2679
  631PEP     CB21531  11.983  16.199  20.689  0.3752 -0.2316  0.0352
  631PEP     CB21532  12.241  16.528  20.577 -0.0524 -0.3311  0.0084
  631PEP     CB21533  12.638  16.484  20.362  0.0596 -0.1860 -0.0756
  631PEP     CB21534  12.885  16.156  20.132  0.5905  0.0043  0.0226
  631PEP     CB21535  13.166  15.729  20.171 -0.2143  0.0990  0.1527
  631PEP     CB21536  13.171  15.314  19.949 -0.3989 -0.0050  0.0443
  631PEP     CB21537  12.961  15.011  19.911  0.0851  0.1659 -0.1385
  631PEP     CB21538  12.722  14.863  20.246 -0.2128  0.1208 -0.4249
  631PEP     CB21539  12.408  14.920  20.578  0.3065 -0.1086 -0.0199
  631PEP     CB21540  12.322  14.740  20.979 -0.0559  0.1090  0.2456
  631PEP     CB21541  12.588  14.576  21.358  0.0198 -0.0392  0.0766
  631PEP     CB21542  12.705  14.924  21.688 -0.1046 -0.0737  0.2744
  631PEP     CB21543  12.450  15.202  21.963  0.5355 -0.4194  0.2215
  631PEP     CB21544  12.191  15.541  22.088  0.2204 -0.3221 -0.0803
  631PEP     CB21545  11.838  15.692  22.200  0.2392 -0.1146  0.2346
  631PEP     CB21546  11.466  15.644  22.014 -0.2891 -0.2626  0.2184
  631PEP     CB21547  11.341  15.344  21.808  0.0153 -0.3629 -0.3206
  631PEP     CB21548  11.298  14.933  21.734  0.2133 -0.2781 -0.0499
  631PEP     CB21549  11.121  14.564  21.533 -0.5367  0.1472  0.1319
  631PEP     CB21550  10.822  14.258  21.675 -0.2322  0.1092  0.2514
  631PEP     CB21551  10.887  14.027  22.055 -0.0483  0.1425  0.1860
  631PEP     CB21552  11.368  13.779  22.083  0.2101 -0.0955  0.1624
  631PEP     CB21553  11.803  13.763  22.101  0.4026  0.1939  0.3645
  631PEP     CB21554  12.157  13.776  22.316  0.0267  0.2605  0.0862
  631PEP     CB21555  12.543  13.572  22.269 -0.1138 -0.1208 -0.2939
  631PEP     CB21556  12.732  13.271  22.077  0.3003  0.0377  0.1774
  631PEP     CB21557  12.996  13.027  21.772 -0.0137 -0.0630 -0.0556
  631PEP     CB21558  13.132  13.049  21.346 -0.0044  0.3283 -0.0423
  631PEP     CB21559  13.383  13.249  21.055  0.0944 -0.2191  0.3410
  631PEP     CB21560  13.733  13.528  20.976 -0.0823 -0.2379 -0.4056
  632PEP     CB21561   2.496  19.204  10.358  0.0584  0.0646  0.4921
  632PEP     CB21562   2.685  18.882  10.083  0.2208 -0.0383  0.2804
  632PEP     CB21563   2.835  18.693   9.682  0.1608 -0.0552  0.1662
  632PEP     CB21564   2.830  18.659   9.190 -0.3204 -0.0801 -0.2688
  632PEP     CB21565   2.678  18.831   8.823 -0.0547 -0.0254 -0.0383
  632PEP     CB21566   2.701  18.998   8.394 -0.3070 -0.0026  0.1506
  632PEP     CB21567   2.394  19.260   8.232  0.3154  0.2885 -0.2362
  632PEP     CB21568   2.015  19.381   8.301  0.1327  0.0488 -0.1533
  632PEP     CB21569   1.623  19.540   8.294  0.1694  0.1475  0.0784
  632PEP     CB21570   1.380  19.445   8.668  0.2940  0.2951 -0.2470
  632PEP     CB21571   1.309  19.086   8.971  0.2727 -0.2090  0.4081
  632PEP     CB21572   1.256  18.823   9.311 -0.2886  0.2437  0.3896
  632PEP     CB21573   1.426  18.448   9.548 -0.0645  0.1023  0.0646
  632PEP     CB21574   1.460  18.428   9.997 -0.2703 -0.3077 -0.0739
  632PEP     CB21575   1.548  18.590  10.413 -0.0810 -0.0298  0.1570
  632PEP     CB21576   1.833  18.830  10.659 -0.4186 -0.0337  0.0109
  632PEP     CB21577   2.145  18.830  10.604 -0.1119  0.1434  0.1607
  632PEP     CB21578   2.494  18.634  10.474 -0.2640 -0.1781 -0.1187
  632PEP     CB21579   2.866  18.456  10.317 -0.1645 -0.1868  0.1974
  632PEP     CB21580   3.017  18.101  10.184 -0.0260  0.3531 -0.3414
  632PEP     CB21581   3.092  17.701   9.971 -0.1638  0.4939 -0.2340
  632PEP     CB21582   3.341  17.297   9.877 -0.0861 -0.0418  0.0878
  632PEP     CB21583   3.827  17.112   9.635  0.5048  0.2783 -0.1445
  632PEP     CB21584   4.186  17.392   9.555 -0.2506 -0.4226  0.0472
  632PEP     CB21585   4.293  17.773   9.718  0.4355  0.0885 -0.4160
  632PEP     CB21586   4.662  18.177   9.676 -0.0703  0.2124 -0.0654
  632PEP     CB21587   5.102  18.078   9.626  0.2762 -0.3205 -0.1165
  632PEP     CB21588   5.436  17.772   9.515 -0.0973 -0.1354 -0.2385
  632PEP     CB21589   5.754  17.440   9.622  0.0780 -0.0852 -0.1411
  632PEP     CB21590   5.972  17.052   9.552  0.0061  0.0757  0.2556
  632PEP     CB21591   6.161  16.676   9.300  0.1780 -0.1403 -0.1164
  632PEP     CB21592   6.407  16.627   8.929 -0.0099  0.1739 -0.5344
  632PEP     CB21593   6.603  16.799   8.624 -0.1902  0.0195 -0.0111
  632PEP     CB21594   6.468  16.977   8.231 -0.0910 -0.0492  0.0352
  632PEP     CB21595   6.046  17.052   8.163  0.3987 -0.3617  0.3708
  632PEP     CB21596   5.648  16.994   8.378  0.2077  0.4073  0.3504
  632PEP     CB21597   5.345  17.208   8.698 -0.1439 -0.0490  0.0977
  632PEP     CB21598   4.951  17.355   8.926  0.0634 -0.1792  0.1949
  632PEP     CB21599   4.846  17.534   9.346  0.2212  0.2977 -0.2495
  632PEP     CB21600   5.103  17.506   9.690  0.0431  0.0472 -0.0654
  633PEP     CB21601  11.184   3.332  10.342 -0.2337  0.1026 -0.3188
  633PEP     CB21602  10.815   3.599  10.356 -0.3074  0.2959 -0.3925
  633PEP     CB21603  10.543   3.552  10.022 -0.0366  0.3880  0.2566
  633PEP     CB21604  10.446   3.328   9.718  0.1815  0.1369  0.2597
  633PEP     CB21605  10.253   3.011   9.434  0.1645 -0.0268 -0.2787
  633PEP     CB21606   9.904   2.861   9.270  0.1582 -0.0801  0.0105
  633PEP     CB21607   9.492   2.641   9.311  0.2553 -0.4447 -0.1908
  633PEP     CB21608   9.086   2.528   9.196 -0.0476  0.1967  0.8448
  633PEP     CB21609   8.891   2.119   9.113 -0.0432  0.0500 -0.0576
  633PEP     CB21610   8.931   1.681   8.904  0.0004 -0.1042 -0.1616
  633PEP     CB21611   9.212   1.443   8.629 -0.4756 -0.3776  0.4945
  633PEP     CB21612   9.641   1.542   8.296  0.1365  0.0629 -0.1647
  633PEP     CB21613   9.688   1.940   8.034  0.1143  0.1821 -0.0721
  633PEP     CB21614   9.464   2.156   7.766 -0.1011  0.0294 -0.2062
  633PEP     CB21615   9.288   2.540   7.494 -0.2719  0.2553 -0.0478
  633PEP     CB21616   9.310   3.003   7.593  0.0073 -0.4642 -0.2704
  633PEP     CB21617   8.931   3.211   7.496 -0.1848  0.0524  0.3114
  633PEP     CB21618   8.469   3.085   7.500  0.3757  0.2317  0.3398
  633PEP     CB21619   8.022   3.274   7.567  0.0065  0.1354  0.0048
  633PEP     CB21620   7.723   3.450   7.401 -0.1853  0.0118  0.2788
  633PEP     CB21621   7.637   3.451   6.991 -0.1499 -0.0553  0.0604
  633PEP     CB21622   7.827   3.179   6.645 -0.2435 -0.1666  0.4126
  633PEP     CB21623   8.065   2.949   6.332 -0.1807  0.4171  0.2813
  633PEP     CB21624   8.249   3.131   5.882 -0.2108  0.0395  0.3385
  633PEP     CB21625   8.237   3.173   5.462 -0.0081 -0.0555 -0.0155
  633PEP     CB21626   8.026   3.147   5.151  0.0630 -0.2141 -0.0331
  633PEP     CB21627   7.718   2.953   4.808  0.1742  0.2077  0.1434
  633PEP     CB21628   7.552   2.871   4.411 -0.0745 -0.0075  0.1180
  633PEP     CB21629   7.611   2.630   4.026  0.0637  0.2025  0.1583
  633PEP     CB21630   7.417   2.354   3.809 -0.0961 -0.2116  0.1357
  633PEP     CB21631   7.225   2.022   3.808  0.0128 -0.0618  0.4334
  633PEP     CB21632   7.353   1.651   3.958 -0.1266  0.0056  0.1565
  633PEP     CB21633   7.677   1.723   4.235 -0.2504 -0.2262 -0.0396
  633PEP     CB21634   7.781   2.094   4.311 -0.1307 -0.1621  0.1775
  633PEP     CB21635   7.544   2.398   4.495 -0.1727 -0.0263  0.3251
  633PEP     CB21636   7.030   2.276   4.700 -0.1351 -0.0492  0.3002
  633PEP     CB21637   6.884   1.861   4.640 -0.6591 -0.1382  0.0548
  633PEP     CB21638   6.596   1.493   4.556  0.1299 -0.0949  0.1450
  633PEP     CB21639   6.185   1.207   4.617 -0.0999  0.0915 -0.1916
  633PEP     CB21640   5.990   1.030   5.001 -0.3415  0.1100 -0.0247
  634PEP     CB21641   2.529   7.703  14.103 -0.0777 -0.0695 -0.0357
  634PEP     CB21642   2.913   7.909  14.184 -0.0272 -0.1388  0.2358
  634PEP     CB21643   3.063   8.237  14.359 -0.0479 -0.0968  0.0292
  634PEP     CB21644   3.413   8.433  14.659 -0.0745  0.3970  0.0401
  634PEP     CB21645   3.577   8.645  14.996  0.4130  0.3070  0.2747
  634PEP     CB21646   3.577   9.029  15.203  0.0731 -0.0527  0.2575
  634PEP     CB21647   3.554   9.400  15.076 -0.0668  0.3482  0.0340
  634PEP     CB21648   3.497   9.798  14.806 -0.1209 -0.0879  0.2875
  634PEP     CB21649   3.571  10.262  14.802  0.1024  0.1976 -0.2209
  634PEP     CB21650   3.786  10.677  14.822 -0.1294 -0.1076 -0.0810
  634PEP     CB21651   3.911  10.947  14.381 -0.1093 -0.5271  0.1697
  634PEP     CB21652   4.000  11.289  14.123 -0.1476  0.3318  0.3428
  634PEP     CB21653   4.086  11.358  13.702 -0.3497 -0.0247  0.1693
  634PEP     CB21654   3.878  11.246  13.334  0.2545  0.5016  0.0843
  634PEP     CB21655   3.682  10.835  13.186  0.2236 -0.2757 -0.0883
  634PEP     CB21656   3.753  10.469  12.889 -0.0371  0.1564 -0.2298
  634PEP     CB21657   3.774  10.059  12.707 -0.1896 -0.2048 -0.1237
  634PEP     CB21658   3.870   9.652  12.766 -0.2394 -0.1216  0.2097
  634PEP     CB21659   3.806   9.295  13.160 -0.1547  0.1505 -0.0288
  634PEP     CB21660   4.045   8.932  13.323 -0.0849  0.1034 -0.1588
  634PEP     CB21661   4.389   8.817  13.302  0.1719 -0.1607  0.2200
  634PEP     CB21662   4.855   8.625  13.277  0.1032 -0.5385  0.0168
  634PEP     CB21663   5.229   8.773  13.266  0.0852  0.2949 -0.0876
  634PEP     CB21664   5.541   8.814  12.959  0.0484  0.1954 -0.1840
  634PEP     CB21665   5.315   8.775  12.476 -0.1923  0.1431 -0.0523
  634PEP     CB21666   4.834   8.781  12.320  0.0141  0.3115  0.1399
  634PEP     CB21667   4.407   8.940  12.200 -0.2667  0.3188  0.1727
  634PEP     CB21668   4.177   9.355  12.296 -0.3053 -0.0496 -0.1154
  634PEP     CB21669   3.988   9.764  12.260 -0.0526  0.1894  0.1359
  634PEP     CB21670   3.987  10.211  12.255 -0.2067  0.1081 -0.1573
  634PEP     CB21671   4.110  10.546  12.121 -0.0405 -0.1758 -0.0932
  634PEP     CB21672   4.340  10.784  12.256 -0.1340  0.1519  0.1915
  634PEP     CB21673   4.440  11.038  12.688 -0.2632 -0.3079  0.2073
  634PEP     CB21674   4.392  11.124  13.131  0.3562 -0.0119 -0.0495
  634PEP     CB21675   4.499  11.132  13.618  0.1051 -0.2407  0.0407
  634PEP     CB21676   4.506  11.328  14.064  0.0955  0.0138  0.0625
  634PEP     CB21677   4.751  11.708  14.240  0.2447 -0.2934  0.3537
  634PEP     CB21678   4.511  11.998  14.256 -0.0125  0.4203 -0.0975
  634PEP     CB21679   4.420  12.445  13.977  0.1201 -0.2874  0.2508
  634PEP     CB21680   4.518  12.948  13.900  0.0712  0.1427 -0.0703
  635PEP     CB21681  15.971  19.893   3.335 -0.1524  0.2083  0.0543
  635PEP     CB21682  15.801  19.703   2.924  0.1293 -0.0427  0.1335
  635PEP     CB21683  15.863  19.358   2.633 -0.0482  0.3189  0.1210
  635PEP     CB21684  15.648  19.044   2.349 -0.4309 -0.1368  0.1575
  635PEP     CB21685  15.656  18.768   2.078  0.2760 -0.1722 -0.1902
  635PEP     CB21686  15.449  18.655   1.759  0.4638  0.0116  0.0048
  635PEP     CB21687  15.326  18.473   1.403  0.2463  0.2197  0.0169
  635PEP     CB21688  15.238  18.641   1.022  0.4011  0.2047 -0.0961
  635PEP     CB21689  15.339  18.812   0.552  0.0359  0.3565 -0.2352
  635PEP     CB21690  15.387  18.972   0.024  0.2069 -0.4564  0.1919
  635PEP     CB21691  15.467  18.734  -0.366 -0.7687 -0.0837 -0.2519
  635PEP     CB21692  15.457  18.809  -0.750  0.1539 -0.0978  0.1733
  635PEP     CB21693  15.671  18.809  -1.131 -0.1660  0.0619 -0.1269
  635PEP     CB21694  15.695  19.005  -1.522  0.2699  0.2927 -0.0533
  635PEP     CB21695  15.892  19.166  -1.904  0.1217 -0.3934  0.0906
  635PEP     CB21696  16.220  19.441  -2.086 -0.0889 -0.0653 -0.0408
  635PEP     CB21697  16.538  19.805  -2.225 -0.2711 -0.2289 -0.0403
  635PEP     CB21698  16.860  19.977  -2.471 -0.0368  0.2514  0.0980
  635PEP     CB21699  17.072  20.081  -2.858 -0.0542  0.0330 -0.2966
  635PEP     CB21700  16.964  20.365  -3.198  0.3645 -0.2281  0.1379
  635PEP     CB21701  16.708  20.612  -3.393  0.0717 -0.0098 -0.2639
  635PEP     CB21702  16.675  20.957  -3.684 -0.0404  0.5366  0.0109
  635PEP     CB21703  16.444  21.265  -3.861 -0.2369  0.0532  0.0917
  635PEP     CB21704  15.934  21.341  -3.997  0.0682 -0.2668 -0.0277
  635PEP     CB21705  15.585  21.287  -3.929 -0.1220  0.1269 -0.0831
  635PEP     CB21706  15.289  21.262  -3.647  0.1479  0.2764  0.1492
  635PEP     CB21707  14.871  21.375  -3.540 -0.2337  0.3513 -0.0123
  635PEP     CB21708  14.597  21.497  -3.418  0.3578 -0.1912  0.3697
  635PEP     CB21709  14.379  21.726  -3.146 -0.0658 -0.2660 -0.1420
  635PEP     CB21710  14.563  22.032  -2.854 -0.0080  0.3759 -0.1105
  635PEP     CB21711  14.976  22.239  -3.023 -0.4174 -0.1934  0.2775
  635PEP     CB21712  15.048  22.240  -3.522 -0.2619 -0.0351  0.2996
  635PEP     CB21713  15.265  22.220  -3.930 -0.3297  0.0872 -0.1977
  635PEP     CB21714  15.683  22.242  -4.019  0.2237 -0.1547  0.2242
  635PEP     CB21715  16.056  22.458  -4.301  0.0259  0.2408 -0.0646
  635PEP     CB21716  16.138  22.278  -4.719 -0.0872  0.4814  0.0582
  635PEP     CB21717  15.705  21.969  -4.931 -0.0933  0.3607 -0.1318
  635PEP     CB21718  15.341  21.906  -5.076 -0.2097 -0.7087 -0.1530
  635PEP     CB21719  15.125  21.726  -5.271 -0.3359  0.0623  0.0103
  635PEP     CB21720  15.057  21.661  -5.695 -0.4415  0.0662 -0.1770
  636PEP     CB21721  15.779  16.289   8.541  0.1724 -0.0453  0.0424
  636PEP     CB21722  15.684  16.265   8.965 -0.1088  0.0237 -0.4827
  636PEP     CB21723  15.326  16.243   9.301 -0.1386 -0.1347  0.0564
  636PEP     CB21724  15.006  16.143   9.667  0.1043  0.2587 -0.1226
  636PEP     CB21725  14.619  16.270   9.939 -0.0806 -0.0440 -0.0358
  636PEP     CB21726  14.272  16.471   9.971 -0.3240  0.2484  0.3053
  636PEP     CB21727  14.167  16.907   9.897  0.1062 -0.1990 -0.1144
  636PEP     CB21728  13.954  17.250   9.770  0.1513  0.1928  0.2329
  636PEP     CB21729  13.843  17.548   9.505 -0.0215  0.2381 -0.0078
  636PEP     CB21730  13.982  17.960   9.611 -0.0267  0.0220  0.0801
  636PEP     CB21731  14.360  18.121   9.916  0.0626 -0.2279  0.4586
  636PEP     CB21732  14.675  18.380   9.914  0.2077 -0.2238 -0.4863
  636PEP     CB21733  14.906  18.666   9.868 -0.0244 -0.4054 -0.0939
  636PEP     CB21734  15.093  19.080  10.008  0.1018  0.1625  0.1012
  636PEP     CB21735  15.234  19.515   9.994  0.0439 -0.3693 -0.1570
  636PEP     CB21736  15.105  19.971   9.805  0.2781  0.1312 -0.1212
  636PEP     CB21737  14.906  20.342   9.520 -0.1015  0.2471 -0.0382
  636PEP     CB21738  14.825  20.687   9.382 -0.3977  0.2667  0.0550
  636PEP     CB21739  14.586  20.956   9.226 -0.0803 -0.0194 -0.1551
  636PEP     CB21740  14.559  21.397   9.292  0.0933 -0.1097 -0.3141
  636PEP     CB21741  14.524  21.795   9.249 -0.1161  0.2406 -0.4469
  636PEP     CB21742  14.745  22.132   9.163 -0.1769 -0.4394  0.2170
  636PEP     CB21743  14.877  22.630   9.153  0.0462  0.0822 -0.5752
  636PEP     CB21744  15.039  22.996   9.224 -0.0503 -0.2060  0.0844
  636PEP     CB21745  15.269  23.328   9.228  0.3191 -0.1290 -0.1053
  636PEP     CB21746  15.467  23.692   9.121  0.3858 -0.4766  0.2515
  636PEP     CB21747  15.644  24.022   9.055  0.4221  0.1304  0.0165
  636PEP     CB21748  15.989  24.238   9.234 -0.6633  0.2859  0.4911
  636PEP     CB21749  16.263  24.119   9.562  0.0158 -0.1456  0.0675
  636PEP     CB21750  16.218  23.825   9.842 -0.1366 -0.6069  0.1811
  636PEP     CB21751  16.187  23.425  10.113 -0.0836  0.0976  0.0488
  636PEP     CB21752  16.174  23.150  10.504 -0.0993  0.3281  0.2554
  636PEP     CB21753  16.022  23.007  10.819 -0.1646  0.2102  0.1290
  636PEP     CB21754  15.737  23.057  10.993 -0.2294 -0.0338  0.1882
  636PEP     CB21755  15.376  23.170  10.972 -0.0963 -0.0145 -0.1801
  636PEP     CB21756  14.981  23.397  11.174  0.5156 -0.2415  0.1635
  636PEP     CB21757  14.874  23.439  11.572 -0.0299  0.1079 -0.2722
  636PEP     CB21758  15.048  23.180  12.041  0.1931 -0.1856  0.0259
  636PEP     CB21759  15.394  22.902  12.113 -0.2355 -0.2637  0.3680
  636PEP     CB21760  15.366  22.451  12.162  0.1274 -0.0184 -0.0509
  637PEP     CB21761  12.321   7.895   5.989 -0.1005  0.1119  0.1498
  637PEP     CB21762  12.036   8.084   5.689  0.0376  0.2726 -0.2084
  637PEP     CB21763  12.125   8.298   5.289  0.2906 -0.1742 -0.2548
  637PEP     CB21764  12.468   8.585   5.066 -0.2082  0.0116 -0.3599
  637PEP     CB21765  12.777   8.812   5.263  0.5200  0.1878  0.1085
  637PEP     CB21766  12.965   8.820   5.652  0.0603 -0.2369 -0.3430
  637PEP     CB21767  12.782   8.641   5.950  0.0400 -0.2308 -0.0254
  637PEP     CB21768  12.464   8.393   5.744  0.2486 -0.0305  0.2470
  637PEP     CB21769  12.644   8.060   5.469 -0.1624 -0.0004 -0.2084
  637PEP     CB21770  13.037   7.914   5.521  0.3111 -0.2201  0.0680
  637PEP     CB21771  13.401   8.156   5.477 -0.1965 -0.1680  0.0502
  637PEP     CB21772  13.740   8.247   5.758 -0.2119  0.3687  0.2201
  637PEP     CB21773  13.980   8.217   6.031  0.0266 -0.0142  0.2321
  637PEP     CB21774  14.280   8.322   6.250 -0.0085  0.0423  0.3357
  637PEP     CB21775  14.483   8.674   6.487  0.0944  0.1525  0.0731
  637PEP     CB21776  14.370   9.148   6.673 -0.0677 -0.3973 -0.3939
  637PEP     CB21777  14.131   9.601   6.824 -0.0696  0.2461  0.2445
  637PEP     CB21778  13.766   9.798   6.723 -0.0274 -0.1143 -0.4493
  637PEP     CB21779  13.441  10.003   6.421  0.0678  0.1394  0.1278
  637PEP     CB21780  13.327  10.170   6.017 -0.1127 -0.1233 -0.2625
  637PEP     CB21781  13.253  10.396   5.670 -0.2016 -0.1039  0.1207
  637PEP     CB21782  13.002  10.574   5.319 -0.0757 -0.0999  0.2823
  637PEP     CB21783  13.047  10.922   5.071  0.0879 -0.0626 -0.1288
  637PEP     CB21784  13.159  10.981   4.730  0.1908  0.0239  0.1652
  637PEP     CB21785  13.229  10.712   4.400  0.1647  0.0250  0.1437
  637PEP     CB21786  13.081  10.547   4.062 -0.2517 -0.3039 -0.0756
  637PEP     CB21787  12.995  10.524   3.543 -0.1461 -0.0197  0.0341
  637PEP     CB21788  12.673  10.648   3.319 -0.0799  0.1144  0.0821
  637PEP     CB21789  12.378  11.032   3.275 -0.3646 -0.0080  0.1760
  637PEP     CB21790  11.995  11.405   3.234  0.3647  0.2395  0.1545
  637PEP     CB21791  11.752  11.703   3.114  0.2884 -0.3772  0.2402
  637PEP     CB21792  11.449  11.872   2.866  0.0379 -0.2053  0.0926
  637PEP     CB21793  11.121  12.252   2.874  0.0823  0.2306 -0.3786
  637PEP     CB21794  11.189  12.624   2.611 -0.0188 -0.1409  0.1281
  637PEP     CB21795  11.518  12.771   2.341 -0.1442 -0.3868 -0.1145
  637PEP     CB21796  11.826  12.825   2.125  0.0600 -0.0915  0.0847
  637PEP     CB21797  12.264  12.820   1.858  0.3730  0.0367 -0.1853
  637PEP     CB21798  12.560  12.456   1.826  0.4508 -0.1680  0.0216
  637PEP     CB21799  12.842  12.196   1.772  0.1106  0.2889 -0.1689
  637PEP     CB21800  13.185  11.907   1.679  0.0996  0.0763  0.0770
  638PEP     CB21801   5.394   8.693  18.002  0.2015  0.2164 -0.1415
  638PEP     CB21802   5.461   8.378  18.290  0.2224 -0.0079 -0.2543
  638PEP     CB21803   5.666   8.418  18.648 -0.1841 -0.2181 -0.3772
  638PEP     CB21804   5.831   8.772  18.758  0.3683  0.1986  0.0621
  638PEP     CB21805   5.561   9.127  18.821 -0.0795 -0.1094  0.1089
  638PEP     CB21806   5.134   9.106  19.045 -0.3168  0.3537 -0.1240
  638PEP     CB21807   4.891   8.832  19.267  0.1798 -0.0982  0.0805
  638PEP     CB21808   4.627   8.534  19.364 -0.2398  0.4761 -0.0630
  638PEP     CB21809   4.316   8.556  19.589  0.2725  0.1275  0.0215
  638PEP     CB21810   4.042   8.425  19.838  0.0197 -0.1660  0.1672
  638PEP     CB21811   3.597   8.339  19.926  0.4016 -0.0436  0.1661
  638PEP     CB21812   3.169   8.303  19.868  0.2211  0.1018 -0.0057
  638PEP     CB21813   2.920   7.986  19.932 -0.0473 -0.2522  0.0050
  638PEP     CB21814   2.510   7.731  19.958  0.0709  0.2510  0.1200
  638PEP     CB21815   2.052   7.637  20.023 -0.0763 -0.6446 -0.1294
  638PEP     CB21816   1.738   7.837  20.201  0.1352  0.0940  0.0565
  638PEP     CB21817   1.587   8.070  20.624  0.3605  0.2293 -0.1822
  638PEP     CB21818   1.120   7.928  20.812 -0.0619 -0.2164  0.0356
  638PEP     CB21819   0.933   7.484  20.808 -0.2407  0.4080  0.0131
  638PEP     CB21820   1.236   7.159  20.810 -0.2994  0.0516  0.3058
  638PEP     CB21821   1.608   7.248  21.122 -0.6139 -0.3651  0.3575
  638PEP     CB21822   2.076   7.328  21.339  0.4699 -0.0635 -0.1268
  638PEP     CB21823   2.482   7.157  21.499 -0.0393  0.0779 -0.1949
  638PEP     CB21824   2.636   6.846  21.771 -0.0555  0.0070  0.1294
  638PEP     CB21825   2.715   6.736  22.217 -0.1321 -0.0739 -0.1173
  638PEP     CB21826   2.846   6.607  22.581  0.2033  0.0306  0.1145
  638PEP     CB21827   2.858   6.853  22.986  0.0919 -0.0101 -0.3885
  638PEP     CB21828   2.669   7.267  23.058 -0.1305  0.0838 -0.0873
  638PEP     CB21829   2.363   7.466  22.674 -0.0485  0.0693  0.1453
  638PEP     CB21830   2.430   7.378  22.238  0.0539  0.2225  0.0494
  638PEP     CB21831   2.818   7.230  22.010 -0.0467  0.1639  0.3956
  638PEP     CB21832   3.147   6.957  21.964 -0.0751 -0.0026  0.1866
  638PEP     CB21833   3.423   6.653  22.050  0.4724 -0.3363 -0.3058
  638PEP     CB21834   3.616   6.250  21.819 -0.0896 -0.2168 -0.1189
  638PEP     CB21835   3.952   6.288  21.507 -0.4010 -0.4606  0.1520
  638PEP     CB21836   4.092   6.320  21.121  0.3449 -0.1156 -0.1043
  638PEP     CB21837   4.447   6.390  20.884 -0.1709  0.0246 -0.0354
  638PEP     CB21838   4.746   6.341  21.257 -0.4241  0.3297  0.1412
  638PEP     CB21839   4.520   6.271  21.706  0.0629 -0.1923 -0.1265
  638PEP     CB21840   4.069   6.157  21.930 -0.3983 -0.0156  0.2702
  639PEP     CB21841   2.673  21.836   3.789  0.0053 -0.2089  0.0469
  639PEP     CB21842   2.601  22.233   3.899 -0.3658 -0.2360 -0.0106
  639PEP     CB21843   2.451  22.455   4.336 -0.0672 -0.3833  0.2819
  639PEP     CB21844   2.554  22.648   4.749  0.0436 -0.0827  0.1294
  639PEP     CB21845   2.881  22.883   5.072 -0.0721 -0.4826 -0.2556
  639PEP     CB21846   3.114  22.933   5.423 -0.0540 -0.1084 -0.0289
  639PEP     CB21847   3.234  22.691   5.789  0.1900  0.4874  0.0582
  639PEP     CB21848   3.405  22.539   6.124  0.0073 -0.1297 -0.0647
  639PEP     CB21849   3.565  22.290   6.424  0.1080 -0.0072  0.2764
  639PEP     CB21850   3.797  21.975   6.632 -0.1372 -0.0945 -0.3701
  639PEP     CB21851   3.857  21.785   7.031  0.1554  0.2893  0.2338
  639PEP     CB21852   3.993  21.490   7.425 -0.0861  0.4523  0.2538
  639PEP     CB21853   4.102  21.081   7.675  0.6612  0.0170 -0.0435
  639PEP     CB21854   4.283  20.634   7.556  0.0505  0.0675 -0.0234
  639PEP     CB21855   4.629  20.399   7.353  0.1006  0.1343  0.0950
  639PEP     CB21856   4.718  19.960   7.113  0.0682 -0.0177  0.2973
  639PEP     CB21857   4.749  19.602   6.900 -0.0648 -0.1487  0.3124
  639PEP     CB21858   4.840  19.349   6.612 -0.2475 -0.0705  0.0534
  639PEP     CB21859   4.907  19.224   6.194 -0.2026 -0.2061  0.2189
  639PEP     CB21860   5.200  19.166   5.959  0.0806 -0.2708 -0.0780
  639PEP     CB21861   5.537  18.801   5.985  0.3524  0.0139  0.3390
  639PEP     CB21862   5.610  18.422   5.963 -0.0720 -0.2884  0.2527
  639PEP     CB21863   5.547  17.971   6.142  0.1312  0.2809  0.0108
  639PEP     CB21864   5.546  17.594   6.305 -0.2845  0.2839  0.0034
  639PEP     CB21865   5.360  17.418   6.631 -0.0384  0.0326  0.0401
  639PEP     CB21866   5.126  17.160   6.918 -0.1483  0.0534 -0.0026
  639PEP     CB21867   5.239  16.805   7.151 -0.0138  0.0062  0.0623
  639PEP     CB21868   5.306  16.340   7.359  0.0053 -0.3315 -0.0638
  639PEP     CB21869   5.157  15.910   7.507  0.3262  0.3177  0.5684
  639PEP     CB21870   5.177  15.513   7.342 -0.0488 -0.0002 -0.2655
  639PEP     CB21871   5.357  15.138   7.418 -0.0038  0.0987  0.0321
  639PEP     CB21872   5.762  14.835   7.576  0.2212 -0.0721  0.5172
  639PEP     CB21873   6.012  14.935   7.917 -0.0870  0.7219 -0.0394
  639PEP     CB21874   5.961  15.352   8.055 -0.3839  0.0146 -0.0274
  639PEP     CB21875   5.846  15.756   8.058  0.3044 -0.1908 -0.0318
  639PEP     CB21876   5.920  16.165   8.246  0.3578  0.0999  0.1901
  639PEP     CB21877   6.078  16.429   8.578 -0.1928  0.2988 -0.0356
  639PEP     CB21878   5.851  16.680   8.893  0.1872  0.3724  0.1633
  639PEP     CB21879   5.346  16.752   8.796 -0.2755 -0.2335 -0.0227
  639PEP     CB21880   4.932  16.892   8.813 -0.1669 -0.2739 -0.1309
  640PEP     CB21881   6.796   4.065   4.151  0.0624  0.0528 -0.0809
  640PEP     CB21882   6.392   3.790   4.178  0.2887 -0.3069  0.1248
  640PEP     CB21883   5.990   3.674   3.933  0.1372  0.0112 -0.0295
  640PEP     CB21884   5.582   3.657   3.826 -0.3140 -0.1621  0.4214
  640PEP     CB21885   5.151   3.702   3.665  0.2778 -0.2490  0.2216
  640PEP     CB21886   4.889   4.122   3.606  0.0941 -0.0995 -0.2693
  640PEP     CB21887   5.139   4.503   3.416  0.4782 -0.2828  0.0897
  640PEP     CB21888   5.579   4.455   3.224  0.2394 -0.0598 -0.2737
  640PEP     CB21889   6.040   4.670   3.406 -0.0971 -0.0760 -0.1452
  640PEP     CB21890   6.409   4.495   3.571  0.3789  0.0299  0.1319
  640PEP     CB21891   6.655   4.440   3.903  0.1238 -0.1189  0.1739
  640PEP     CB21892   6.954   4.541   4.241  0.1699 -0.2385 -0.0202
  640PEP     CB21893   7.347   4.638   4.419  0.0192 -0.0946  0.1346
  640PEP     CB21894   7.754   4.608   4.761  0.0172  0.2195  0.0454
  640PEP     CB21895   7.775   4.363   5.088 -0.0949 -0.0358 -0.2942
  640PEP     CB21896   7.555   3.891   5.060  0.4125 -0.3342  0.0702
  640PEP     CB21897   7.249   3.852   4.810 -0.1104  0.3870  0.2914
  640PEP     CB21898   7.250   3.967   4.425  0.1343 -0.0731  0.4728
  640PEP     CB21899   7.544   4.207   4.163 -0.1275  0.2987 -0.2098
  640PEP     CB21900   7.940   4.212   4.068  0.0168  0.2143  0.1460
  640PEP     CB21901   8.373   4.208   3.927 -0.4983  0.5261  0.0402
  640PEP     CB21902   8.769   4.174   3.874 -0.1773 -0.2386 -0.2433
  640PEP     CB21903   9.159   4.026   3.830 -0.2429 -0.1012 -0.3286
  640PEP     CB21904   9.366   3.912   4.293 -0.2475  0.3624 -0.0022
  640PEP     CB21905   9.206   3.623   4.583  0.1564  0.0422  0.2770
  640PEP     CB21906   9.048   3.170   4.478  0.2833 -0.3844  0.1920
  640PEP     CB21907   8.798   2.965   4.193 -0.3895  0.2435 -0.2122
  640PEP     CB21908   8.634   2.656   3.933  0.2013  0.1819 -0.0214
  640PEP     CB21909   8.373   2.444   3.747  0.0078  0.0105  0.0344
  640PEP     CB21910   8.256   2.107   3.497 -0.0148 -0.2087 -0.0225
  640PEP     CB21911   8.283   1.705   3.298 -0.1111 -0.6329 -0.0899
  640PEP     CB21912   8.162   1.301   3.234 -0.1993  0.1849 -0.0718
  640PEP     CB21913   7.910   0.841   3.222 -0.0354 -0.0975  0.0331
  640PEP     CB21914   7.639   0.469   3.368 -0.4295  0.1701  0.1536
  640PEP     CB21915   7.554   0.169   3.127 -0.1352  0.0286  0.0834
  640PEP     CB21916   7.234   0.024   2.785  0.0067  0.8432  0.1862
  640PEP     CB21917   7.149  -0.114   2.343 -0.0156  0.1647 -0.1604
  640PEP     CB21918   7.290   0.005   1.944  0.4675  0.4867  0.5619
  640PEP     CB21919   7.688   0.032   1.682  0.0297 -0.0278 -0.0898
  640PEP     CB21920   7.978  -0.101   1.340 -0.1114  0.2110 -0.1292
  641PEP     CB21921   9.025  17.235   5.999  0.3883 -0.0805  0.0483
  641PEP     CB21922   9.293  17.459   6.288 -0.0497 -0.1313 -0.0957
  641PEP     CB21923   9.483  17.530   6.728  0.0113  0.0415  0.3231
  641PEP     CB21924   9.574  17.702   7.158 -0.0451 -0.1305  0.0736
  641PEP     CB21925   9.589  18.050   7.483  0.0323 -0.0064  0.0621
  641PEP     CB21926   9.655  18.349   7.872 -0.0162  0.4566 -0.1535
  641PEP     CB21927  10.104  18.556   8.009  0.0622 -0.3107  0.0752
  641PEP     CB21928  10.561  18.531   7.821 -0.0352 -0.4412 -0.0542
  641PEP     CB21929  10.786  18.220   7.741  0.3389 -0.1118  0.2636
  641PEP     CB21930  11.162  18.154   7.599 -0.1351  0.0235 -0.0781
  641PEP     CB21931  11.567  18.350   7.737  0.3547  0.0203  0.1913
  641PEP     CB21932  11.792  18.690   7.852  0.0064  0.3377  0.0958
  641PEP     CB21933  11.969  18.962   8.131  0.0309  0.1833 -0.4466
  641PEP     CB21934  12.281  19.199   8.431 -0.0130 -0.0415 -0.3481
  641PEP     CB21935  12.211  19.470   8.849  0.0631 -0.0519  0.1414
  641PEP     CB21936  12.195  19.859   9.180 -0.0796 -0.1438  0.4752
  641PEP     CB21937  12.279  20.152   9.613 -0.2591  0.2528  0.2447
  641PEP     CB21938  12.611  20.364   9.891 -0.1205 -0.0106  0.0490
  641PEP     CB21939  12.873  20.610  10.159  0.2565 -0.3858 -0.3115
  641PEP     CB21940  13.219  20.757  10.395  0.2042 -0.1222 -0.0704
  641PEP     CB21941  13.419  21.158  10.698 -0.2759 -0.3454 -0.1178
  641PEP     CB21942  13.661  21.503  10.618 -0.1647 -0.2998  0.1047
  641PEP     CB21943  13.895  21.740  10.695  0.0262 -0.2897 -0.0088
  641PEP     CB21944  14.224  21.883  11.068 -0.2037 -0.0474 -0.0360
  641PEP     CB21945  14.532  21.678  11.411  0.3760  0.0108  0.2136
  641PEP     CB21946  14.419  21.530  11.663 -0.2481  0.1597 -0.0522
  641PEP     CB21947  14.174  21.279  11.776 -0.0677 -0.0351 -0.2919
  641PEP     CB21948  13.845  20.939  11.528 -0.3907  0.2758 -0.1359
  641PEP     CB21949  13.635  21.112  11.224 -0.0993  0.1053 -0.0225
  641PEP     CB21950  13.612  21.527  11.140  0.0370 -0.0608  0.2932
  641PEP     CB21951  13.670  21.926  11.206 -0.1064  0.3758 -0.1119
  641PEP     CB21952  13.663  22.158  11.569 -0.0465  0.0505 -0.3435
  641PEP     CB21953  13.780  22.088  11.980 -0.0226 -0.3987 -0.1653
  641PEP     CB21954  14.125  21.837  12.134 -0.0675  0.1302 -0.1903
  641PEP     CB21955  14.564  21.912  12.135 -0.2421  0.2171 -0.1142
  641PEP     CB21956  14.813  21.812  11.783 -0.0373  0.2969 -0.2738
  641PEP     CB21957  15.083  21.750  11.377 -0.4207  0.0009  0.1160
  641PEP     CB21958  15.389  21.440  11.111  0.1400  0.0185 -0.1892
  641PEP     CB21959  15.675  21.397  10.751 -0.2287  0.2616 -0.3734
  641PEP     CB21960  15.773  21.092  10.519  0.1113 -0.1484 -0.2004
  642PEP     CB21961   2.540   6.947  17.694  0.1443  0.0052  0.0292
  642PEP     CB21962   2.147   6.689  17.668 -0.1902 -0.0942  0.0191
  642PEP     CB21963   2.029   6.234  17.604 -0.0538 -0.0503  0.0997
  642PEP     CB21964   2.188   5.737  17.525  0.3656  0.0943  0.1627
  642PEP     CB21965   2.459   5.413  17.578  0.0104 -0.5256  0.1960
  642PEP     CB21966   2.520   5.085  17.481  0.0002 -0.1547  0.3209
  642PEP     CB21967   2.870   4.814  17.486 -0.0588  0.0107  0.0452
  642PEP     CB21968   3.297   4.736  17.782 -0.2892  0.1569  0.3711
  642PEP     CB21969   3.420   4.613  18.214 -0.0815  0.0272 -0.2669
  642PEP     CB21970   3.109   4.614  18.582 -0.2921 -0.0748 -0.2367
  642PEP     CB21971   2.648   4.579  18.457  0.1022  0.3641  0.3408
  642PEP     CB21972   2.326   4.600  18.018  0.3945  0.0088  0.2770
  642PEP     CB21973   2.323   4.546  17.568 -0.0591 -0.0067 -0.1558
  642PEP     CB21974   2.426   4.695  17.197 -0.2093 -0.0735  0.1715
  642PEP     CB21975   2.652   5.114  16.961 -0.2096 -0.0326 -0.1258
  642PEP     CB21976   3.121   5.301  16.973  0.3379  0.6362  0.0942
  642PEP     CB21977   3.376   5.318  17.332 -0.1748  0.5054 -0.2715
  642PEP     CB21978   3.476   5.563  17.679 -0.0402 -0.0545 -0.2475
  642PEP     CB21979   3.593   5.867  17.979 -0.0215 -0.4662  0.1239
  642PEP     CB21980   3.649   6.295  18.044 -0.4626  0.4815  0.2145
  642PEP     CB21981   3.324   6.647  18.046  0.0859 -0.4823 -0.3451
  642PEP     CB21982   2.958   6.622  17.742  0.1139  0.1263 -0.4446
  642PEP     CB21983   2.934   6.387  17.368 -0.0263 -0.0376 -0.0901
  642PEP     CB21984   3.318   6.236  17.117 -0.0587  0.0439  0.3575
  642PEP     CB21985   3.772   6.426  17.173 -0.1123 -0.0603  0.2317
  642PEP     CB21986   4.096   6.643  16.896 -0.2823  0.3986 -0.2422
  642PEP     CB21987   4.189   6.847  16.429 -0.2442 -0.2808 -0.2872
  642PEP     CB21988   4.178   6.668  15.984 -0.1010 -0.2995  0.0658
  642PEP     CB21989   4.033   6.377  15.772  0.0170  0.2779 -0.2545
  642PEP     CB21990   3.672   6.096  15.822  0.3249  0.1711  0.0369
  642PEP     CB21991   3.214   6.157  15.791 -0.1418 -0.1324  0.0879
  642PEP     CB21992   2.809   6.311  16.133 -0.2894 -0.1023 -0.0515
  642PEP     CB21993   2.555   6.078  16.468  0.2799  0.1067 -0.1060
  642PEP     CB21994   2.544   5.672  16.676  0.5990  0.1010  0.1322
  642PEP     CB21995   2.739   5.358  16.485  0.1010  0.1849  0.3812
  642PEP     CB21996   2.980   5.354  16.074  0.0615 -0.0725 -0.1030
  642PEP     CB21997   3.182   5.687  15.831 -0.0183 -0.0040 -0.1294
  642PEP     CB21998   3.231   5.828  15.401 -0.0421  0.0458  0.1957
  642PEP     CB21999   3.104   5.862  14.960  0.2389 -0.1948 -0.0206
  642PEP     CB22000   2.862   5.824  14.571 -0.0789  0.2014 -0.5674
  643PEP     CB22001   4.820   9.079  21.415 -0.1835  0.1547 -0.2569
  643PEP     CB22002   4.662   9.362  21.148 -0.0319 -0.2987  0.3704
  643PEP     CB22003   4.425   9.723  21.098  0.2784  0.1477 -0.1501
  643PEP     CB22004   4.113   9.790  20.837 -0.2025  0.1458 -0.0272
  643PEP     CB22005   4.120   9.706  20.360 -0.0413 -0.1028  0.2102
  643PEP     CB22006   4.330   9.738  19.875  0.0602  0.4977  0.4672
  643PEP     CB22007   4.358   9.753  19.404 -0.1834  0.1505  0.1256
  643PEP     CB22008   4.707   9.734  19.086 -0.1878 -0.0973 -0.0768
  643PEP     CB22009   5.146   9.565  18.924 -0.0544  0.4327 -0.2383
  643PEP     CB22010   5.590   9.584  18.728  0.0832  0.1335  0.2693
  643PEP     CB22011   5.967   9.664  18.741  0.0326 -0.2896  0.1282
  643PEP     CB22012   6.247   9.375  18.618 -0.1174  0.2877  0.1071
  643PEP     CB22013   6.088   9.059  18.367  0.2935 -0.3801 -0.3039
  643PEP     CB22014   5.639   8.923  18.343 -0.1248  0.1357 -0.4025
  643PEP     CB22015   5.234   9.162  18.358 -0.2170 -0.0184  0.0998
  643PEP     CB22016   4.931   9.401  18.272 -0.5296  0.1461  0.2778
  643PEP     CB22017   4.633   9.384  17.942 -0.0949  0.1082 -0.1232
  643PEP     CB22018   4.555   9.297  17.525 -0.6504 -0.2521  0.1944
  643PEP     CB22019   4.663   9.005  17.175 -0.2570  0.3081 -0.0535
  643PEP     CB22020   4.555   8.569  17.184 -0.2480  0.2464  0.0400
  643PEP     CB22021   4.347   8.398  17.546 -0.0942  0.3341 -0.0421
  643PEP     CB22022   4.290   8.554  17.879 -0.0375  0.0555 -0.6729
  643PEP     CB22023   4.616   8.862  18.184  0.3086  0.0819 -0.2482
  643PEP     CB22024   4.593   9.171  18.530 -0.1305 -0.0750  0.2815
  643PEP     CB22025   4.589   9.157  18.979 -0.3174 -0.0087 -0.2944
  643PEP     CB22026   4.838   9.338  19.343 -0.1130 -0.1864  0.1935
  643PEP     CB22027   5.279   9.370  19.485 -0.0688  0.4304 -0.3591
  643PEP     CB22028   5.631   9.171  19.703 -0.3017 -0.0206  0.0734
  643PEP     CB22029   5.597   8.977  20.094 -0.1350 -0.0889  0.2668
  643PEP     CB22030   5.880   8.871  20.396  0.0484 -0.0923  0.0583
  643PEP     CB22031   6.372   8.867  20.522 -0.2728 -0.0318 -0.0405
  643PEP     CB22032   6.671   9.259  20.758  0.2370  0.0476  0.0769
  643PEP     CB22033   7.031   9.289  20.761 -0.2009 -0.1072 -0.1727
  643PEP     CB22034   7.193   8.929  20.446  0.0236  0.0812  0.1278
  643PEP     CB22035   6.936   8.780  20.105  0.3857  0.2423  0.1688
  643PEP     CB22036   6.558   9.046  20.017  0.1703 -0.2188 -0.1321
  643PEP     CB22037   6.539   9.430  20.223 -0.0587  0.4088 -0.0816
  643PEP     CB22038   6.685   9.677  20.486  0.1172  0.1692 -0.1033
  643PEP     CB22039   7.044   9.821  20.862 -0.0637  0.1106  0.0314
  643PEP     CB22040   7.374  10.007  21.083  0.3393 -0.0502 -0.0641
  644PEP     CB22041  12.254   4.891  11.132 -0.2959 -0.0839 -0.2256
  644PEP     CB22042  12.379   4.851  10.750  0.2204 -0.1267 -0.1009
  644PEP     CB22043  12.592   4.692  10.408 -0.0091 -0.0877 -0.0621
  644PEP     CB22044  12.568   4.393  10.062 -0.0348 -0.0578  0.0783
  644PEP     CB22045  12.449   4.296   9.681 -0.1290 -0.2472 -0.1926
  644PEP     CB22046  12.263   4.059   9.385  0.2146 -0.3846  0.0510
  644PEP     CB22047  12.073   4.054   8.990 -0.3061  0.0416  0.3651
  644PEP     CB22048  11.850   4.325   8.709 -0.3099  0.3371 -0.1797
  644PEP     CB22049  12.151   4.604   8.412  0.2715  0.2281  0.0633
  644PEP     CB22050  12.502   4.352   8.359 -0.1889  0.2932  0.1187
  644PEP     CB22051  12.457   4.027   8.510  0.4252  0.2378 -0.1008
  644PEP     CB22052  12.056   3.801   8.543 -0.3383 -0.0347  0.2672
  644PEP     CB22053  11.828   3.632   8.300 -0.2308  0.3399 -0.0862
  644PEP     CB22054  11.884   3.520   7.876 -0.1538  0.0359  0.0062
  644PEP     CB22055  12.153   3.573   7.520  0.1531  0.1825 -0.1498
  644PEP     CB22056  12.307   3.980   7.320  0.2173 -0.1659 -0.0275
  644PEP     CB22057  12.182   4.284   6.974 -0.0462  0.0055  0.0994
  644PEP     CB22058  12.160   4.211   6.536 -0.2559  0.1319 -0.0367
  644PEP     CB22059  12.530   4.134   6.339 -0.1240 -0.0165  0.0416
  644PEP     CB22060  12.859   4.452   6.455  0.1947  0.1119  0.3441
  644PEP     CB22061  13.164   4.794   6.473 -0.4708 -0.0819 -0.1855
  644PEP     CB22062  13.252   5.205   6.602  0.4296 -0.0854  0.1437
  644PEP     CB22063  13.246   5.643   6.615 -0.0766 -0.1208  0.2914
  644PEP     CB22064  13.484   6.036   6.759  0.0286 -0.0253 -0.0906
  644PEP     CB22065  13.938   6.246   6.901 -0.0803  0.1366 -0.0703
  644PEP     CB22066  14.098   6.538   7.205 -0.0525 -0.2811 -0.4464
  644PEP     CB22067  14.013   6.978   7.203 -0.3379  0.3187 -0.0746
  644PEP     CB22068  13.737   7.222   6.909 -0.0291 -0.0699 -0.0416
  644PEP     CB22069  13.442   7.061   6.483 -0.4413  0.1949  0.3325
  644PEP     CB22070  13.142   7.196   6.093  0.4195 -0.2113 -0.2443
  644PEP     CB22071  12.779   7.233   5.944 -0.2127  0.1030 -0.4575
  644PEP     CB22072  12.372   7.351   6.104 -0.1404  0.1630  0.1468
  644PEP     CB22073  12.208   7.444   6.546 -0.1195 -0.1050  0.0743
  644PEP     CB22074  12.193   7.335   6.931  0.1075  0.4977  0.4079
  644PEP     CB22075  11.785   7.186   7.177  0.1291  0.3476  0.0803
  644PEP     CB22076  11.418   7.151   7.052 -0.1612 -0.3398 -0.2933
  644PEP     CB22077  11.053   7.229   6.905  0.0231  0.0149  0.0787
  644PEP     CB22078  10.685   7.427   6.774 -0.2531 -0.1861  0.0325
  644PEP     CB22079  10.490   7.653   6.386 -0.0710 -0.2424  0.1105
  644PEP     CB22080  10.134   7.482   6.116 -0.0873  0.0179 -0.0639
  645PEP     CB22081   4.498  21.358  18.524  0.6094 -0.1655  0.0832
  645PEP     CB22082   4.331  21.063  18.875 -0.0402 -0.0355  0.1922
  645PEP     CB22083   4.138  20.714  19.183 -0.0439  0.3992 -0.0184
  645PEP     CB22084   4.235  20.151  19.268 -0.1445 -0.1943 -0.0298
  645PEP     CB22085   4.382  19.932  18.970 -0.4815 -0.1958 -0.2887
  645PEP     CB22086   4.491  20.172  18.570 -0.1303  0.4057  0.2446
  645PEP     CB22087   4.467  20.407  18.206 -0.4614  0.2142  0.2514
  645PEP     CB22088   4.316  20.788  18.202 -0.2511 -0.1028  0.1051
  645PEP     CB22089   4.068  21.131  18.447  0.0799 -0.3360 -0.0738
  645PEP     CB22090   4.006  21.549  18.511  0.0593 -0.4037 -0.2104
  645PEP     CB22091   4.154  22.025  18.640 -0.5782 -0.0449 -0.5258
  645PEP     CB22092   4.175  22.496  18.530  0.2219 -0.0339 -0.1712
  645PEP     CB22093   4.348  22.658  18.105 -0.3303 -0.0845  0.3957
  645PEP     CB22094   4.481  22.550  17.657  0.2064 -0.2571  0.1671
  645PEP     CB22095   4.364  22.241  17.226 -0.0044 -0.1803 -0.2935
  645PEP     CB22096   4.386  21.953  16.893 -0.0416 -0.0185 -0.0435
  645PEP     CB22097   4.242  21.546  16.770  0.2590  0.2791  0.0555
  645PEP     CB22098   4.401  21.192  16.944 -0.0872  0.2262 -0.0499
  645PEP     CB22099   4.719  21.130  17.269 -0.2011 -0.3472 -0.3464
  645PEP     CB22100   5.105  21.224  17.443  0.2880  0.2762  0.1659
  645PEP     CB22101   5.400  21.466  17.363 -0.0965  0.1395 -0.1358
  645PEP     CB22102   5.354  21.692  17.014  0.0458 -0.1462 -0.1009
  645PEP     CB22103   5.013  21.610  16.772  0.1850 -0.1124  0.3529
  645PEP     CB22104   4.834  21.144  16.708 -0.2452 -0.6462 -0.1311
  645PEP     CB22105   4.969  20.713  16.700  0.1590 -0.4243  0.4402
  645PEP     CB22106   4.775  20.320  16.664 -0.0019 -0.3245 -0.1264
  645PEP     CB22107   4.385  20.308  16.653 -0.2086 -0.0931 -0.0412
  645PEP     CB22108   4.172  20.667  16.729  0.2243 -0.0041  0.1946
  645PEP     CB22109   3.958  21.064  16.809 -0.1730  0.0935 -0.0108
  645PEP     CB22110   3.971  21.325  17.093 -0.0209  0.0908 -0.0172
  645PEP     CB22111   4.085  21.167  17.494 -0.1301  0.1668 -0.0537
  645PEP     CB22112   4.055  20.781  17.711 -0.3891  0.2119  0.3105
  645PEP     CB22113   3.763  20.424  17.551  0.1328 -0.0470 -0.0557
  645PEP     CB22114   3.605  20.456  17.133  0.1712 -0.1359  0.4087
  645PEP     CB22115   3.529  20.585  16.696  0.3652 -0.0069  0.2314
  645PEP     CB22116   3.491  21.002  16.585  0.0712  0.1582 -0.3377
  645PEP     CB22117   3.417  21.416  16.867 -0.3958  0.1648 -0.0970
  645PEP     CB22118   3.170  21.582  17.121  0.0499  0.3109 -0.2246
  645PEP     CB22119   2.807  21.764  17.236 -0.1653 -0.2472  0.1332
  645PEP     CB22120   2.653  22.106  17.449 -0.0387 -0.1166 -0.0371
  646PEP     CB22121  21.792   5.990   6.821  0.0091 -0.3631  0.3572
  646PEP     CB22122  21.452   5.926   6.622 -0.5765  0.4048  0.0180
  646PEP     CB22123  21.107   5.625   6.740  0.3246 -0.3565  0.1397
  646PEP     CB22124  20.801   5.415   6.891  0.5655  0.4287  0.0788
  646PEP     CB22125  20.401   5.594   7.149 -0.1054  0.0763  0.0656
  646PEP     CB22126  20.051   5.912   7.233  0.2586 -0.0362 -0.0512
  646PEP     CB22127  19.726   6.147   7.081  0.3532 -0.0851  0.0880
  646PEP     CB22128  19.513   6.347   6.754  0.1458 -0.1788 -0.4996
  646PEP     CB22129  19.631   6.431   6.315  0.0018 -0.3315 -0.1304
  646PEP     CB22130  19.893   6.278   5.968  0.0459  0.2649  0.2055
  646PEP     CB22131  20.260   6.283   5.745 -0.1650  0.0704  0.3123
  646PEP     CB22132  20.724   6.305   5.763  0.3999  0.0327 -0.2000
  646PEP     CB22133  21.115   6.346   5.628  0.0310  0.3121 -0.0099
  646PEP     CB22134  21.454   6.606   5.510  0.0079 -0.0976  0.0400
  646PEP     CB22135  21.710   6.774   5.748 -0.2009  0.0674  0.3564
  646PEP     CB22136  21.791   7.084   6.048 -0.0516  0.2441  0.3508
  646PEP     CB22137  22.125   7.127   6.235 -0.0661  0.1648  0.0317
  646PEP     CB22138  22.430   7.037   6.154  0.2346 -0.1742 -0.0634
  646PEP     CB22139  22.596   6.552   5.903 -0.3620  0.2028  0.1627
  646PEP     CB22140  22.693   6.182   6.035 -0.0066 -0.3847  0.0681
  646PEP     CB22141  22.721   5.681   6.005  0.2575 -0.0230 -0.0230
  646PEP     CB22142  22.573   5.171   5.896  0.0419  0.1265  0.3510
  646PEP     CB22143  22.532   4.676   5.709 -0.2686 -0.1866 -0.5623
  646PEP     CB22144  22.376   4.283   5.656  0.1368  0.2118  0.0910
  646PEP     CB22145  22.457   3.848   5.532 -0.1241  0.1600 -0.3028
  646PEP     CB22146  22.393   3.504   5.373 -0.0320 -0.0403 -0.5151
  646PEP     CB22147  22.247   3.158   4.999 -0.5620 -0.2793  0.1394
  646PEP     CB22148  22.262   2.905   4.664  0.2772  0.2769  0.0582
  646PEP     CB22149  22.290   2.839   4.297  0.1857 -0.4572  0.0123
  646PEP     CB22150  22.195   2.798   3.810 -0.2927 -0.2299  0.2070
  646PEP     CB22151  22.221   2.861   3.289 -0.1837  0.3279  0.0474
  646PEP     CB22152  22.199   3.237   3.009 -0.2929  0.4864 -0.2551
  646PEP     CB22153  22.419   3.532   2.897  0.0205  0.2614  0.1901
  646PEP     CB22154  22.834   3.740   2.701 -0.0694 -0.2340 -0.2872
  646PEP     CB22155  23.163   3.820   2.335 -0.1712 -0.1254  0.4882
  646PEP     CB22156  23.416   3.813   1.953  0.3525 -0.0293 -0.6230
  646PEP     CB22157  23.856   3.729   1.704  0.2009  0.3880  0.0552
  646PEP     CB22158  23.970   3.471   1.316 -0.1089 -0.0211  0.1018
  646PEP     CB22159  24.109   3.331   0.882  0.1034  0.0241 -0.0262
  646PEP     CB22160  23.961   3.013   0.573  0.1471  0.1922 -0.1982
  647PEP     CB22161  19.212   4.681  12.970  0.1796 -0.2973  0.3749
  647PEP     CB22162  18.843   4.869  12.633  0.2475 -0.0299  0.0997
  647PEP     CB22163  18.728   5.098  12.277  0.0004  0.0351  0.0178
  647PEP     CB22164  18.483   5.295  11.988 -0.1014 -0.4797  0.0741
  647PEP     CB22165  18.103   5.482  11.740  0.1934 -0.1858 -0.2824
  647PEP     CB22166  18.002   5.877  11.641  0.0266  0.3125 -0.3338
  647PEP     CB22167  18.069   6.103  11.272  0.1535  0.2590 -0.1118
  647PEP     CB22168  18.145   6.143  10.764  0.1329  0.2006 -0.4249
  647PEP     CB22169  18.138   5.994  10.421  0.0886  0.0100 -0.0763
  647PEP     CB22170  17.883   5.593  10.256  0.1256  0.0282  0.4701
  647PEP     CB22171  17.850   5.088  10.332  0.0538 -0.0185  0.0017
  647PEP     CB22172  18.179   4.783  10.182 -0.0523  0.0659 -0.3124
  647PEP     CB22173  18.555   4.727   9.992  0.0839 -0.1218 -0.3395
  647PEP     CB22174  18.863   4.539   9.761  0.0773 -0.0919  0.2929
  647PEP     CB22175  19.207   4.282   9.485 -0.0259  0.3372  0.1957
  647PEP     CB22176  19.497   3.968   9.400  0.1868 -0.3581 -0.0166
  647PEP     CB22177  19.862   3.790   9.281 -0.4272 -0.0034  0.2429
  647PEP     CB22178  20.033   3.391   9.230  0.1141  0.0195  0.2808
  647PEP     CB22179  20.078   2.892   9.132  0.1260 -0.1001 -0.1905
  647PEP     CB22180  19.662   2.724   9.238 -0.0051  0.2886  0.2020
  647PEP     CB22181  19.287   2.914   9.164 -0.1385  0.2595 -0.5592
  647PEP     CB22182  19.197   3.320   9.017 -0.2049  0.1280  0.0592
  647PEP     CB22183  19.175   3.720   9.081 -0.2592 -0.2628 -0.2624
  647PEP     CB22184  18.848   4.157   9.120 -0.0117 -0.0409  0.2254
  647PEP     CB22185  18.411   4.274   9.338  0.1211 -0.1906 -0.1907
  647PEP     CB22186  18.292   4.556   9.623 -0.0272  0.2677  0.5195
  647PEP     CB22187  18.237   5.000   9.582  0.0889 -0.0369 -0.1117
  647PEP     CB22188  18.311   5.245   9.193  0.0023  0.0799  0.0471
  647PEP     CB22189  18.568   5.111   8.791  0.3002 -0.2726 -0.0270
  647PEP     CB22190  18.545   4.917   8.452 -0.1904 -0.2629  0.0500
  647PEP     CB22191  18.425   4.568   8.268  0.0033  0.1087  0.2907
  647PEP     CB22192  18.049   4.301   8.023  0.5745 -0.1103 -0.5978
  647PEP     CB22193  17.629   4.321   7.915  0.2380 -0.2662  0.0834
  647PEP     CB22194  17.288   4.581   7.911  0.1683  0.0503  0.5465
  647PEP     CB22195  17.310   5.056   7.833  0.3815 -0.2313 -0.3218
  647PEP     CB22196  17.748   5.155   7.859  0.0903  0.3428 -0.3506
  647PEP     CB22197  17.968   4.816   8.015  0.2330  0.1438  0.1468
  647PEP     CB22198  17.739   4.599   8.416  0.0413  0.1845 -0.1046
  647PEP     CB22199  17.367   4.749   8.804 -0.0277  0.1809 -0.3618
  647PEP     CB22200  17.036   5.007   8.936 -0.2633  0.2499  0.0080
  648PEP     CB22201   8.643   6.874  18.191 -0.0535 -0.0756  0.3545
  648PEP     CB22202   9.067   6.851  18.300 -0.2440  0.0513 -0.2417
  648PEP     CB22203   9.485   6.742  18.263  0.0938  0.1604 -0.3237
  648PEP     CB22204   9.775   6.399  18.287  0.2863 -0.0267  0.1879
  648PEP     CB22205   9.957   6.071  18.171  0.0584  0.2010 -0.0360
  648PEP     CB22206  10.363   5.880  18.165 -0.3072  0.0776  0.5677
  648PEP     CB22207  10.860   5.809  18.245 -0.0678 -0.2982  0.0551
  648PEP     CB22208  11.181   5.586  18.341 -0.1082 -0.0078 -0.1475
  648PEP     CB22209  11.580   5.564  18.270  0.2665 -0.1296 -0.2905
  648PEP     CB22210  12.045   5.552  18.167 -0.1073  0.2283 -0.1126
  648PEP     CB22211  12.431   5.299  18.067 -0.3264 -0.3380 -0.0273
  648PEP     CB22212  12.677   5.021  17.816  0.0126  0.0479 -0.0435
  648PEP     CB22213  12.936   4.770  17.538  0.2705 -0.0011  0.1751
  648PEP     CB22214  13.148   4.438  17.536 -0.1217 -0.3036  0.0526
  648PEP     CB22215  13.333   4.187  17.779  0.0619  0.1412 -0.1418
  648PEP     CB22216  13.418   4.316  18.269 -0.2116  0.0865 -0.5517
  648PEP     CB22217  13.110   4.547  18.317  0.0165  0.5188  0.1851
  648PEP     CB22218  13.111   4.789  18.018 -0.1286 -0.2753  0.0484
  648PEP     CB22219  13.514   4.698  17.815  0.1667 -0.1251  0.2483
  648PEP     CB22220  13.794   4.299  17.949  0.2540 -0.1479 -0.0544
  648PEP     CB22221  13.736   3.826  18.034  0.1812 -0.0343  0.0473
  648PEP     CB22222  13.509   3.483  17.849 -0.0716  0.0396 -0.0725
  648PEP     CB22223  13.375   3.138  17.729 -0.1916 -0.2321  0.1392
  648PEP     CB22224  13.381   2.756  17.798 -0.1525  0.1284 -0.2604
  648PEP     CB22225  13.145   2.404  17.830 -0.0446 -0.3484 -0.0688
  648PEP     CB22226  12.917   2.178  17.619 -0.1426  0.2367  0.2577
  648PEP     CB22227  12.680   2.012  17.301 -0.4956 -0.0957 -0.0916
  648PEP     CB22228  12.737   1.890  16.828 -0.0374 -0.1492  0.1821
  648PEP     CB22229  12.942   2.130  16.535 -0.3430 -0.3601 -0.1808
  648PEP     CB22230  13.235   2.412  16.616  0.3039 -0.1470  0.2291
  648PEP     CB22231  13.767   2.385  16.563 -0.0965  0.4997 -0.0791
  648PEP     CB22232  14.234   2.273  16.644  0.0717  0.2902 -0.2565
  648PEP     CB22233  14.635   2.307  16.797  0.0344 -0.0766  0.2786
  648PEP     CB22234  14.838   2.362  17.266 -0.2225  0.1748  0.2277
  648PEP     CB22235  14.748   1.984  17.609  0.0587  0.1193 -0.1318
  648PEP     CB22236  14.852   1.743  17.986 -0.1334 -0.0544  0.0308
  648PEP     CB22237  14.964   1.869  18.407  0.0492  0.0766 -0.0626
  648PEP     CB22238  14.721   2.169  18.633  0.0115  0.0243  0.2567
  648PEP     CB22239  14.308   2.220  18.576  0.4445  0.3999  0.5145
  648PEP     CB22240  14.041   2.395  18.283 -0.0652  0.2929  0.3145
  649PEP     CB22241   2.277  10.582  10.248 -0.0410  0.1178 -0.0821
  649PEP     CB22242   2.043  10.854  10.503  0.3135 -0.0239  0.2263
  649PEP     CB22243   1.746  11.109  10.517 -0.3316 -0.0977 -0.6762
  649PEP     CB22244   1.444  11.393  10.505  0.4377  0.0774  0.0314
  649PEP     CB22245   1.087  11.556  10.700 -0.1234 -0.0089 -0.0997
  649PEP     CB22246   0.759  11.862  10.765  0.0628  0.0346  0.2955
  649PEP     CB22247   0.434  12.126  11.017  0.3744 -0.2202  0.1802
  649PEP     CB22248   0.260  12.234  11.355  0.2309 -0.0394  0.2523
  649PEP     CB22249   0.390  12.562  11.658 -0.3201  0.0494 -0.1831
  649PEP     CB22250   0.599  13.034  11.773  0.2312  0.1500  0.1014
  649PEP     CB22251   1.084  13.078  11.878  0.0946  0.4182 -0.3638
  649PEP     CB22252   1.380  12.774  12.037  0.1642 -0.2945 -0.0495
  649PEP     CB22253   1.594  12.455  12.088 -0.0899  0.1039  0.1445
  649PEP     CB22254   1.840  12.158  11.853  0.5931  0.0022 -0.1093
  649PEP     CB22255   1.823  12.138  11.454  0.0627  0.1259 -0.1835
  649PEP     CB22256   1.422  12.063  11.262 -0.0699  0.2353  0.2988
  649PEP     CB22257   1.084  11.796  11.335 -0.1650  0.0426  0.5080
  649PEP     CB22258   0.789  11.397  11.149 -0.1744  0.3509 -0.1818
  649PEP     CB22259   0.574  11.355  10.733 -0.0943 -0.2539 -0.0776
  649PEP     CB22260   0.614  11.537  10.413  0.0385 -0.2168  0.1782
  649PEP     CB22261   0.569  11.781   9.961 -0.0872  0.3978  0.1805
  649PEP     CB22262   0.507  11.893   9.539 -0.1564 -0.4110  0.0277
  649PEP     CB22263   0.248  12.186   9.261  0.3750 -0.0949 -0.0141
  649PEP     CB22264   0.147  12.378   8.880 -0.0090  0.0876 -0.3710
  649PEP     CB22265   0.395  12.463   8.481  0.0626  0.1909 -0.0785
  649PEP     CB22266   0.576  12.472   8.061  0.1069  0.0343  0.0180
  649PEP     CB22267   0.545  12.662   7.565  0.4111 -0.0958 -0.3750
  649PEP     CB22268   0.742  13.088   7.369  0.5447  0.0347 -0.0813
  649PEP     CB22269   1.149  13.244   7.337 -0.3040 -0.1033  0.1031
  649PEP     CB22270   1.608  13.332   7.446 -0.1279 -0.2558  0.1779
  649PEP     CB22271   1.965  13.170   7.239  0.1757 -0.5151 -0.2968
  649PEP     CB22272   1.984  12.832   6.915 -0.0643  0.1257 -0.4869
  649PEP     CB22273   1.760  12.503   6.695  0.0217 -0.5210 -0.1574
  649PEP     CB22274   1.597  12.077   6.569 -0.0894 -0.1011  0.1799
  649PEP     CB22275   1.514  11.669   6.708 -0.3764  0.0011  0.0169
  649PEP     CB22276   1.129  11.764   6.874 -0.1101  0.2186  0.2928
  649PEP     CB22277   1.043  12.214   6.954 -0.1312  0.3117 -0.3346
  649PEP     CB22278   1.278  12.580   7.001  0.0161 -0.0910 -0.0010
  649PEP     CB22279   1.356  12.956   6.891 -0.0071  0.2263  0.1680
  649PEP     CB22280   1.557  13.442   6.890 -0.1614 -0.3656  0.0874
  650PEP     CB22281  21.440   1.386   9.274 -0.0718  0.2077  0.0944
  650PEP     CB22282  21.743   1.325   9.406 -0.2786 -0.0543  0.3198
  650PEP     CB22283  21.965   1.140   9.659  0.0469  0.0016 -0.2854
  650PEP     CB22284  22.248   1.051  10.062  0.1846 -0.2197 -0.2326
  650PEP     CB22285  22.290   0.882  10.466  0.1801  0.0929  0.1459
  650PEP     CB22286  22.562   0.858  10.811 -0.2892  0.0789  0.4226
  650PEP     CB22287  22.795   0.686  11.200 -0.3037  0.0790  0.1744
  650PEP     CB22288  22.993   0.312  11.437  0.1973 -0.0225  0.1186
  650PEP     CB22289  23.034  -0.186  11.516  0.1662 -0.1454 -0.0094
  650PEP     CB22290  22.656  -0.407  11.383  0.3392  0.1538  0.0511
  650PEP     CB22291  22.404  -0.194  11.099 -0.3013  0.4879 -0.4312
  650PEP     CB22292  22.434  -0.158  10.545  0.2504  0.1529  0.2333
  650PEP     CB22293  22.459  -0.124  10.107 -0.4809 -0.2423 -0.3456
  650PEP     CB22294  22.333   0.165   9.842  0.0508  0.2414  0.1580
  650PEP     CB22295  22.105   0.564   9.879 -0.0447  0.1803 -0.3374
  650PEP     CB22296  21.802   0.852  10.118 -0.0473  0.4989 -0.0329
  650PEP     CB22297  21.358   0.847  10.384  0.7043  0.2512 -0.1996
  650PEP     CB22298  21.257   0.726  10.818 -0.0937  0.2738 -0.2696
  650PEP     CB22299  21.535   0.531  11.197  0.3066 -0.1703 -0.0924
  650PEP     CB22300  21.941   0.315  11.369 -0.1178  0.0686 -0.2539
  650PEP     CB22301  22.226   0.032  11.497 -0.2259  0.0612 -0.0208
  650PEP     CB22302  22.569   0.014  11.800  0.3665 -0.2711 -0.1586
  650PEP     CB22303  22.745   0.013  12.202  0.3037 -0.3263  0.3020
  650PEP     CB22304  22.816   0.056  12.555  0.1222  0.2551 -0.1896
  650PEP     CB22305  22.977   0.174  12.940  0.0839 -0.0238  0.0429
  650PEP     CB22306  23.240  -0.030  13.104 -0.1261  0.0123 -0.0665
  650PEP     CB22307  23.720   0.070  13.152  0.2100 -0.1032  0.1909
  650PEP     CB22308  24.066   0.211  13.101 -0.2068  0.2736 -0.0534
  650PEP     CB22309  24.366   0.515  13.167 -0.4316  0.4030  0.2728
  650PEP     CB22310  24.484   0.817  13.490  0.0205  0.1316 -0.0407
  650PEP     CB22311  24.276   1.099  13.500 -0.2129  0.2972  0.0787
  650PEP     CB22312  23.863   0.954  13.703  0.1583 -0.0458 -0.0832
  650PEP     CB22313  23.689   1.101  14.127  0.2997  0.0602 -0.2271
  650PEP     CB22314  23.902   1.480  14.324  0.2222 -0.4831 -0.0241
  650PEP     CB22315  23.891   1.902  14.154 -0.0880  0.2507  0.1378
  650PEP     CB22316  23.843   1.861  13.684 -0.1084 -0.0042  0.0365
  650PEP     CB22317  23.943   1.489  13.409  0.1908 -0.1047 -0.0307
  650PEP     CB22318  24.343   1.377  13.089 -0.0543 -0.1360  0.0408
  650PEP     CB22319  24.586   1.073  13.070  0.0247 -0.1320 -0.1702
  650PEP     CB22320  24.798   0.725  13.120  0.0080 -0.3289  0.1138
  651PEP     CB22321  19.632   3.953   6.676  0.5137  0.0228 -0.1867
  651PEP     CB22322  19.470   3.668   6.420  0.2284  0.0209  0.0610
  651PEP     CB22323  19.374   3.280   6.306  0.0700  0.4342 -0.1127
  651PEP     CB22324  19.203   2.885   6.503 -0.3644 -0.0605 -0.2116
  651PEP     CB22325  18.831   2.832   6.852  0.1080  0.0858 -0.1351
  651PEP     CB22326  18.488   3.081   7.057  0.4067  0.3009 -0.0179
  651PEP     CB22327  18.196   3.073   7.396  0.1718 -0.0766 -0.1529
  651PEP     CB22328  18.271   2.912   7.757  0.1377 -0.1191 -0.3986
  651PEP     CB22329  18.473   2.506   7.928  0.5224 -0.0509  0.0931
  651PEP     CB22330  18.377   2.072   8.055  0.3546  0.4372 -0.3002
  651PEP     CB22331  18.185   1.662   8.165 -0.1203 -0.1905 -0.2804
  651PEP     CB22332  18.186   1.210   8.158  0.2328 -0.0789  0.1817
  651PEP     CB22333  18.133   0.802   8.063  0.1809  0.1704  0.2159
  651PEP     CB22334  17.874   0.455   8.001  0.2662  0.1272  0.2384
  651PEP     CB22335  17.654   0.035   7.962 -0.1307  0.3938  0.0955
  651PEP     CB22336  17.426  -0.389   7.809 -0.2597  0.3193  0.0945
  651PEP     CB22337  17.514  -0.642   7.424 -0.1125  0.0531  0.1545
  651PEP     CB22338  17.876  -0.901   7.339 -0.0735 -0.2144  0.4007
  651PEP     CB22339  18.053  -1.311   7.201 -0.4306  0.0812  0.2366
  651PEP     CB22340  18.338  -1.599   7.270  0.1723  0.0943  0.3060
  651PEP     CB22341  18.793  -1.664   7.309 -0.2874 -0.1432  0.0178
  651PEP     CB22342  19.204  -1.410   7.104  0.0732 -0.1462  0.0300
  651PEP     CB22343  19.374  -1.281   6.764  0.4755  0.3951  0.3147
  651PEP     CB22344  19.503  -1.482   6.415 -0.1356 -0.0757 -0.3641
  651PEP     CB22345  19.439  -1.529   5.959  0.0138 -0.1974  0.1140
  651PEP     CB22346  19.515  -1.794   5.638  0.0181 -0.0013 -0.0373
  651PEP     CB22347  19.843  -2.136   5.556  0.1823  0.0134  0.2379
  651PEP     CB22348  20.031  -2.509   5.701  0.0213 -0.3644  0.4278
  651PEP     CB22349  20.481  -2.648   5.639 -0.1557 -0.0779  0.0464
  651PEP     CB22350  20.919  -2.607   5.610  0.0557 -0.0751  0.0118
  651PEP     CB22351  21.265  -2.698   5.390 -0.3208 -0.2697 -0.1937
  651PEP     CB22352  21.643  -2.746   5.600  0.2166  0.1251  0.2192
  651PEP     CB22353  21.760  -2.405   5.956 -0.1220  0.0129  0.1350
  651PEP     CB22354  21.668  -1.967   5.948 -0.0502 -0.3612  0.3574
  651PEP     CB22355  21.652  -1.526   5.839  0.0715 -0.3073 -0.2333
  651PEP     CB22356  21.726  -1.132   5.593 -0.0520 -0.2190  0.2248
  651PEP     CB22357  21.764  -0.993   5.271 -0.1743  0.0210  0.0591
  651PEP     CB22358  21.601  -0.891   4.965 -0.0293  0.1149 -0.1442
  651PEP     CB22359  21.498  -0.464   4.704 -0.0577 -0.2154  0.2665
  651PEP     CB22360  21.405  -0.094   4.631 -0.0344  0.1655 -0.0861
  652PEP     CB22361   9.367  13.077  21.193  0.2728  0.2243  0.2215
  652PEP     CB22362   9.195  13.103  20.829  0.3734  0.2299  0.0945
  652PEP     CB22363   9.388  12.928  20.495 -0.0530  0.0260 -0.0804
  652PEP     CB22364   9.681  12.638  20.522 -0.1703 -0.2259  0.4787
  652PEP     CB22365   9.969  12.464  20.751  0.1386  0.1407 -0.0853
  652PEP     CB22366   9.923  12.174  21.080 -0.1959  0.3003 -0.3660
  652PEP     CB22367   9.966  11.831  21.302 -0.0911  0.0201  0.5190
  652PEP     CB22368  10.206  11.707  21.632  0.2878  0.0384 -0.1163
  652PEP     CB22369  10.451  11.573  21.982  0.1194 -0.1821 -0.3131
  652PEP     CB22370  10.624  11.720  22.258  0.0273  0.1866 -0.2973
  652PEP     CB22371  10.979  11.898  22.151  0.0751  0.0978  0.0657
  652PEP     CB22372  11.066  12.025  21.830  0.2668 -0.1094  0.0855
  652PEP     CB22373  10.800  11.947  21.451 -0.4279 -0.1486  0.0505
  652PEP     CB22374  10.543  11.661  21.266 -0.2761 -0.2834  0.1148
  652PEP     CB22375  10.221  11.448  21.008 -0.1331  0.1371 -0.0264
  652PEP     CB22376   9.791  11.462  21.064  0.0962 -0.0616  0.6677
  652PEP     CB22377   9.383  11.578  21.012 -0.1105 -0.0557 -0.1799
  652PEP     CB22378   8.923  11.567  20.991 -0.0962  0.4160 -0.4085
  652PEP     CB22379   8.505  11.646  20.874  0.1974  0.1129  0.1272
  652PEP     CB22380   8.050  11.844  20.780 -0.0389 -0.3840 -0.1532
  652PEP     CB22381   7.792  12.225  20.755  0.2594  0.1622 -0.2106
  652PEP     CB22382   7.622  12.561  20.901  0.3470 -0.0310 -0.0717
  652PEP     CB22383   7.217  12.750  21.008  0.2919  0.1269 -0.1317
  652PEP     CB22384   6.923  13.067  21.032  0.3017 -0.0717 -0.1059
  652PEP     CB22385   6.602  13.275  20.917 -0.3329  0.1424  0.0562
  652PEP     CB22386   6.244  13.395  20.884  0.3731  0.2729  0.1742
  652PEP     CB22387   6.018  13.721  20.680 -0.2094  0.1339  0.3423
  652PEP     CB22388   6.250  14.073  20.432  0.4802  0.1355  0.1133
  652PEP     CB22389   6.548  14.295  20.405  0.2218  0.0336  0.2698
  652PEP     CB22390   6.955  14.455  20.479 -0.2615  0.1581  0.0481
  652PEP     CB22391   7.265  14.610  20.698  0.2208  0.1767 -0.3868
  652PEP     CB22392   7.684  14.601  20.697  0.0873  0.3301  0.1636
  652PEP     CB22393   8.110  14.535  20.824  0.0625 -0.0539 -0.2365
  652PEP     CB22394   8.595  14.573  20.926  0.2117 -0.1360 -0.1287
  652PEP     CB22395   9.010  14.700  20.877 -0.2564 -0.3775 -0.4521
  652PEP     CB22396   9.369  14.763  21.174 -0.1867 -0.1563 -0.4736
  652PEP     CB22397   9.380  14.795  21.600 -0.0422  0.0169 -0.3992
  652PEP     CB22398   9.227  14.498  21.898 -0.2325  0.1046  0.0551
  652PEP     CB22399   8.860  14.303  21.842 -0.0955  0.0105  0.0979
  652PEP     CB22400   8.455  14.390  21.733  0.0503 -0.2484  0.0135
  653PEP     CB22401   4.009  19.766   5.274 -0.2505 -0.0563  0.0248
  653PEP     CB22402   4.228  20.091   5.318 -0.1081  0.0306 -0.3198
  653PEP     CB22403   4.442  20.377   5.627 -0.3664  0.0775  0.2868
  653PEP     CB22404   4.694  20.672   5.879  0.3173  0.0417  0.2478
  653PEP     CB22405   5.120  20.767   6.178  0.2569  0.2493 -0.4210
  653PEP     CB22406   5.263  20.934   6.521  0.1672 -0.2976 -0.1842
  653PEP     CB22407   5.138  20.902   6.965 -0.3360 -0.3615 -0.0043
  653PEP     CB22408   5.100  20.661   7.286 -0.4836 -0.1650 -0.2067
  653PEP     CB22409   4.930  20.505   7.760  0.1388 -0.1924  0.1738
  653PEP     CB22410   4.977  20.525   8.256  0.0038 -0.2478  0.1302
  653PEP     CB22411   4.994  20.766   8.674 -0.0691  0.0518 -0.3057
  653PEP     CB22412   4.828  20.663   9.000  0.2138  0.1802 -0.2074
  653PEP     CB22413   4.828  20.652   9.466 -0.2433  0.1076  0.1604
  653PEP     CB22414   4.781  20.685   9.891  0.0714 -0.4359  0.0518
  653PEP     CB22415   4.530  20.928  10.213 -0.0763 -0.2505  0.0040
  653PEP     CB22416   4.368  21.266  10.533 -0.0099  0.2908 -0.0597
  653PEP     CB22417   4.148  21.281  10.922  0.1865  0.3724 -0.1221
  653PEP     CB22418   3.885  21.148  11.220 -0.4930  0.0383 -0.3741
  653PEP     CB22419   3.886  21.301  11.692 -0.0118 -0.1255 -0.2260
  653PEP     CB22420   4.129  21.562  11.819  0.0248  0.0494  0.3455
  653PEP     CB22421   4.226  21.951  11.601 -0.1896  0.4124 -0.0202
  653PEP     CB22422   3.892  22.109  11.337  0.2072  0.3140  0.3934
  653PEP     CB22423   3.502  22.055  11.198  0.2215  0.1513  0.0839
  653PEP     CB22424   3.131  21.965  11.318 -0.0664 -0.3348 -0.3556
  653PEP     CB22425   2.838  22.011  11.546 -0.0987 -0.1372 -0.3286
  653PEP     CB22426   2.600  22.154  11.930  0.0932  0.0722 -0.2837
  653PEP     CB22427   2.181  22.220  12.162 -0.0658 -0.4142 -0.1987
  653PEP     CB22428   1.935  22.407  12.470 -0.1439 -0.0935 -0.3811
  653PEP     CB22429   1.712  22.393  12.727  0.2739 -0.5522 -0.3079
  653PEP     CB22430   1.388  22.422  12.860 -0.1459  0.1729 -0.1700
  653PEP     CB22431   1.256  22.599  13.170 -0.3050 -0.1346  0.2745
  653PEP     CB22432   1.524  22.602  13.553  0.0653  0.0956 -0.1244
  653PEP     CB22433   1.655  22.171  13.695  0.2642  0.1442 -0.2225
  653PEP     CB22434   1.295  21.784  13.592 -0.0679 -0.2996 -0.0149
  653PEP     CB22435   0.983  21.556  13.622 -0.0368 -0.0005 -0.0778
  653PEP     CB22436   0.654  21.614  13.868 -0.1781  0.3096 -0.2016
  653PEP     CB22437   0.533  21.568  14.339 -0.2719 -0.0674 -0.1591
  653PEP     CB22438   0.237  21.717  14.718 -0.2593 -0.2301 -0.1877
  653PEP     CB22439  -0.115  21.733  15.056 -0.1845 -0.0859  0.0554
  653PEP     CB22440  -0.577  21.617  15.232  0.1919  0.4974  0.1177
  654PEP     CB22441  19.567  13.160  10.020 -0.4345  0.2262  0.0580
  654PEP     CB22442  19.179  12.935  10.240 -0.2104 -0.1498  0.0493
  654PEP     CB22443  18.840  12.920  10.105 -0.0458 -0.1571  0.0780
  654PEP     CB22444  18.380  12.870  10.113 -0.0024 -0.1246  0.0365
  654PEP     CB22445  18.163  12.711  10.477 -0.3434  0.2232  0.0322
  654PEP     CB22446  18.187  12.778  10.912  0.4154 -0.2189 -0.0638
  654PEP     CB22447  18.469  12.609  11.208  0.1192 -0.1691 -0.1301
  654PEP     CB22448  18.789  12.300  11.340  0.2798  0.1723  0.1512
  654PEP     CB22449  19.120  12.022  11.229 -0.0066  0.1251 -0.1430
  654PEP     CB22450  19.280  11.603  10.950  0.2105  0.0606 -0.3753
  654PEP     CB22451  19.380  11.193  10.963 -0.3231  0.0420 -0.0455
  654PEP     CB22452  19.477  10.851  10.682  0.0413  0.1343 -0.1405
  654PEP     CB22453  19.701  10.525  10.436 -0.2630 -0.0799  0.0036
  654PEP     CB22454  19.898  10.262  10.072 -0.0113  0.1199  0.1327
  654PEP     CB22455  19.967  10.198   9.610  0.0605  0.0299 -0.0007
  654PEP     CB22456  20.130   9.944   9.269  0.1551  0.0039  0.0506
  654PEP     CB22457  20.513   9.987   9.007 -0.2307  0.1367  0.0814
  654PEP     CB22458  20.615  10.339   8.772 -0.2394 -0.1528 -0.2324
  654PEP     CB22459  20.556  10.657   8.508 -0.3427  0.3437  0.1558
  654PEP     CB22460  20.135  10.778   8.299 -0.3828  0.0485  0.1092
  654PEP     CB22461  19.879  10.657   7.883 -0.2499  0.0748 -0.2107
  654PEP     CB22462  19.585  10.412   7.601 -0.0965 -0.1522  0.1115
  654PEP     CB22463  19.386  10.001   7.561 -0.0381  0.2341  0.0440
  654PEP     CB22464  19.210   9.715   7.915 -0.2766 -0.1162 -0.0631
  654PEP     CB22465  19.419   9.773   8.305  0.3876  0.2505  0.0832
  654PEP     CB22466  19.819   9.815   8.401 -0.2823 -0.0873  0.1178
  654PEP     CB22467  20.159   9.785   8.167  0.1182 -0.0166 -0.2394
  654PEP     CB22468  20.288   9.704   7.832  0.1723 -0.0992  0.0016
  654PEP     CB22469  20.535   9.978   7.670 -0.0479  0.1143 -0.1374
  654PEP     CB22470  20.770  10.330   7.493  0.0780 -0.4261 -0.1477
  654PEP     CB22471  21.140  10.330   7.326  0.1349 -0.2053  0.2810
  654PEP     CB22472  21.421  10.015   7.117 -0.1365 -0.2667  0.1025
  654PEP     CB22473  21.588   9.705   7.249 -0.2433  0.1221 -0.0496
  654PEP     CB22474  21.915   9.455   7.400  0.2434  0.0342  0.0587
  654PEP     CB22475  22.160   9.144   7.442  0.3412  0.3827  0.1232
  654PEP     CB22476  22.621   8.984   7.476  0.0722 -0.1003 -0.1373
  654PEP     CB22477  23.031   9.002   7.420 -0.2204  0.2111 -0.0513
  654PEP     CB22478  23.420   9.228   7.526  0.3054 -0.1805 -0.3171
  654PEP     CB22479  23.490   9.631   7.358  0.0213  0.3208  0.0275
  654PEP     CB22480  23.355  10.025   7.443  0.0997  0.3115 -0.2101
  655PEP     CB22481   3.946   5.387   7.299  0.1025 -0.1007 -0.1254
  655PEP     CB22482   3.731   5.148   7.656  0.1843 -0.1865 -0.0021
  655PEP     CB22483   3.819   4.901   8.006 -0.2426 -0.0600 -0.1894
  655PEP     CB22484   4.208   4.941   8.237 -0.1476 -0.4872 -0.2040
  655PEP     CB22485   4.367   5.378   8.057 -0.0409 -0.2144 -0.0897
  655PEP     CB22486   4.059   5.671   7.794  0.2451 -0.1842  0.0412
  655PEP     CB22487   3.651   5.857   7.898  0.1045  0.0446 -0.4439
  655PEP     CB22488   3.467   5.902   8.334 -0.3660  0.1121 -0.2532
  655PEP     CB22489   3.323   5.628   8.678  0.1004 -0.0583  0.0867
  655PEP     CB22490   2.975   5.397   8.997 -0.1875 -0.0975  0.1624
  655PEP     CB22491   2.680   5.530   9.353  0.0159 -0.1944 -0.1075
  655PEP     CB22492   2.503   5.497   9.818 -0.1333 -0.3589 -0.0367
  655PEP     CB22493   2.206   5.241  10.138 -0.0282  0.3975 -0.0782
  655PEP     CB22494   2.197   4.904  10.175 -0.0893  0.3439 -0.2762
  655PEP     CB22495   2.432   4.506  10.023 -0.4499 -0.3272 -0.1790
  655PEP     CB22496   2.528   4.092   9.879 -0.4058  0.1200 -0.0183
  655PEP     CB22497   2.561   3.683   9.900 -0.1456  0.0114 -0.0410
  655PEP     CB22498   2.727   3.222  10.068 -0.0947  0.2876 -0.1386
  655PEP     CB22499   2.574   2.774  10.179 -0.0941 -0.3589  0.1463
  655PEP     CB22500   2.324   2.527   9.899 -0.0321  0.3151  0.0178
  655PEP     CB22501   1.954   2.728   9.637 -0.1322 -0.1247  0.2305
  655PEP     CB22502   1.535   2.976   9.832  0.2325 -0.2331  0.0624
  655PEP     CB22503   1.193   3.147  10.004  0.1133 -0.1520  0.4110
  655PEP     CB22504   0.810   3.093  10.335 -0.3197  0.2927  0.0446
  655PEP     CB22505   0.379   3.219  10.451  0.2554  0.0339 -0.1277
  655PEP     CB22506   0.191   3.524  10.412  0.0509  0.0191  0.7114
  655PEP     CB22507   0.275   3.947  10.446  0.2299  0.0821  0.1092
  655PEP     CB22508   0.714   3.963  10.454 -0.1556 -0.4314  0.1495
  655PEP     CB22509   1.046   3.899  10.750 -0.1651 -0.0756 -0.0146
  655PEP     CB22510   1.155   3.730  11.210 -0.3175 -0.2857 -0.0037
  655PEP     CB22511   0.897   3.485  11.465 -0.1120  0.0593 -0.3369
  655PEP     CB22512   0.728   3.101  11.433  0.1264 -0.0504 -0.0319
  655PEP     CB22513   0.909   2.638  11.274 -0.3052 -0.4662  0.0885
  655PEP     CB22514   0.856   2.432  10.928 -0.2537  0.1155 -0.3403
  655PEP     CB22515   0.986   2.118  10.517  0.0751  0.1505  0.0078
  655PEP     CB22516   1.235   1.929  10.475  0.1156  0.1598 -0.3034
  655PEP     CB22517   1.547   1.978  10.711 -0.2563 -0.2801 -0.0380
  655PEP     CB22518   1.768   2.082  11.184 -0.0025  0.1345  0.3217
  655PEP     CB22519   1.759   2.114  11.656  0.0632 -0.1862  0.3387
  655PEP     CB22520   2.118   2.105  11.955  0.2433  0.4709  0.3031
  656PEP     CB22521   8.716  21.573  20.443  0.0527  0.2468  0.1347
  656PEP     CB22522   9.140  21.658  20.056  0.2058 -0.2083  0.1315
  656PEP     CB22523   9.045  22.014  19.777  0.0405 -0.0463  0.1386
  656PEP     CB22524   8.740  22.344  19.855  0.0665 -0.4982  0.0857
  656PEP     CB22525   8.469  22.747  19.768  0.0756 -0.1801  0.2358
  656PEP     CB22526   8.083  22.985  19.731  0.0497 -0.1559 -0.1747
  656PEP     CB22527   7.939  23.376  19.939 -0.0413  0.0561 -0.1597
  656PEP     CB22528   7.647  23.766  19.980 -0.1156 -0.0888  0.1866
  656PEP     CB22529   7.416  24.160  20.148 -0.1249 -0.5243 -0.0675
  656PEP     CB22530   7.288  24.604  20.161 -0.5288 -0.2946  0.1865
  656PEP     CB22531   7.289  24.991  20.382 -0.1517 -0.2729 -0.0100
  656PEP     CB22532   7.648  25.241  20.443  0.0480 -0.4513  0.4378
  656PEP     CB22533   7.838  25.507  20.246  0.1166 -0.0242  0.0654
  656PEP     CB22534   8.288  25.626  20.107  0.0835  0.0589  0.1303
  656PEP     CB22535   8.480  25.577  19.728 -0.2182  0.0794  0.0678
  656PEP     CB22536   8.845  25.342  19.479 -0.2910 -0.4753  0.2841
  656PEP     CB22537   9.260  25.295  19.212 -0.1819  0.0114  0.2024
  656PEP     CB22538   9.543  25.638  19.032  0.3511 -0.0224 -0.1223
  656PEP     CB22539   9.550  26.068  18.956  0.0944  0.1364 -0.2698
  656PEP     CB22540   9.347  26.453  18.891  0.4182  0.1623 -0.0229
  656PEP     CB22541   9.247  26.866  18.712  0.3120 -0.1252 -0.0456
  656PEP     CB22542   9.154  27.099  18.378 -0.0801 -0.0048 -0.2827
  656PEP     CB22543   9.456  27.446  18.292 -0.0730  0.2612  0.0251
  656PEP     CB22544   9.676  27.660  18.560 -0.0978 -0.3769  0.0893
  656PEP     CB22545   9.687  27.756  19.040 -0.0016  0.0605  0.0026
  656PEP     CB22546   9.332  28.027  19.223 -0.0754  0.1693  0.1115
  656PEP     CB22547   9.029  27.754  19.280 -0.2416 -0.2765 -0.1543
  656PEP     CB22548   9.215  27.380  19.475  0.3919  0.2157 -0.2260
  656PEP     CB22549   9.559  27.359  19.740 -0.3853 -0.0457  0.0152
  656PEP     CB22550   9.680  27.613  20.027  0.0852 -0.0109 -0.2267
  656PEP     CB22551   9.632  28.012  20.288 -0.0686 -0.1604  0.0531
  656PEP     CB22552   9.493  28.256  20.600 -0.0895  0.2162 -0.1486
  656PEP     CB22553   9.190  28.503  20.842 -0.2368  0.0655 -0.1766
  656PEP     CB22554   8.859  28.552  21.055  0.0510  0.1914 -0.0994
  656PEP     CB22555   8.671  28.275  21.420  0.1237  0.3615 -0.3629
  656PEP     CB22556   8.315  28.270  21.619  0.1928  0.1208 -0.1317
  656PEP     CB22557   8.143  28.635  21.925  0.2780  0.1506 -0.2490
  656PEP     CB22558   8.236  29.054  21.922  0.0371 -0.0416  0.2902
  656PEP     CB22559   8.362  29.210  21.516  0.1588 -0.3976 -0.2990
  656PEP     CB22560   8.416  29.541  21.178 -0.1187  0.1862  0.0386
  657PEP     CB22561   2.541   8.685   2.263 -0.1326 -0.0759  0.3122
  657PEP     CB22562   2.243   8.898   1.951  0.0985  0.0323  0.3342
  657PEP     CB22563   2.314   9.144   1.617 -0.0014  0.0649 -0.0852
  657PEP     CB22564   2.456   9.459   1.425  0.0497  0.1513  0.0187
  657PEP     CB22565   2.823   9.572   1.279  0.0083  0.0469 -0.0833
  657PEP     CB22566   3.270   9.393   1.324  0.2650  0.0280 -0.0541
  657PEP     CB22567   3.476   8.994   1.201  0.1963 -0.0425  0.0681
  657PEP     CB22568   3.913   8.710   1.079 -0.0381  0.0333  0.3797
  657PEP     CB22569   4.197   8.616   0.818  0.1831  0.1077 -0.0635
  657PEP     CB22570   4.346   8.494   0.410  0.0081 -0.2555  0.0440
  657PEP     CB22571   4.528   8.234   0.129  0.2959 -0.0520  0.0484
  657PEP     CB22572   4.409   7.920  -0.221  0.0689  0.4213 -0.4483
  657PEP     CB22573   4.284   7.889  -0.686 -0.1423 -0.1000  0.2505
  657PEP     CB22574   4.114   7.870  -1.073 -0.0763  0.0061  0.1197
  657PEP     CB22575   4.086   7.791  -1.538 -0.1228 -0.3241  0.1071
  657PEP     CB22576   4.127   7.907  -1.905  0.2511 -0.0793  0.2784
  657PEP     CB22577   4.471   8.112  -2.095  0.1347 -0.2798 -0.4706
  657PEP     CB22578   4.603   8.565  -2.007 -0.1296  0.2802 -0.0617
  657PEP     CB22579   4.585   8.884  -1.681  0.2205  0.1331  0.0602
  657PEP     CB22580   4.753   9.028  -1.312  0.3111 -0.0046 -0.0697
  657PEP     CB22581   5.062   8.689  -1.196 -0.2216 -0.2463 -0.1295
  657PEP     CB22582   4.984   8.238  -1.388  0.0637 -0.2469 -0.0438
  657PEP     CB22583   4.639   8.082  -1.136  0.5013  0.0346 -0.0220
  657PEP     CB22584   4.572   8.327  -0.794  0.0575 -0.1735 -0.0467
  657PEP     CB22585   4.561   8.736  -0.858  0.0341 -0.1786 -0.0097
  657PEP     CB22586   4.262   9.067  -0.855  0.4064  0.3170 -0.0169
  657PEP     CB22587   3.969   9.388  -0.932  0.0258  0.1882  0.2994
  657PEP     CB22588   3.878   9.912  -0.750  0.6931 -0.3610  0.2202
  657PEP     CB22589   3.898  10.007  -0.352 -0.0849  0.1771 -0.1234
  657PEP     CB22590   3.759  10.203   0.036 -0.1766 -0.0395  0.1256
  657PEP     CB22591   3.477  10.382   0.317 -0.2001  0.1094  0.1646
  657PEP     CB22592   3.136  10.560   0.395  0.1203  0.2475  0.0959
  657PEP     CB22593   2.835  10.770   0.215 -0.1099  0.0020  0.0054
  657PEP     CB22594   2.677  11.116   0.035 -0.1683  0.1731 -0.0501
  657PEP     CB22595   2.521  11.404  -0.353  0.3020  0.4077  0.3679
  657PEP     CB22596   2.120  11.717  -0.310  0.1215  0.2408  0.0484
  657PEP     CB22597   1.839  11.682   0.095  0.1267  0.1445  0.0809
  657PEP     CB22598   1.811  11.369   0.409 -0.1686  0.3587  0.1006
  657PEP     CB22599   1.752  10.972   0.444  0.1516  0.1234  0.0434
  657PEP     CB22600   1.885  10.558   0.517  0.1323 -0.1137  0.3908
  658PEP     CB22601  21.328   6.818  20.986 -0.2394 -0.0264 -0.2597
  658PEP     CB22602  21.147   6.694  21.357 -0.2871 -0.3296  0.0149
  658PEP     CB22603  20.880   6.460  21.606 -0.0406  0.2424  0.1159
  658PEP     CB22604  20.836   6.066  21.830 -0.1961  0.0817 -0.2457
  658PEP     CB22605  20.585   5.676  22.006  0.1493 -0.1214 -0.5737
  658PEP     CB22606  20.152   5.532  21.988 -0.5154  0.0003  0.3385
  658PEP     CB22607  19.711   5.463  22.014  0.0292 -0.0989  0.3814
  658PEP     CB22608  19.269   5.617  21.803  0.2907 -0.0533  0.1894
  658PEP     CB22609  19.067   5.835  21.557 -0.0999 -0.1473  0.1120
  658PEP     CB22610  18.628   5.737  21.356  0.0252 -0.3330  0.0995
  658PEP     CB22611  18.219   5.670  21.151 -0.0531 -0.3488 -0.2468
  658PEP     CB22612  17.767   5.609  21.120 -0.3015  0.4649 -0.0884
  658PEP     CB22613  17.367   5.581  21.048  0.3328  0.2326  0.0079
  658PEP     CB22614  16.967   5.882  20.920  0.1110  0.0930 -0.0407
  658PEP     CB22615  16.839   6.317  20.648  0.3315 -0.2575 -0.0893
  658PEP     CB22616  16.694   6.733  20.652  0.0797  0.1538  0.1902
  658PEP     CB22617  16.511   7.093  20.819 -0.1510  0.3959  0.2379
  658PEP     CB22618  16.437   7.455  21.060 -0.0151  0.1359  0.1667
  658PEP     CB22619  16.154   7.567  21.378  0.4338 -0.1932 -0.2906
  658PEP     CB22620  15.695   7.501  21.619 -0.1230 -0.0239 -0.0239
  658PEP     CB22621  15.562   7.489  22.094  0.0837 -0.1672 -0.2808
  658PEP     CB22622  15.412   7.265  22.410 -0.1287  0.3388 -0.4055
  658PEP     CB22623  15.312   6.843  22.368 -0.3241 -0.0077 -0.3855
  658PEP     CB22624  15.625   6.499  22.511  0.4451  0.2006 -0.3378
  658PEP     CB22625  16.070   6.524  22.609  0.1894  0.0588 -0.1979
  658PEP     CB22626  16.332   6.771  22.793  0.0327  0.0506  0.3872
  658PEP     CB22627  16.785   6.900  23.012 -0.2498 -0.4734  0.3037
  658PEP     CB22628  17.174   6.966  23.001 -0.1490  0.2680 -0.0429
  658PEP     CB22629  17.534   6.685  23.010 -0.2549  0.1367  0.0587
  658PEP     CB22630  17.763   6.561  23.429  0.1241 -0.0043  0.0685
  658PEP     CB22631  17.657   6.211  23.782 -0.3681 -0.0591 -0.3648
  658PEP     CB22632  17.326   5.913  23.728  0.3839 -0.2308  0.2585
  658PEP     CB22633  17.218   5.624  23.421 -0.1621 -0.3802  0.1928
  658PEP     CB22634  17.256   5.151  23.457 -0.1437 -0.2000 -0.1694
  658PEP     CB22635  17.456   4.795  23.752  0.2211  0.0086 -0.0887
  658PEP     CB22636  17.888   4.689  23.824  0.1529  0.2393  0.0779
  658PEP     CB22637  18.296   4.832  24.125 -0.1788 -0.0544  0.0862
  658PEP     CB22638  18.631   4.676  24.208 -0.0570  0.1357  0.2881
  658PEP     CB22639  18.978   4.464  23.966 -0.1478  0.3805  0.2246
  658PEP     CB22640  19.110   4.562  23.570 -0.1246  0.5868 -0.2221
  659PEP     CB22641  19.504  11.307   3.708 -0.0089  0.0761 -0.1386
  659PEP     CB22642  19.988  11.136   3.728 -0.1030 -0.3474 -0.0617
  659PEP     CB22643  20.176  10.676   3.748 -0.0752  0.2269  0.0309
  659PEP     CB22644  20.316  10.292   3.739  0.2169 -0.3324  0.2616
  659PEP     CB22645  20.536   9.895   3.618  0.0902  0.2843  0.0070
  659PEP     CB22646  20.632   9.744   3.226  0.6053 -0.0402 -0.2437
  659PEP     CB22647  20.624  10.000   2.849 -0.3707 -0.2592  0.0169
  659PEP     CB22648  20.304  10.394   2.811 -0.0348 -0.1977  0.2405
  659PEP     CB22649  19.917  10.375   2.967  0.0669 -0.0046 -0.3854
  659PEP     CB22650  19.616  10.036   3.024 -0.1417 -0.0147  0.0447
  659PEP     CB22651  19.551   9.591   2.990 -0.0125 -0.2322  0.1452
  659PEP     CB22652  19.842   9.148   2.989  0.1640 -0.3732 -0.0011
  659PEP     CB22653  19.859   8.657   3.262 -0.1554 -0.0846 -0.0352
  659PEP     CB22654  19.574   8.273   3.196 -0.0270 -0.1162 -0.0748
  659PEP     CB22655  19.176   8.110   3.010 -0.1734  0.0567  0.2418
  659PEP     CB22656  18.863   8.306   2.729 -0.3331  0.1022  0.1206
  659PEP     CB22657  18.771   8.647   2.467 -0.1504 -0.1489  0.0241
  659PEP     CB22658  18.429   8.975   2.428  0.0350 -0.2724 -0.1691
  659PEP     CB22659  18.013   9.018   2.383 -0.3277 -0.1897 -0.2628
  659PEP     CB22660  17.609   9.112   2.303  0.1728  0.0063 -0.0320
  659PEP     CB22661  17.204   8.965   2.046 -0.0189 -0.3703 -0.0387
  659PEP     CB22662  17.103   8.553   1.968  0.0906  0.1437 -0.0307
  659PEP     CB22663  17.186   8.172   2.189 -0.1314  0.1793 -0.0010
  659PEP     CB22664  17.473   7.983   2.524 -0.3267 -0.0690  0.2235
  659PEP     CB22665  17.815   7.967   2.916 -0.0486 -0.0874  0.3197
  659PEP     CB22666  18.216   7.855   3.131 -0.2055 -0.2307 -0.2640
  659PEP     CB22667  18.617   7.869   3.021 -0.0436 -0.0052 -0.1086
  659PEP     CB22668  18.982   7.688   2.925 -0.2064  0.3510  0.2738
  659PEP     CB22669  19.327   7.530   2.608 -0.3227  0.1616  0.2576
  659PEP     CB22670  19.551   7.718   2.197 -0.3171 -0.2635 -0.0598
  659PEP     CB22671  19.686   7.969   1.911 -0.0056  0.0218  0.0004
  659PEP     CB22672  19.672   8.161   1.513 -0.6286  0.0495  0.3747
  659PEP     CB22673  19.509   8.102   1.123 -0.1222  0.1835 -0.1236
  659PEP     CB22674  19.161   7.966   0.886  0.1497  0.0758 -0.0791
  659PEP     CB22675  19.104   8.101   0.430  0.0587 -0.2176  0.1710
  659PEP     CB22676  19.423   8.308   0.142 -0.1667 -0.3948 -0.1213
  659PEP     CB22677  19.360   8.588  -0.136  0.3163 -0.0889  0.0716
  659PEP     CB22678  19.210   8.740  -0.503  0.2175  0.1572 -0.2929
  659PEP     CB22679  18.857   8.771  -0.691 -0.0312  0.0949 -0.0653
  659PEP     CB22680  18.456   8.953  -0.715 -0.4689  0.3528  0.1018
  660PEP     CB22681   8.414  19.079   3.123  0.0383  0.0081 -0.1906
  660PEP     CB22682   8.823  19.121   3.045 -0.3881 -0.2059  0.4046
  660PEP     CB22683   9.243  18.997   3.045 -0.1287  0.2928 -0.0705
  660PEP     CB22684   9.456  18.680   3.034 -0.0205  0.0291  0.0911
  660PEP     CB22685   9.848  18.650   2.667 -0.5368  0.2973  0.1320
  660PEP     CB22686  10.154  18.779   2.271  0.1299 -0.0723 -0.1868
  660PEP     CB22687  10.346  18.930   1.866  0.0612  0.4803 -0.0694
  660PEP     CB22688  10.733  18.918   1.509 -0.2597 -0.0021  0.1339
  660PEP     CB22689  10.992  18.930   1.130 -0.0404  0.2598  0.0832
  660PEP     CB22690  11.026  18.680   0.761  0.0250  0.4220 -0.3886
  660PEP     CB22691  10.885  18.329   0.383 -0.0841 -0.1854  0.0470
  660PEP     CB22692  11.031  17.900   0.282 -0.1604  0.2200 -0.1076
  660PEP     CB22693  11.196  17.666  -0.064 -0.1058  0.0260  0.5433
  660PEP     CB22694  11.324  17.694  -0.487 -0.2480  0.3350  0.0289
  660PEP     CB22695  11.244  17.843  -0.891  0.1178 -0.1401  0.0704
  660PEP     CB22696  10.924  17.892  -1.155  0.0085  0.2770 -0.1579
  660PEP     CB22697  10.465  17.924  -1.245  0.0830  0.0511 -0.1098
  660PEP     CB22698  10.295  18.296  -1.305 -0.3160 -0.0605  0.0072
  660PEP     CB22699  10.138  18.518  -1.709  0.1975 -0.0822  0.2430
  660PEP     CB22700  10.316  18.638  -2.136 -0.2477 -0.0905  0.0823
  660PEP     CB22701  10.371  18.400  -2.437 -0.0825  0.4170 -0.1698
  660PEP     CB22702  10.216  18.071  -2.537  0.0029  0.1824 -0.1462
  660PEP     CB22703   9.945  17.824  -2.483  0.1558 -0.1663  0.2307
  660PEP     CB22704   9.625  17.566  -2.592  0.1408  0.6201  0.1196
  660PEP     CB22705   9.480  17.196  -2.657  0.2324 -0.0021  0.0957
  660PEP     CB22706   9.485  16.910  -2.893 -0.0527 -0.0014 -0.2011
  660PEP     CB22707   9.786  16.699  -3.032  0.0481 -0.2771 -0.1914
  660PEP     CB22708  10.202  16.713  -3.001  0.0243  0.0324  0.0101
  660PEP     CB22709  10.606  16.789  -3.190 -0.4957  0.2110  0.0259
  660PEP     CB22710  10.881  17.170  -3.376 -0.0605  0.1439 -0.0240
  660PEP     CB22711  11.159  17.378  -3.471  0.3683  0.0097  0.0226
  660PEP     CB22712  11.498  17.437  -3.559 -0.3653 -0.1168  0.4983
  660PEP     CB22713  11.838  17.530  -3.773 -0.0657  0.1405 -0.0950
  660PEP     CB22714  12.233  17.564  -3.984 -0.0297  0.5916  0.3973
  660PEP     CB22715  12.710  17.659  -3.873  0.3032 -0.0226  0.2609
  660PEP     CB22716  12.861  17.677  -3.483 -0.0066  0.0124 -0.0244
  660PEP     CB22717  12.578  17.543  -3.058  0.3980  0.1364 -0.2055
  660PEP     CB22718  12.184  17.359  -2.923 -0.5660  0.2510  0.0765
  660PEP     CB22719  11.834  17.573  -2.901 -0.4233  0.2527 -0.1158
  660PEP     CB22720  11.446  17.593  -3.060  0.0501 -0.0502 -0.1415
  661PEP     CB22721   1.500  14.216   3.312 -0.1807  0.1270 -0.2167
  661PEP     CB22722   1.657  14.418   3.631 -0.2425 -0.1164  0.4542
  661PEP     CB22723   1.836  14.461   3.956  0.0821  0.0009 -0.1366
  661PEP     CB22724   1.699  14.386   4.418  0.2650  0.3036  0.4132
  661PEP     CB22725   1.502  14.480   4.832  0.1059 -0.1577 -0.3812
  661PEP     CB22726   1.489  14.388   5.279  0.0373  0.1076  0.6746
  661PEP     CB22727   1.482  14.038   5.533 -0.2596 -0.1787  0.2113
  661PEP     CB22728   1.251  13.718   5.634 -0.0321  0.1220  0.1133
  661PEP     CB22729   1.267  13.447   6.018  0.1592 -0.2184 -0.1160
  661PEP     CB22730   1.580  13.518   6.367 -0.0311 -0.0587 -0.0552
  661PEP     CB22731   1.810  13.904   6.514  0.0894 -0.0910 -0.1426
  661PEP     CB22732   1.932  14.202   6.246 -0.1298  0.2156 -0.0334
  661PEP     CB22733   1.743  14.465   5.957 -0.2687  0.1697  0.2982
  661PEP     CB22734   1.636  14.913   5.822 -0.0675  0.2272  0.3787
  661PEP     CB22735   1.856  15.168   5.486 -0.1926  0.1410 -0.0546
  661PEP     CB22736   2.174  15.078   5.084  0.0640  0.2691 -0.3382
  661PEP     CB22737   2.457  14.917   4.703 -0.3301  0.2038 -0.2474
  661PEP     CB22738   2.855  14.777   4.539 -0.2047 -0.2769  0.0290
  661PEP     CB22739   3.375  14.907   4.625  0.1441 -0.3230 -0.2870
  661PEP     CB22740   3.638  15.241   4.418  0.0014  0.3654 -0.0897
  661PEP     CB22741   3.590  15.684   4.469 -0.0710  0.2252  0.1825
  661PEP     CB22742   3.542  15.832   4.893 -0.2758 -0.3945  0.1355
  661PEP     CB22743   3.312  15.683   5.231 -0.5114  0.0382  0.4174
  661PEP     CB22744   3.338  15.630   5.726  0.2530 -0.2322 -0.1001
  661PEP     CB22745   3.547  15.981   5.934 -0.0051 -0.0353 -0.1006
  661PEP     CB22746   3.919  16.122   5.901 -0.1139  0.0512  0.2568
  661PEP     CB22747   4.292  15.957   5.821  0.0207 -0.0865  0.1477
  661PEP     CB22748   4.666  15.827   6.214  0.1023 -0.0766  0.1596
  661PEP     CB22749   4.577  16.034   6.631  0.7097  0.1697  0.6466
  661PEP     CB22750   4.272  16.237   6.703  0.0277 -0.0608 -0.4684
  661PEP     CB22751   3.835  16.317   6.596 -0.2091 -0.0271 -0.1980
  661PEP     CB22752   3.452  16.534   6.634  0.0597 -0.4420  0.1002
  661PEP     CB22753   2.944  16.437   6.848 -0.1249 -0.2124 -0.0912
  661PEP     CB22754   2.720  16.266   7.241  0.0984 -0.1357  0.1340
  661PEP     CB22755   2.386  16.114   7.517 -0.0247 -0.3008 -0.1851
  661PEP     CB22756   2.349  16.080   7.921  0.0303 -0.1773 -0.1204
  661PEP     CB22757   2.077  15.978   8.201 -0.2834  0.1030 -0.2072
  661PEP     CB22758   2.155  15.934   8.609 -0.1284 -0.0879 -0.2779
  661PEP     CB22759   2.458  16.142   8.817  0.0242 -0.1596  0.2118
  661PEP     CB22760   2.641  16.508   8.771 -0.5923  0.1416 -0.0941
  662PEP     CB22761  14.008  18.187  10.438  0.4367  0.2269 -0.0775
  662PEP     CB22762  13.660  18.217  10.702  0.3415  0.4237  0.2085
  662PEP     CB22763  13.381  18.197  11.002 -0.2354  0.1180  0.0970
  662PEP     CB22764  13.291  18.402  11.394 -0.0248 -0.2451 -0.2932
  662PEP     CB22765  13.585  18.776  11.484 -0.0246 -0.0279  0.1387
  662PEP     CB22766  13.997  18.977  11.338 -0.2215  0.0719  0.0287
  662PEP     CB22767  14.251  19.343  11.271  0.2116 -0.2130 -0.1783
  662PEP     CB22768  14.067  19.799  11.226 -0.1115  0.0045  0.1646
  662PEP     CB22769  13.688  20.107  11.085 -0.0630 -0.1579  0.2074
  662PEP     CB22770  13.364  20.375  10.954  0.1028  0.0800 -0.2082
  662PEP     CB22771  13.113  20.659  10.918 -0.1591 -0.2958  0.4597
  662PEP     CB22772  12.847  20.890  10.691 -0.1223 -0.1023  0.4493
  662PEP     CB22773  12.518  20.886  10.449  0.3753  0.0910 -0.0186
  662PEP     CB22774  12.301  20.640  10.226 -0.1645 -0.7453 -0.0286
  662PEP     CB22775  11.895  20.678   9.970  0.0667  0.2408  0.0030
  662PEP     CB22776  11.761  21.041   9.735  0.5031 -0.5206 -0.1328
  662PEP     CB22777  11.732  21.431   9.393 -0.2019 -0.0164 -0.4094
  662PEP     CB22778  11.767  21.809   9.216  0.1504  0.0867 -0.2643
  662PEP     CB22779  11.942  22.076   8.846 -0.0865  0.0135 -0.1161
  662PEP     CB22780  11.973  22.117   8.385 -0.3517  0.0993  0.2003
  662PEP     CB22781  12.183  22.173   7.918  0.1354  0.0053 -0.3267
  662PEP     CB22782  11.976  22.120   7.556  0.0401 -0.4410 -0.0563
  662PEP     CB22783  11.503  21.883   7.670 -0.1318  0.1719  0.1147
  662PEP     CB22784  11.365  21.890   8.065  0.1939 -0.1087 -0.5225
  662PEP     CB22785  11.642  21.740   8.388  0.1112 -0.0821  0.1062
  662PEP     CB22786  12.201  21.734   8.387  0.0750 -0.0638 -0.1187
  662PEP     CB22787  12.487  21.874   8.244  0.6340 -0.2474 -0.1070
  662PEP     CB22788  12.888  21.756   8.192  0.4483  0.2199  0.1177
  662PEP     CB22789  13.061  21.340   8.184  0.2113 -0.0693 -0.3232
  662PEP     CB22790  12.959  21.041   7.915  0.2678  0.2008 -0.0930
  662PEP     CB22791  12.624  20.994   7.580 -0.0123 -0.5155 -0.0240
  662PEP     CB22792  12.309  20.781   7.417  0.1972  0.0100  0.0484
  662PEP     CB22793  12.059  20.541   7.163 -0.1858 -0.0906 -0.1072
  662PEP     CB22794  12.061  20.188   6.890  0.5598 -0.0388 -0.0641
  662PEP     CB22795  12.269  19.825   6.901 -0.0470 -0.2836  0.1363
  662PEP     CB22796  12.704  19.555   6.937 -0.0912  0.0271 -0.1748
  662PEP     CB22797  12.899  19.232   6.970  0.1072 -0.0872  0.1213
  662PEP     CB22798  13.352  19.071   7.192  0.0959  0.3012  0.0569
  662PEP     CB22799  13.770  18.922   7.023  0.4764  0.2614 -0.1893
  662PEP     CB22800  14.173  18.799   6.911 -0.0402  0.0881  0.0910
  663PEP     CB22801   1.559  12.179   2.066  0.1177  0.0313 -0.1749
  663PEP     CB22802   1.315  11.867   2.012 -0.2086  0.1344 -0.1727
  663PEP     CB22803   1.132  11.457   2.012 -0.2107 -0.1968 -0.2246
  663PEP     CB22804   1.271  10.972   1.839  0.1011  0.0387  0.3349
  663PEP     CB22805   1.427  10.877   1.376 -0.2656 -0.1558 -0.3019
  663PEP     CB22806   1.600  11.097   0.976 -0.1486  0.0000  0.2174
  663PEP     CB22807   1.830  11.474   0.940  0.3321 -0.1192  0.0325
  663PEP     CB22808   2.045  11.968   0.959 -0.1146  0.1043  0.0012
  663PEP     CB22809   2.181  12.242   1.330  0.1302  0.1068 -0.0510
  663PEP     CB22810   2.149  12.102   1.785  0.1232 -0.2351 -0.0596
  663PEP     CB22811   2.193  12.051   2.168  0.1972 -0.0998  0.1678
  663PEP     CB22812   2.031  12.252   2.657  0.0281 -0.1421  0.9156
  663PEP     CB22813   2.054  12.381   3.113  0.1339 -0.0490  0.2723
  663PEP     CB22814   2.032  12.584   3.474  0.0962  0.5197  0.1898
  663PEP     CB22815   2.113  12.930   3.703 -0.0482  0.0850 -0.2714
  663PEP     CB22816   2.152  13.300   3.932  0.1521  0.1007  0.2133
  663PEP     CB22817   2.164  13.764   3.847  0.3150  0.0543  0.0569
  663PEP     CB22818   2.141  13.979   3.456 -0.0077 -0.2496  0.2693
  663PEP     CB22819   2.161  13.909   2.977  0.3405  0.0613 -0.0176
  663PEP     CB22820   2.275  13.428   2.721  0.1668  0.2099 -0.3913
  663PEP     CB22821   2.026  13.215   2.415 -0.2885  0.2182  0.1903
  663PEP     CB22822   1.756  13.154   2.116  0.0342 -0.0313 -0.3139
  663PEP     CB22823   1.458  13.078   1.793 -0.1433 -0.2643 -0.1849
  663PEP     CB22824   1.031  13.122   1.608  0.2074 -0.3155 -0.3834
  663PEP     CB22825   0.589  13.245   1.831 -0.0963 -0.0296  0.2313
  663PEP     CB22826   0.314  13.318   2.096  0.0647 -0.0735 -0.0510
  663PEP     CB22827   0.431  13.180   2.595  0.0324  0.3761 -0.0877
  663PEP     CB22828   0.749  13.136   2.804 -0.1416  0.2387 -0.1484
  663PEP     CB22829   1.215  13.298   2.727  0.0918 -0.5823  0.2342
  663PEP     CB22830   1.419  13.513   2.479 -0.2956 -0.0858 -0.3010
  663PEP     CB22831   1.613  13.687   2.022  0.2840 -0.0290 -0.4198
  663PEP     CB22832   1.835  13.601   1.624  0.0918 -0.4186  0.2089
  663PEP     CB22833   2.090  13.265   1.502  0.0452  0.3284 -0.1740
  663PEP     CB22834   2.507  12.940   1.571  0.2350 -0.0631  0.1278
  663PEP     CB22835   2.812  12.674   1.422  0.1112  0.0324 -0.2086
  663PEP     CB22836   2.868  12.294   1.143  0.4139 -0.2619  0.0388
  663PEP     CB22837   2.948  12.451   0.729 -0.1741  0.1670  0.0534
  663PEP     CB22838   3.223  12.553   0.413 -0.1208 -0.1419 -0.0738
  663PEP     CB22839   3.519  12.880   0.265  0.0082  0.1399  0.0731
  663PEP     CB22840   3.825  13.086   0.340  0.1689 -0.4221 -0.0130
  664PEP     CB22841   6.311   5.496  18.786  0.2969  0.5462 -0.0455
  664PEP     CB22842   6.304   5.079  18.721  0.2171  0.2410 -0.3388
  664PEP     CB22843   6.009   4.859  18.520  0.0744 -0.2821  0.4239
  664PEP     CB22844   5.651   5.069  18.414  0.0184 -0.1778  0.0842
  664PEP     CB22845   5.569   5.451  18.679 -0.0426 -0.2169  0.1621
  664PEP     CB22846   5.824   5.730  18.760 -0.1783 -0.1208  0.2230
  664PEP     CB22847   6.306   6.005  18.670  0.2411 -0.0762  0.0714
  664PEP     CB22848   6.619   6.221  18.347  0.2507  0.2298  0.2453
  664PEP     CB22849   6.980   6.542  18.324 -0.3521  0.0623  0.0078
  664PEP     CB22850   7.388   6.403  18.249  0.0461  0.0566  0.1767
  664PEP     CB22851   7.612   6.158  17.943  0.1128 -0.1373 -0.0372
  664PEP     CB22852   7.824   6.361  17.530  0.0980 -0.0484 -0.1416
  664PEP     CB22853   7.807   6.378  17.131  0.0788  0.0117 -0.1389
  664PEP     CB22854   7.680   6.359  16.639 -0.0468  0.4602  0.3240
  664PEP     CB22855   7.390   6.021  16.471  0.0474  0.0043 -0.0911
  664PEP     CB22856   7.011   5.774  16.643  0.1927  0.2242 -0.1440
  664PEP     CB22857   6.863   5.431  16.912  0.0260  0.3280  0.6861
  664PEP     CB22858   6.624   5.143  17.087  0.1435 -0.4331 -0.1053
  664PEP     CB22859   6.175   5.136  17.306  0.1688 -0.1485  0.2658
  664PEP     CB22860   5.958   5.391  17.613 -0.2391 -0.1170  0.1616
  664PEP     CB22861   5.599   5.470  17.945  0.0638  0.1619 -0.3379
  664PEP     CB22862   5.492   5.777  18.153 -0.2432 -0.3067  0.0772
  664PEP     CB22863   5.642   6.083  18.456 -0.3533 -0.1064 -0.2076
  664PEP     CB22864   5.764   6.363  18.787 -0.3217  0.2622  0.0765
  664PEP     CB22865   5.546   6.605  19.104 -0.3656  0.0416 -0.1913
  664PEP     CB22866   5.229   6.906  19.275 -0.3810 -0.1119  0.0412
  664PEP     CB22867   5.187   7.262  19.489 -0.0817 -0.3922 -0.3816
  664PEP     CB22868   5.001   7.262  19.901 -0.1208 -0.0180 -0.0023
  664PEP     CB22869   4.690   6.922  20.095 -0.4950 -0.0032  0.4339
  664PEP     CB22870   4.194   6.832  19.968 -0.0270  0.0351 -0.0942
  664PEP     CB22871   3.837   6.561  19.804 -0.0031  0.1258  0.1515
  664PEP     CB22872   3.863   6.098  19.588  0.0684 -0.1244  0.1266
  664PEP     CB22873   3.662   5.664  19.367 -0.0743  0.0831 -0.6395
  664PEP     CB22874   3.455   5.534  18.913 -0.2449 -0.1277 -0.0435
  664PEP     CB22875   3.169   5.615  18.570  0.1254 -0.0236 -0.0145
  664PEP     CB22876   3.096   5.730  18.192 -0.1158  0.2055 -0.0746
  664PEP     CB22877   3.033   5.837  17.740  0.2746  0.1049 -0.1355
  664PEP     CB22878   2.655   5.837  17.387 -0.0751  0.0863 -0.2334
  664PEP     CB22879   2.500   5.552  17.154 -0.1731  0.1554 -0.0583
  664PEP     CB22880   2.256   5.326  17.149  0.0275 -0.2447 -0.1121
  665PEP     CB22881  15.291   0.229  21.263 -0.1786  0.1554 -0.3062
  665PEP     CB22882  15.260  -0.150  21.555  0.0356 -0.2917  0.2074
  665PEP     CB22883  15.546  -0.512  21.638 -0.1259  0.3820 -0.0044
  665PEP     CB22884  15.710  -0.937  21.557 -0.2799  0.0623 -0.0007
  665PEP     CB22885  15.911  -1.377  21.534  0.0400 -0.5927 -0.3950
  665PEP     CB22886  15.973  -1.788  21.732 -0.0625 -0.0394  0.1022
  665PEP     CB22887  15.890  -2.105  21.966  0.0928  0.2094  0.1314
  665PEP     CB22888  16.033  -2.469  21.959 -0.0494 -0.1561 -0.4378
  665PEP     CB22889  16.266  -2.757  21.907  0.3881 -0.1118  0.1602
  665PEP     CB22890  16.731  -2.925  21.974 -0.0530  0.1333 -0.1505
  665PEP     CB22891  17.168  -2.974  21.926 -0.2017 -0.1792  0.1155
  665PEP     CB22892  17.388  -3.317  21.748 -0.2791 -0.1672 -0.0433
  665PEP     CB22893  17.529  -3.558  21.351  0.0527 -0.1874 -0.2141
  665PEP     CB22894  17.733  -3.675  20.968 -0.1145 -0.1543  0.5942
  665PEP     CB22895  17.548  -3.688  20.536 -0.1139  0.2059 -0.2224
  665PEP     CB22896  17.107  -3.874  20.504  0.1553  0.1005 -0.0549
  665PEP     CB22897  16.802  -3.704  20.626 -0.1379 -0.0813  0.0928
  665PEP     CB22898  16.611  -3.472  20.973  0.2334 -0.2607 -0.0690
  665PEP     CB22899  16.343  -3.254  21.319  0.0853 -0.2252 -0.4194
  665PEP     CB22900  16.016  -2.902  21.433 -0.2119  0.1816  0.1465
  665PEP     CB22901  15.549  -2.757  21.621  0.1028  0.4837 -0.2689
  665PEP     CB22902  15.181  -2.837  21.472  0.1807  0.0704  0.0607
  665PEP     CB22903  14.719  -2.722  21.469 -0.2652 -0.0162 -0.1019
  665PEP     CB22904  14.481  -2.521  21.790  0.0540  0.0012 -0.2868
  665PEP     CB22905  14.178  -2.270  21.762 -0.1326  0.0772 -0.2879
  665PEP     CB22906  13.919  -2.141  21.417 -0.4124 -0.1046  0.0256
  665PEP     CB22907  14.087  -2.101  21.025  0.0179 -0.2005 -0.2902
  665PEP     CB22908  14.395  -1.897  20.901  0.2729 -0.2818 -0.0260
  665PEP     CB22909  14.722  -1.617  20.780 -0.2151  0.0090  0.3484
  665PEP     CB22910  14.969  -1.591  20.420  0.1807 -0.0107 -0.1454
  665PEP     CB22911  14.800  -1.616  20.082  0.1552 -0.3291  0.0470
  665PEP     CB22912  14.499  -1.440  19.993 -0.1435  0.1598 -0.1421
  665PEP     CB22913  14.173  -1.184  20.106 -0.1848 -0.0639  0.0464
  665PEP     CB22914  13.798  -0.850  20.098  0.2320 -0.5563  0.2396
  665PEP     CB22915  13.356  -0.608  20.243  0.3515  0.2259 -0.1638
  665PEP     CB22916  12.903  -0.556  20.290 -0.0748 -0.1775  0.0211
  665PEP     CB22917  12.521  -0.849  20.303 -0.0056 -0.0657 -0.1812
  665PEP     CB22918  12.443  -1.255  20.403  0.1202 -0.1057 -0.4068
  665PEP     CB22919  12.483  -1.682  20.545  0.2805 -0.2754  0.2504
  665PEP     CB22920  12.348  -2.130  20.646  0.5657  0.1621 -0.0086
  666PEP     CB22921  17.000   2.302  15.470 -0.3255 -0.0531 -0.1304
  666PEP     CB22922  16.912   2.233  15.049  0.0333  0.2350  0.2627
  666PEP     CB22923  16.708   2.403  14.645 -0.1241  0.3211 -0.0184
  666PEP     CB22924  16.542   2.494  14.232 -0.1270  0.1302 -0.2065
  666PEP     CB22925  16.419   2.482  13.850  0.0486  0.3890  0.4751
  666PEP     CB22926  16.302   2.795  13.531 -0.1475  0.7258 -0.1349
  666PEP     CB22927  16.133   2.906  13.142  0.2725  0.3514  0.2746
  666PEP     CB22928  16.069   3.305  12.886  0.4368 -0.0857  0.4672
  666PEP     CB22929  16.145   3.768  12.839  0.1225  0.2208  0.1301
  666PEP     CB22930  16.195   4.160  12.614  0.2406 -0.2126 -0.2368
  666PEP     CB22931  16.508   4.498  12.395 -0.4489 -0.6414  0.3392
  666PEP     CB22932  16.601   4.591  11.983 -0.0155 -0.6259  0.1657
  666PEP     CB22933  16.646   4.451  11.519  0.1547  0.4617  0.0041
  666PEP     CB22934  16.750   4.063  11.260  0.0200 -0.1446 -0.4019
  666PEP     CB22935  16.747   3.666  11.246  0.0346 -0.0930 -0.0534
  666PEP     CB22936  16.494   3.361  11.438  0.0070 -0.0091 -0.0533
  666PEP     CB22937  16.170   3.104  11.451 -0.2227 -0.4774 -0.0609
  666PEP     CB22938  15.910   2.742  11.534  0.2899  0.2765 -0.2245
  666PEP     CB22939  15.518   2.521  11.374 -0.1988 -0.5848 -0.0616
  666PEP     CB22940  15.323   2.155  11.154  0.2594  0.4866  0.0636
  666PEP     CB22941  15.076   1.789  10.972 -0.2846  0.1718  0.0385
  666PEP     CB22942  14.989   1.401  10.674 -0.5641 -0.1457 -0.0045
  666PEP     CB22943  14.720   1.190  10.398  0.0579 -0.3592 -0.0983
  666PEP     CB22944  14.388   1.222  10.043  0.1887 -0.2101 -0.1418
  666PEP     CB22945  14.278   1.179   9.595  0.1115 -0.5286 -0.2216
  666PEP     CB22946  14.305   1.378   9.276 -0.1143  0.1149  0.1044
  666PEP     CB22947  14.279   1.791   9.222 -0.1881  0.3882 -0.1629
  666PEP     CB22948  14.406   2.082   8.947 -0.2447 -0.1675 -0.0307
  666PEP     CB22949  14.538   2.279   8.561 -0.2532  0.3742 -0.2535
  666PEP     CB22950  14.727   2.297   8.104 -0.1260 -0.0684 -0.0954
  666PEP     CB22951  15.099   2.261   7.712 -0.0332 -0.2071 -0.0572
  666PEP     CB22952  15.284   2.340   7.350 -0.4934 -0.0566 -0.0540
  666PEP     CB22953  15.603   2.206   7.121  0.0246 -0.1220 -0.0727
  666PEP     CB22954  15.903   1.817   7.046 -0.1482  0.2716  0.2148
  666PEP     CB22955  16.049   1.432   7.249  0.0312 -0.0710 -0.3599
  666PEP     CB22956  15.748   1.231   7.496  0.4469  0.1876 -0.1251
  666PEP     CB22957  15.476   1.076   7.876 -0.0991 -0.0178  0.2932
  666PEP     CB22958  15.522   0.997   8.345  0.1087  0.1735  0.1204
  666PEP     CB22959  15.741   1.135   8.848 -0.1388  0.0439 -0.2584
  666PEP     CB22960  15.746   1.033   9.245  0.0544  0.1843 -0.1521
  667PEP     CB22961  13.740  10.915  17.535 -0.3513  0.3076 -0.3934
  667PEP     CB22962  14.098  10.725  17.876 -0.0053  0.0959  0.2219
  667PEP     CB22963  14.419  10.905  18.165  0.1488 -0.3140 -0.1786
  667PEP     CB22964  14.294  11.182  18.452 -0.1840  0.4720  0.1792
  667PEP     CB22965  14.085  11.329  18.886 -0.0589 -0.1375  0.1496
  667PEP     CB22966  13.760  11.482  19.235  0.1872  0.0441  0.0452
  667PEP     CB22967  13.443  11.730  19.348  0.1058 -0.0026 -0.4768
  667PEP     CB22968  13.292  11.983  19.729  0.0477 -0.0897 -0.3447
  667PEP     CB22969  13.096  12.178  20.107 -0.4241 -0.3941  0.5974
  667PEP     CB22970  12.812  12.472  20.406 -0.0034  0.0951  0.3091
  667PEP     CB22971  12.480  12.708  20.324 -0.3621 -0.0220 -0.4660
  667PEP     CB22972  12.132  12.653  20.062 -0.2669 -0.2727 -0.1306
  667PEP     CB22973  11.967  12.243  19.941  0.0919  0.1158 -0.0658
  667PEP     CB22974  11.770  11.863  19.745  0.1170 -0.0216  0.2349
  667PEP     CB22975  11.521  11.553  19.748  0.1535 -0.1814  0.5224
  667PEP     CB22976  11.583  11.255  19.444 -0.2769  0.1566  0.1373
  667PEP     CB22977  11.771  11.160  19.023 -0.0617  0.2404 -0.2249
  667PEP     CB22978  12.050  11.429  18.839 -0.0166  0.2105 -0.2056
  667PEP     CB22979  12.302  11.732  18.806 -0.2577  0.0097  0.0614
  667PEP     CB22980  12.477  11.986  18.525  0.2388  0.0129 -0.0439
  667PEP     CB22981  12.382  12.222  18.180 -0.2349  0.0448 -0.2434
  667PEP     CB22982  12.521  12.311  17.697  0.0119  0.0257  0.0471
  667PEP     CB22983  12.568  12.050  17.348 -0.2005  0.0664 -0.0529
  667PEP     CB22984  12.592  11.717  17.131 -0.0612  0.0171  0.3596
  667PEP     CB22985  12.890  11.431  17.009  0.2833 -0.0011  0.0550
  667PEP     CB22986  13.314  11.442  16.713 -0.0188 -0.1950 -0.0279
  667PEP     CB22987  13.821  11.522  16.724  0.3562 -0.6606  0.0492
  667PEP     CB22988  14.111  11.841  16.889 -0.4242  0.0539 -0.0790
  667PEP     CB22989  14.281  12.100  17.210  0.2454 -0.0137  0.0401
  667PEP     CB22990  14.381  12.268  17.573  0.3827 -0.0088  0.1137
  667PEP     CB22991  14.548  12.497  17.891 -0.0101 -0.0290  0.3992
  667PEP     CB22992  14.537  12.835  18.086  0.2581  0.1579  0.2087
  667PEP     CB22993  14.323  13.133  18.186 -0.2493 -0.2569  0.1561
  667PEP     CB22994  14.075  13.249  17.907 -0.1771  0.2413  0.0047
  667PEP     CB22995  14.087  13.069  17.556  0.0779 -0.2892 -0.2011
  667PEP     CB22996  14.487  12.841  17.449  0.3392 -0.3251  0.0196
  667PEP     CB22997  14.910  12.769  17.635 -0.0732 -0.1226 -0.0727
  667PEP     CB22998  15.047  13.011  17.855 -0.4391 -0.2599  0.2272
  667PEP     CB22999  15.119  13.476  17.632  0.4264 -0.0215  0.1416
  667PEP     CB23000  15.244  13.453  17.294  0.0531 -0.2436 -0.1054
  668PEP     CB23001   9.972   3.706   1.713  0.3947 -0.2552 -0.1675
  668PEP     CB23002  10.025   3.956   2.171 -0.0886 -0.0455 -0.0397
  668PEP     CB23003  10.156   4.333   2.249 -0.1003 -0.2066 -0.3676
  668PEP     CB23004  10.565   4.493   2.304 -0.1216 -0.1812 -0.4269
  668PEP     CB23005  10.966   4.775   2.261  0.1199 -0.0258  0.3632
  668PEP     CB23006  11.292   5.019   1.970 -0.2715 -0.0431 -0.0827
  668PEP     CB23007  11.133   5.091   1.544  0.0821 -0.1009 -0.0892
  668PEP     CB23008  10.876   4.895   1.269 -0.0691  0.2524 -0.3004
  668PEP     CB23009  10.710   4.523   1.067  0.1380 -0.1903 -0.2379
  668PEP     CB23010  10.845   4.203   0.768 -0.2414 -0.0827  0.1262
  668PEP     CB23011  11.008   4.101   0.367 -0.0338 -0.3218 -0.1127
  668PEP     CB23012  11.183   4.244  -0.008 -0.2073 -0.1113 -0.6254
  668PEP     CB23013  11.416   4.319  -0.442 -0.0391  0.0242 -0.4618
  668PEP     CB23014  11.482   4.342  -0.938 -0.3816  0.2112  0.0125
  668PEP     CB23015  11.541   4.602  -1.366 -0.0925  0.1181  0.0942
  668PEP     CB23016  11.598   4.950  -1.621 -0.1494 -0.2231  0.1176
  668PEP     CB23017  11.556   5.375  -1.661  0.0128  0.1582  0.1530
  668PEP     CB23018  11.288   5.727  -1.788  0.0180  0.0792  0.3276
  668PEP     CB23019  10.904   5.821  -2.019 -0.3686  0.0845  0.0507
  668PEP     CB23020  10.686   5.955  -2.385 -0.0321 -0.1749  0.0018
  668PEP     CB23021  10.303   6.007  -2.632 -0.4928 -0.2159  0.0966
  668PEP     CB23022   9.815   5.979  -2.530 -0.0908  0.4081 -0.1746
  668PEP     CB23023   9.452   6.003  -2.260 -0.4746  0.4354  0.1268
  668PEP     CB23024   9.098   5.831  -2.166  0.4328  0.0102 -0.1038
  668PEP     CB23025   8.738   5.706  -2.352  0.2922 -0.4835 -0.0432
  668PEP     CB23026   8.578   5.363  -2.529  0.2200 -0.0332 -0.3086
  668PEP     CB23027   8.285   5.068  -2.627 -0.1780 -0.1880 -0.0202
  668PEP     CB23028   8.043   4.773  -2.860  0.0515 -0.3295  0.2918
  668PEP     CB23029   7.705   4.501  -3.114  0.0619  0.1301  0.0885
  668PEP     CB23030   7.487   4.625  -3.530  0.3399 -0.1823 -0.2198
  668PEP     CB23031   7.187   4.628  -3.956  0.0065 -0.0500 -0.4076
  668PEP     CB23032   6.919   4.950  -4.169 -0.0411 -0.0761 -0.0241
  668PEP     CB23033   6.685   5.294  -4.432 -0.2073  0.4417 -0.0957
  668PEP     CB23034   6.350   5.646  -4.278 -0.1211 -0.2693 -0.0655
  668PEP     CB23035   6.449   6.144  -4.142  0.3299 -0.0173  0.0861
  668PEP     CB23036   6.779   6.424  -4.198  0.2560  0.2910  0.1363
  668PEP     CB23037   7.017   6.692  -4.504  0.1704 -0.2000 -0.3161
  668PEP     CB23038   7.090   6.927  -4.793 -0.3047  0.1009 -0.4724
  668PEP     CB23039   6.919   7.320  -4.974  0.0445  0.0908 -0.0795
  668PEP     CB23040   6.751   7.768  -5.064  0.0612 -0.1221 -0.4600
  669PEP     CB23041  10.637  10.526  21.959  0.0548 -0.0294  0.0233
  669PEP     CB23042  10.660  10.907  21.796  0.2041 -0.1130  0.0667
  669PEP     CB23043  10.886  11.409  21.587 -0.0800 -0.1310  0.0592
  669PEP     CB23044  10.997  11.481  21.134  0.1642 -0.0087 -0.2030
  669PEP     CB23045  11.182  11.464  20.744 -0.0040  0.4471 -0.2072
  669PEP     CB23046  11.606  11.679  20.674 -0.1916 -0.2572 -0.2087
  669PEP     CB23047  11.875  11.911  20.880  0.4132  0.3267 -0.2227
  669PEP     CB23048  11.896  12.027  21.287 -0.0589 -0.1325 -0.4621
  669PEP     CB23049  11.617  11.940  21.687 -0.0903 -0.1952  0.0811
  669PEP     CB23050  11.337  11.577  21.779 -0.0854  0.1528  0.0754
  669PEP     CB23051  11.344  11.187  21.527 -0.2368  0.1665  0.1422
  669PEP     CB23052  11.392  11.121  21.068  0.1335  0.0061 -0.1116
  669PEP     CB23053  11.379  10.869  20.785  0.1703  0.0990  0.1163
  669PEP     CB23054  11.462  10.682  20.398 -0.1268 -0.1282 -0.1261
  669PEP     CB23055  11.776  10.724  20.133 -0.2604 -0.4475 -0.0772
  669PEP     CB23056  12.169  10.904  20.134  0.0159 -0.0367  0.4145
  669PEP     CB23057  12.565  10.733  20.189 -0.1676  0.0269  0.1885
  669PEP     CB23058  12.838  10.367  20.380  0.1072  0.0040 -0.1667
  669PEP     CB23059  12.959   9.818  20.322  0.0255 -0.2312  0.3976
  669PEP     CB23060  13.012   9.422  20.058  0.0603  0.0791  0.0288
  669PEP     CB23061  12.778   9.065  19.927  0.0254  0.2284 -0.4679
  669PEP     CB23062  12.472   8.850  19.827 -0.3776 -0.2331 -0.2137
  669PEP     CB23063  12.026   8.808  19.765  0.4002 -0.0463  0.0795
  669PEP     CB23064  11.657   8.666  19.813  0.1482  0.3809 -0.0419
  669PEP     CB23065  11.324   8.426  19.869 -0.1009 -0.0541 -0.1706
  669PEP     CB23066  10.977   8.123  19.833  0.2329  0.1938 -0.0259
  669PEP     CB23067  10.862   7.838  19.526 -0.0826  0.2645  0.1791
  669PEP     CB23068  10.921   7.666  19.074  0.0371  0.3361  0.3841
  669PEP     CB23069  10.988   7.443  18.717 -0.1916 -0.0404 -0.1553
  669PEP     CB23070  10.758   7.078  18.639 -0.1557  0.2045  0.1193
  669PEP     CB23071  10.594   6.653  18.714 -0.0375  0.3312 -0.0838
  669PEP     CB23072  10.610   6.166  18.730  0.2341  0.2866  0.1310
  669PEP     CB23073  10.417   5.775  18.650  0.2344 -0.1884  0.0171
  669PEP     CB23074  10.185   5.449  18.559  0.1698  0.1163  0.2822
  669PEP     CB23075   9.890   5.096  18.508 -0.1212  0.1608  0.0491
  669PEP     CB23076   9.857   4.771  18.467  0.0065 -0.0690 -0.0259
  669PEP     CB23077   9.451   4.523  18.272  0.2064  0.0355 -0.3932
  669PEP     CB23078   9.166   4.693  17.986  0.0682  0.2118  0.1169
  669PEP     CB23079   8.997   5.064  17.898 -0.0589 -0.3708 -0.1592
  669PEP     CB23080   8.787   5.427  17.728  0.4629  0.1817 -0.1041
  670PEP     CB23081   3.778  21.534  14.259  0.1052  0.3542 -0.3290
  670PEP     CB23082   4.130  21.290  14.454  0.0996  0.0038  0.3171
  670PEP     CB23083   4.348  21.006  14.716  0.1605  0.1082 -0.2323
  670PEP     CB23084   4.244  20.576  14.935  0.2875 -0.3172  0.0435
  670PEP     CB23085   4.094  20.281  14.666 -0.1749 -0.0535 -0.0532
  670PEP     CB23086   4.115  20.304  14.151 -0.3531  0.0320  0.5962
  670PEP     CB23087   4.253  20.086  13.846  0.1690 -0.2568  0.1572
  670PEP     CB23088   4.108  19.684  13.757 -0.2709  0.3127 -0.2562
  670PEP     CB23089   3.829  19.351  13.899 -0.2453  0.1148 -0.2315
  670PEP     CB23090   3.712  19.210  14.366  0.0052  0.1376 -0.1317
  670PEP     CB23091   3.390  18.920  14.589  0.3573  0.1975  0.2612
  670PEP     CB23092   3.074  18.662  14.670  0.0689 -0.2416  0.2292
  670PEP     CB23093   2.821  18.365  14.701  0.0520 -0.0348  0.0916
  670PEP     CB23094   2.931  17.982  14.852  0.0204  0.1600 -0.1418
  670PEP     CB23095   2.992  17.545  15.041  0.3212  0.0350  0.2022
  670PEP     CB23096   3.101  17.160  14.974 -0.0869  0.0629  0.4149
  670PEP     CB23097   2.780  16.954  14.713 -0.3514 -0.0325 -0.0330
  670PEP     CB23098   2.364  16.958  14.981  0.5085 -0.1901  0.1469
  670PEP     CB23099   2.139  17.267  15.185 -0.0055 -0.1814  0.0323
  670PEP     CB23100   1.941  17.413  15.674 -0.0456 -0.0630  0.2530
  670PEP     CB23101   1.840  17.192  16.034  0.2471  0.6452  0.4679
  670PEP     CB23102   1.928  17.135  16.434  0.3344 -0.0177 -0.0032
  670PEP     CB23103   2.029  17.231  16.851 -0.1694  0.2903 -0.1731
  670PEP     CB23104   1.873  17.409  17.360  0.2413  0.2668  0.0537
  670PEP     CB23105   1.883  17.150  17.861 -0.4183 -0.3264 -0.0813
  670PEP     CB23106   2.036  17.118  18.248 -0.2284 -0.1286 -0.1914
  670PEP     CB23107   2.315  17.105  18.589  0.0255 -0.1550 -0.0999
  670PEP     CB23108   2.717  17.242  18.676  0.2926  0.3181 -0.1124
  670PEP     CB23109   2.908  17.526  19.082  0.2159 -0.3121 -0.0410
  670PEP     CB23110   2.853  17.967  19.050  0.0023 -0.4961  0.0350
  670PEP     CB23111   2.618  18.205  18.830  0.3247  0.0811 -0.2903
  670PEP     CB23112   2.463  18.212  18.372 -0.0303  0.1414  0.3480
  670PEP     CB23113   2.184  18.138  18.117  0.0217  0.2435 -0.1668
  670PEP     CB23114   1.927  18.325  17.969  0.1185 -0.4006 -0.2063
  670PEP     CB23115   1.880  18.778  17.991  0.1792 -0.1384 -0.0875
  670PEP     CB23116   2.015  19.157  18.307 -0.1406  0.0935  0.2144
  670PEP     CB23117   2.363  19.169  18.590 -0.3652 -0.1559  0.4142
  670PEP     CB23118   2.742  18.935  18.466 -0.1509  0.1723  0.1579
  670PEP     CB23119   2.934  18.486  18.204 -0.2021  0.1219  0.0987
  670PEP     CB23120   2.823  18.158  17.865  0.0492 -0.1239 -0.5510
  671PEP     CB23121  17.405  11.070  21.153 -0.1392 -0.3068  0.1663
  671PEP     CB23122  17.747  10.951  21.443  0.1670 -0.2875  0.0218
  671PEP     CB23123  18.159  10.790  21.532 -0.0197 -0.2879 -0.1789
  671PEP     CB23124  18.540  10.532  21.653  0.3289  0.1571  0.0924
  671PEP     CB23125  19.011  10.553  21.706  0.2388  0.0558  0.1397
  671PEP     CB23126  19.343  10.580  21.383  0.2459 -0.1004 -0.0604
  671PEP     CB23127  19.633  10.340  21.318  0.1444  0.6427  0.0751
  671PEP     CB23128  19.890  10.033  21.634  0.0852  0.0277  0.0421
  671PEP     CB23129  19.864   9.567  21.714 -0.2949  0.0474 -0.1216
  671PEP     CB23130  19.601   9.332  21.881  0.1740  0.0799 -0.0831
  671PEP     CB23131  19.222   9.069  21.988  0.2283  0.1295  0.2121
  671PEP     CB23132  18.823   9.134  22.254 -0.2227 -0.2104  0.2591
  671PEP     CB23133  18.821   9.316  22.672 -0.2113 -0.2808 -0.0808
  671PEP     CB23134  19.074   9.312  22.992 -0.0296  0.0836  0.2969
  671PEP     CB23135  19.255   9.359  23.386  0.1839  0.1117 -0.0685
  671PEP     CB23136  19.195   9.286  23.814 -0.2830 -0.0532 -0.1882
  671PEP     CB23137  19.149   9.446  24.208  0.1819  0.0535  0.2698
  671PEP     CB23138  18.921   9.420  24.599  0.1790  0.1523  0.0165
  671PEP     CB23139  18.836   9.613  25.004  0.1510  0.0861 -0.0772
  671PEP     CB23140  18.974   9.981  25.255 -0.2306  0.0384 -0.1452
  671PEP     CB23141  19.006  10.281  25.529  0.3336  0.5488 -0.0681
  671PEP     CB23142  18.928  10.561  25.954 -0.0712 -0.4223  0.2232
  671PEP     CB23143  18.648  10.729  26.134  0.3367 -0.0232 -0.3677
  671PEP     CB23144  18.462  11.011  25.992 -0.2960 -0.0228 -0.0168
  671PEP     CB23145  18.563  11.386  25.704  0.3592 -0.3657 -0.2689
  671PEP     CB23146  18.599  11.660  25.295  0.1065 -0.2331 -0.1916
  671PEP     CB23147  18.836  11.929  25.072 -0.2749 -0.0072 -0.1392
  671PEP     CB23148  19.166  12.224  25.136  0.0009 -0.2648  0.1483
  671PEP     CB23149  19.218  12.556  25.450  0.0950  0.1825 -0.1214
  671PEP     CB23150  19.027  12.623  25.861 -0.0042 -0.3695 -0.1086
  671PEP     CB23151  18.753  12.651  26.240  0.2610 -0.1623  0.1014
  671PEP     CB23152  18.711  12.623  26.769 -0.2331  0.3007  0.0100
  671PEP     CB23153  18.535  12.533  27.186  0.0865 -0.5148  0.0222
  671PEP     CB23154  18.415  12.534  27.636  0.5651 -0.2188  0.0212
  671PEP     CB23155  18.300  12.611  28.066  0.2555  0.1724  0.1987
  671PEP     CB23156  17.946  12.842  28.137 -0.4465 -0.1116 -0.0053
  671PEP     CB23157  17.610  12.940  27.873 -0.4367 -0.1293 -0.2561
  671PEP     CB23158  17.267  12.639  27.800 -0.2171 -0.3024 -0.1153
  671PEP     CB23159  17.054  12.416  28.047 -0.4424 -0.1460 -0.4558
  671PEP     CB23160  17.091  12.176  28.525  0.1575  0.0392  0.3690
  672PEP     CB23161  10.257   7.826   3.789 -0.2848  0.0836 -0.2542
  672PEP     CB23162   9.957   8.162   3.955 -0.3256  0.4365 -0.4783
  672PEP     CB23163   9.527   8.202   4.186  0.4624  0.0666  0.0703
  672PEP     CB23164   9.074   8.276   4.260 -0.1936  0.0023 -0.1262
  672PEP     CB23165   8.900   8.035   4.555  0.1173  0.3497 -0.2744
  672PEP     CB23166   9.136   7.742   4.784 -0.2412 -0.3167 -0.5114
  672PEP     CB23167   9.386   7.403   4.863 -0.5063  0.0414 -0.2145
  672PEP     CB23168   9.788   7.210   4.779 -0.4062  0.0636 -0.0398
  672PEP     CB23169  10.130   7.081   4.953 -0.1004 -0.2046  0.2378
  672PEP     CB23170  10.322   6.921   5.338  0.0652  0.0901 -0.1433
  672PEP     CB23171  10.362   6.633   5.579  0.1953  0.1164  0.1775
  672PEP     CB23172  10.434   6.617   5.985 -0.2021  0.3588  0.1655
  672PEP     CB23173  10.795   6.881   6.114 -0.1420 -0.0117 -0.0624
  672PEP     CB23174  10.958   7.008   6.467 -0.0734 -0.0423 -0.0421
  672PEP     CB23175  10.818   6.806   6.917  0.4634 -0.0720 -0.2934
  672PEP     CB23176  11.223   6.682   7.241 -0.2268 -0.2474  0.2456
  672PEP     CB23177  11.670   6.648   7.004  0.2434 -0.0336 -0.7815
  672PEP     CB23178  11.750   6.456   6.626  0.0477  0.0083  0.0812
  672PEP     CB23179  11.870   5.976   6.412 -0.0486 -0.2497  0.1456
  672PEP     CB23180  12.270   5.781   6.385  0.1060  0.2052 -0.2186
  672PEP     CB23181  12.700   5.742   6.663 -0.0277  0.0170  0.4916
  672PEP     CB23182  12.925   6.030   6.934  0.0562  0.2100 -0.0679
  672PEP     CB23183  13.250   6.033   7.242  0.4291 -0.3415 -0.1269
  672PEP     CB23184  13.535   5.695   7.186  0.1741  0.6345  0.2071
  672PEP     CB23185  13.855   5.669   6.814  0.0414  0.3245  0.2585
  672PEP     CB23186  13.852   5.819   6.449 -0.3375 -0.0068  0.0451
  672PEP     CB23187  13.986   6.136   6.153 -0.1268 -0.1939 -0.2980
  672PEP     CB23188  14.235   6.329   5.799 -0.1379  0.0092  0.0253
  672PEP     CB23189  14.351   6.688   5.437  0.1042 -0.4204  0.0019
  672PEP     CB23190  14.588   7.101   5.259 -0.0521 -0.0412 -0.0318
  672PEP     CB23191  14.969   7.204   5.282 -0.0546 -0.1935 -0.3215
  672PEP     CB23192  15.380   7.125   5.464  0.4351  0.0902 -0.2439
  672PEP     CB23193  15.551   7.003   5.879  0.1208  0.0729  0.0435
  672PEP     CB23194  15.291   7.097   6.324  0.5151  0.0035  0.0121
  672PEP     CB23195  15.024   7.469   6.508 -0.4923 -0.1289 -0.0553
  672PEP     CB23196  14.787   7.704   6.733 -0.0976  0.1388 -0.0865
  672PEP     CB23197  14.479   7.924   7.047 -0.1717 -0.6043 -0.0104
  672PEP     CB23198  13.943   7.925   7.147  0.1308 -0.0712 -0.0780
  672PEP     CB23199  13.540   7.792   7.041  0.3036 -0.0892  0.3199
  672PEP     CB23200  13.097   7.625   6.956  0.0099  0.0741 -0.5112
  673PEP     CB23201  17.368  19.116   4.804  0.2685  0.3272 -0.0565
  673PEP     CB23202  17.535  19.257   5.294 -0.2368  0.1378  0.3684
  673PEP     CB23203  17.288  19.295   5.685 -0.0600 -0.2458 -0.3603
  673PEP     CB23204  16.948  19.641   5.671 -0.0029 -0.0662 -0.0885
  673PEP     CB23205  16.785  19.848   5.303 -0.0294 -0.4363  0.0764
  673PEP     CB23206  16.644  19.425   4.973 -0.2460 -0.0414  0.0693
  673PEP     CB23207  16.899  19.109   4.891  0.3616 -0.3107 -0.0192
  673PEP     CB23208  17.037  18.741   4.982  0.0108  0.5025  0.2406
  673PEP     CB23209  17.130  18.391   5.389  0.2987 -0.3693  0.2160
  673PEP     CB23210  17.138  18.011   5.695 -0.2300 -0.2854 -0.2099
  673PEP     CB23211  17.151  17.720   5.913 -0.1401  0.0502 -0.5618
  673PEP     CB23212  17.104  17.303   6.093 -0.0119  0.2709 -0.0798
  673PEP     CB23213  16.845  16.950   6.195  0.1653 -0.2173  0.4772
  673PEP     CB23214  16.544  16.750   5.951 -0.3218 -0.0890 -0.0635
  673PEP     CB23215  16.312  16.818   5.571  0.1671 -0.1176 -0.0030
  673PEP     CB23216  16.078  16.854   5.331 -0.3085 -0.3300  0.1423
  673PEP     CB23217  15.669  16.908   5.119 -0.4446  0.0795 -0.4147
  673PEP     CB23218  15.533  17.070   4.719  0.0366 -0.1907  0.0549
  673PEP     CB23219  15.735  16.996   4.310  0.0676 -0.1681  0.2675
  673PEP     CB23220  15.843  16.645   4.121  0.3661 -0.0510 -0.0599
  673PEP     CB23221  16.006  16.355   4.180 -0.0857 -0.4453 -0.2191
  673PEP     CB23222  16.057  16.079   4.530  0.0891 -0.1575  0.0728
  673PEP     CB23223  15.910  16.187   4.980  0.2460  0.1542 -0.0947
  673PEP     CB23224  15.509  16.258   4.953 -0.0158  0.0009  0.1607
  673PEP     CB23225  15.204  16.013   4.698  0.1597 -0.2657 -0.4715
  673PEP     CB23226  15.106  15.644   4.373  0.4223 -0.3356  0.3652
  673PEP     CB23227  14.999  15.285   4.419  0.0434 -0.0844 -0.1136
  673PEP     CB23228  14.615  15.090   4.431  0.0176 -0.0058 -0.2201
  673PEP     CB23229  14.138  15.155   4.308  0.3961 -0.2982 -0.0655
  673PEP     CB23230  13.799  15.097   4.043 -0.2183 -0.1588 -0.1067
  673PEP     CB23231  13.597  15.025   3.623 -0.1817 -0.1032  0.1777
  673PEP     CB23232  13.343  14.852   3.374 -0.0079  0.0665 -0.3012
  673PEP     CB23233  13.044  14.776   3.019  0.4047  0.0739  0.0887
  673PEP     CB23234  12.706  14.770   2.741  0.1184  0.3132  0.1065
  673PEP     CB23235  12.235  14.741   2.753  0.0246  0.1436  0.0079
  673PEP     CB23236  11.834  14.936   2.902  0.1364  0.1855 -0.0805
  673PEP     CB23237  11.423  15.170   2.691  0.1100  0.1183 -0.5469
  673PEP     CB23238  11.079  15.325   2.490  0.0245  0.1452  0.0338
  673PEP     CB23239  10.822  15.543   2.174 -0.5616 -0.3671 -0.1828
  673PEP     CB23240  10.561  15.505   1.768  0.1925  0.0695 -0.1840
  674PEP     CB23241  18.260  15.258  13.936  0.2152  0.2016 -0.0683
  674PEP     CB23242  18.394  15.657  14.151  0.1775 -0.1384  0.0817
  674PEP     CB23243  18.378  15.934  14.590 -0.2457  0.0088  0.2276
  674PEP     CB23244  18.546  15.816  15.002  0.0797 -0.5276 -0.1221
  674PEP     CB23245  18.547  15.510  15.279 -0.0232 -0.0239  0.0015
  674PEP     CB23246  18.699  15.339  15.577 -0.0335  0.1843  0.1393
  674PEP     CB23247  18.634  15.047  15.916  0.3330  0.2366 -0.2244
  674PEP     CB23248  18.615  14.803  16.295 -0.2907 -0.0093  0.1825
  674PEP     CB23249  18.532  14.332  16.306  0.0476  0.2629 -0.1811
  674PEP     CB23250  18.372  14.030  15.935  0.0670  0.0997  0.2711
  674PEP     CB23251  18.186  14.023  15.580 -0.0762 -0.0444  0.0357
  674PEP     CB23252  17.780  14.032  15.573  0.3935  0.1884 -0.1264
  674PEP     CB23253  17.500  14.330  15.880  0.0753  0.2143  0.1095
  674PEP     CB23254  17.571  14.476  16.210  0.1282  0.2125 -0.3854
  674PEP     CB23255  17.698  14.245  16.625  0.0687  0.0199  0.4018
  674PEP     CB23256  17.493  13.834  16.663 -0.1909  0.1852  0.5096
  674PEP     CB23257  17.608  13.520  16.292 -0.2232 -0.3507 -0.2832
  674PEP     CB23258  17.832  13.238  15.965 -0.0284  0.2170 -0.2524
  674PEP     CB23259  17.794  13.115  15.566  0.1773  0.1453 -0.1316
  674PEP     CB23260  17.838  13.149  15.190  0.3620 -0.0959  0.1190
  674PEP     CB23261  17.902  12.999  14.820  0.2499 -0.0242 -0.1264
  674PEP     CB23262  17.969  12.680  14.518 -0.4258 -0.1591 -0.0052
  674PEP     CB23263  17.934  12.338  14.232  0.1079  0.1868 -0.0464
  674PEP     CB23264  17.754  11.904  14.236 -0.1447  0.1301  0.1497
  674PEP     CB23265  17.619  11.603  14.075  0.0809 -0.2951  0.3274
  674PEP     CB23266  17.615  11.046  13.953 -0.3776  0.3271 -0.2115
  674PEP     CB23267  17.804  10.595  13.800 -0.0172 -0.0904  0.1888
  674PEP     CB23268  17.863  10.179  13.792 -0.2947 -0.0258  0.2469
  674PEP     CB23269  17.916   9.823  14.013  0.0248 -0.1807 -0.5290
  674PEP     CB23270  18.137   9.674  14.401  0.0658  0.0329 -0.0277
  674PEP     CB23271  18.158   9.523  14.906 -0.0693  0.2163  0.3087
  674PEP     CB23272  18.037   9.598  15.353  0.0522  0.0554  0.2452
  674PEP     CB23273  17.579   9.698  15.568  0.3126 -0.2338  0.0607
  674PEP     CB23274  17.193   9.932  15.369  0.3033  0.2172 -0.3388
  674PEP     CB23275  17.125  10.361  15.267  0.1057  0.3351 -0.4465
  674PEP     CB23276  17.194  10.815  15.244  0.2957 -0.0894  0.1336
  674PEP     CB23277  17.069  11.244  15.104  0.0557 -0.0485  0.6372
  674PEP     CB23278  17.178  11.527  14.778 -0.1054 -0.1225 -0.2239
  674PEP     CB23279  17.604  11.726  14.668 -0.0238 -0.2953 -0.2972
  674PEP     CB23280  17.884  12.079  14.762 -0.3137  0.1187 -0.1169
  675PEP     CB23281   1.736   4.853   1.469  0.2333  0.1977 -0.0884
  675PEP     CB23282   1.633   4.460   1.244  0.1067 -0.0386 -0.0542
  675PEP     CB23283   1.496   4.026   1.151  0.0332  0.1460  0.1335
  675PEP     CB23284   1.457   3.651   1.376  0.1990 -0.0608  0.1177
  675PEP     CB23285   1.486   3.251   1.482 -0.0496  0.1961  0.0930
  675PEP     CB23286   1.577   2.849   1.414 -0.0949 -0.2117 -0.3212
  675PEP     CB23287   1.606   2.604   1.143  0.1541  0.0273  0.2859
  675PEP     CB23288   1.396   2.291   0.803  0.1166 -0.0810  0.0003
  675PEP     CB23289   1.245   2.319   0.332 -0.0671 -0.3191  0.1366
  675PEP     CB23290   0.795   2.318   0.164 -0.1764 -0.0387 -0.0271
  675PEP     CB23291   0.496   1.945   0.145  0.0316  0.4143 -0.0627
  675PEP     CB23292   0.446   1.609   0.508  0.1812 -0.1003  0.1664
  675PEP     CB23293   0.180   1.651   0.860  0.1815  0.0459 -0.0076
  675PEP     CB23294   0.031   1.339   1.125 -0.0358 -0.3180  0.0077
  675PEP     CB23295   0.134   0.996   1.380  0.2060 -0.1840  0.1151
  675PEP     CB23296   0.418   0.726   1.380 -0.2684  0.1531 -0.5925
  675PEP     CB23297   0.683   0.621   1.631  0.1252  0.3316  0.0532
  675PEP     CB23298   1.070   0.510   1.931  0.0262 -0.0348 -0.0649
  675PEP     CB23299   1.518   0.518   2.205 -0.1168  0.0183 -0.0797
  675PEP     CB23300   1.874   0.806   2.184  0.2183  0.2826 -0.3582
  675PEP     CB23301   2.006   1.305   2.275 -0.1989  0.1342 -0.0791
  675PEP     CB23302   1.797   1.732   2.253 -0.3122  0.0594 -0.2532
  675PEP     CB23303   1.745   1.989   1.834 -0.5571  0.0212 -0.2819
  675PEP     CB23304   1.783   2.388   1.673  0.1871  0.2151  0.0294
  675PEP     CB23305   2.037   2.617   1.350  0.1186 -0.1171 -0.1281
  675PEP     CB23306   2.154   2.717   0.887  0.3464  0.2103 -0.1454
  675PEP     CB23307   2.361   2.728   0.522 -0.1306  0.1181 -0.1968
  675PEP     CB23308   2.502   2.637   0.165 -0.0185  0.3744 -0.3782
  675PEP     CB23309   2.580   2.447  -0.227 -0.1502 -0.1404  0.2164
  675PEP     CB23310   2.673   2.076  -0.487  0.2175 -0.0728  0.0619
  675PEP     CB23311   2.788   1.819  -0.831  0.4662  0.0734  0.2312
  675PEP     CB23312   2.619   1.616  -1.304 -0.0020  0.0672 -0.2347
  675PEP     CB23313   2.795   1.416  -1.686  0.0087 -0.2775  0.2227
  675PEP     CB23314   3.086   1.311  -1.937 -0.2062  0.1518  0.2944
  675PEP     CB23315   3.372   0.883  -2.036 -0.3000  0.2326  0.3722
  675PEP     CB23316   3.850   0.751  -2.003  0.1138  0.2535  0.3662
  675PEP     CB23317   4.283   0.610  -2.010 -0.1536 -0.0095  0.1040
  675PEP     CB23318   4.654   0.303  -2.130 -0.1496 -0.0889 -0.1359
  675PEP     CB23319   5.115   0.025  -2.100 -0.3350 -0.0988  0.0875
  675PEP     CB23320   5.456  -0.226  -2.233  0.1818  0.1544 -0.1078
  676PEP     CB23321   3.754   8.491   0.498  0.2627  0.0180 -0.0823
  676PEP     CB23322   3.569   8.243   0.275 -0.2205  0.2201  0.0346
  676PEP     CB23323   3.402   7.850   0.368 -0.2430  0.1977  0.2267
  676PEP     CB23324   3.389   7.421   0.713 -0.1769 -0.1337  0.1249
  676PEP     CB23325   3.185   7.342   1.059  0.1017 -0.2179 -0.0034
  676PEP     CB23326   3.018   7.257   1.511 -0.0531  0.1430 -0.1268
  676PEP     CB23327   2.756   7.017   1.813  0.0722  0.1115 -0.4932
  676PEP     CB23328   2.577   6.638   2.025  0.2847  0.2421 -0.3501
  676PEP     CB23329   2.390   6.246   2.189 -0.1950  0.1855 -0.1654
  676PEP     CB23330   2.120   5.970   2.274 -0.2776 -0.0112  0.1231
  676PEP     CB23331   2.105   5.695   2.526 -0.0052 -0.0710  0.0180
  676PEP     CB23332   2.117   5.235   2.346  0.2423  0.3192  0.5410
  676PEP     CB23333   2.403   4.990   2.227  0.1744 -0.1348  0.0463
  676PEP     CB23334   2.552   4.562   2.365 -0.4242 -0.3470 -0.1003
  676PEP     CB23335   2.559   4.121   2.198  0.3281 -0.1600 -0.2071
  676PEP     CB23336   2.426   3.770   1.936  0.1488  0.1116 -0.0151
  676PEP     CB23337   2.396   3.304   1.992 -0.2381  0.1238  0.0140
  676PEP     CB23338   2.359   2.873   1.884 -0.2016  0.1501  0.0130
  676PEP     CB23339   2.309   2.493   1.699 -0.0250  0.0486  0.2517
  676PEP     CB23340   2.335   1.990   1.454  0.2882  0.4088  0.3296
  676PEP     CB23341   2.422   1.647   1.191 -0.2796  0.1762 -0.2299
  676PEP     CB23342   2.338   1.595   0.774  0.0020 -0.1810  0.1777
  676PEP     CB23343   2.328   1.797   0.319  0.2533 -0.0931  0.2093
  676PEP     CB23344   2.674   2.017   0.090  0.4117  0.2442 -0.0889
  676PEP     CB23345   3.077   2.148   0.050 -0.1272  0.1494  0.0064
  676PEP     CB23346   3.495   1.881   0.048  0.0601 -0.2344  0.3479
  676PEP     CB23347   3.797   1.564  -0.009 -0.1188  0.2604 -0.0764
  676PEP     CB23348   3.878   1.158  -0.162 -0.1966 -0.2309  0.1485
  676PEP     CB23349   4.076   0.737  -0.077  0.1948  0.2325  0.1882
  676PEP     CB23350   4.301   0.337  -0.063  0.1412  0.3351 -0.0553
  676PEP     CB23351   4.369  -0.125   0.166  0.5440 -0.0803 -0.0255
  676PEP     CB23352   4.102  -0.311   0.370 -0.5471  0.1400 -0.2095
  676PEP     CB23353   3.875  -0.185   0.720  0.2704 -0.4278  0.0798
  676PEP     CB23354   3.468  -0.215   0.890 -0.2459 -0.4915 -0.0560
  676PEP     CB23355   3.345  -0.157   1.266 -0.1553 -0.4029  0.2595
  676PEP     CB23356   3.599  -0.167   1.549 -0.1145  0.2932  0.2191
  676PEP     CB23357   4.054  -0.297   1.686 -0.1570  0.2478 -0.0998
  676PEP     CB23358   4.498  -0.074   1.705 -0.0251  0.0596 -0.2921
  676PEP     CB23359   4.711   0.342   1.505  0.0128  0.1844 -0.0539
  676PEP     CB23360   4.991   0.526   1.386 -0.1196  0.0648  0.5058
  677PEP     CB23361  17.161  10.275  13.351 -0.1976  0.1357  0.1508
  677PEP     CB23362  17.609  10.354  13.352  0.1600  0.0520 -0.0265
  677PEP     CB23363  18.074  10.405  13.338 -0.1028 -0.0689  0.0675
  677PEP     CB23364  18.533  10.197  13.382 -0.1523  0.2034  0.2294
  677PEP     CB23365  18.802   9.858  13.691  0.1224 -0.4450  0.1997
  677PEP     CB23366  19.012   9.684  13.927 -0.1693  0.0503 -0.1068
  677PEP     CB23367  19.126   9.618  14.333  0.1936  0.3034 -0.2263
  677PEP     CB23368  19.211   9.553  14.833  0.0011 -0.0479  0.0837
  677PEP     CB23369  19.267   9.216  15.073 -0.1535 -0.2241 -0.2423
  677PEP     CB23370  19.080   9.027  15.493  0.2575  0.1292  0.0902
  677PEP     CB23371  19.307   8.667  15.734  0.3032  0.1221  0.1557
  677PEP     CB23372  19.361   8.254  15.747 -0.1282  0.1002  0.0234
  677PEP     CB23373  19.687   7.991  15.955  0.3476 -0.1850 -0.1707
  677PEP     CB23374  19.991   7.663  16.106  0.1979  0.1026 -0.3357
  677PEP     CB23375  20.126   7.393  16.481  0.0755  0.0108 -0.0780
  677PEP     CB23376  20.259   7.029  16.708 -0.1810 -0.0409 -0.1277
  677PEP     CB23377  20.547   6.764  16.818  0.3944  0.0852 -0.0418
  677PEP     CB23378  20.741   6.402  16.870 -0.1922 -0.1076 -0.2540
  677PEP     CB23379  21.160   6.217  16.868 -0.0982 -0.3441  0.1185
  677PEP     CB23380  21.454   6.069  16.473  0.3614 -0.2116  0.2195
  677PEP     CB23381  21.859   6.050  16.279 -0.3150 -0.2851  0.0955
  677PEP     CB23382  22.366   6.083  16.126  0.5355 -0.0360 -0.2404
  677PEP     CB23383  22.775   6.352  16.115 -0.2117  0.4203  0.1041
  677PEP     CB23384  22.823   6.826  16.076 -0.3200  0.3298  0.0265
  677PEP     CB23385  22.934   7.183  15.895 -0.1078  0.3772 -0.0033
  677PEP     CB23386  22.914   7.422  15.422 -0.1586 -0.4803  0.1016
  677PEP     CB23387  22.975   7.237  14.984  0.2036  0.0372  0.0325
  677PEP     CB23388  23.139   7.490  14.600 -0.4108 -0.2260  0.3079
  677PEP     CB23389  23.324   7.932  14.607  0.1796 -0.2923  0.4428
  677PEP     CB23390  23.549   8.300  14.752  0.2348 -0.0248 -0.1900
  677PEP     CB23391  23.746   8.631  14.768  0.0099  0.2665 -0.0570
  677PEP     CB23392  23.572   9.109  14.857 -0.0587 -0.1497 -0.4755
  677PEP     CB23393  23.689   9.493  15.094  0.0906  0.1809 -0.0272
  677PEP     CB23394  23.573   9.910  15.213  0.2280  0.0367  0.0518
  677PEP     CB23395  23.805  10.146  15.481 -0.3274  0.4161  0.0810
  677PEP     CB23396  24.086  10.102  15.816  0.2732  0.2299 -0.1590
  677PEP     CB23397  24.348  10.038  16.188 -0.0168 -0.0545 -0.1067
  677PEP     CB23398  24.156   9.829  16.548 -0.2562  0.0952  0.1053
  677PEP     CB23399  23.780   9.604  16.542 -0.4572  0.2197  0.0779
  677PEP     CB23400  23.566   9.196  16.504  0.1643 -0.2277  0.1995
  678PEP     CB23401  17.233   2.037  21.220 -0.1155  0.2596  0.1191
  678PEP     CB23402  17.390   2.178  21.688  0.2948 -0.4145 -0.0228
  678PEP     CB23403  17.612   2.339  22.027 -0.5563  0.1952 -0.2612
  678PEP     CB23404  17.800   2.635  22.284 -0.0179  0.1049 -0.4528
  678PEP     CB23405  17.755   3.068  22.433 -0.4369 -0.0956 -0.1526
  678PEP     CB23406  17.940   3.401  22.211  0.1343 -0.1244  0.2727
  678PEP     CB23407  18.256   3.352  21.872  0.0644  0.1982  0.2927
  678PEP     CB23408  18.444   3.168  21.412 -0.1438 -0.5189 -0.0938
  678PEP     CB23409  18.735   3.120  21.172  0.1714  0.2933  0.1207
  678PEP     CB23410  18.886   3.014  20.765 -0.0988  0.5441 -0.1578
  678PEP     CB23411  18.911   3.180  20.368  0.0266  0.0095  0.0465
  678PEP     CB23412  19.083   3.528  20.220 -0.0523 -0.2303 -0.1228
  678PEP     CB23413  19.424   3.816  20.384 -0.2372 -0.3844  0.0169
  678PEP     CB23414  19.671   3.908  20.773  0.0491  0.1580 -0.1580
  678PEP     CB23415  19.576   4.075  21.202 -0.3813 -0.1547 -0.1561
  678PEP     CB23416  19.605   4.260  21.542  0.2256  0.0664  0.0636
  678PEP     CB23417  19.649   4.370  21.997  0.0575 -0.1763  0.1093
  678PEP     CB23418  19.537   4.649  22.257  0.2030 -0.1921 -0.3032
  678PEP     CB23419  19.504   5.158  22.352  0.1666  0.1231 -0.3459
  678PEP     CB23420  19.240   5.531  22.482  0.0905  0.1753  0.0060
  678PEP     CB23421  19.247   5.599  22.957 -0.0666 -0.1645 -0.4181
  678PEP     CB23422  19.566   5.756  23.229 -0.3665 -0.0333  0.1498
  678PEP     CB23423  19.543   6.269  23.307  0.0505  0.0252 -0.2318
  678PEP     CB23424  19.189   6.510  23.364 -0.1075  0.1734 -0.0882
  678PEP     CB23425  18.741   6.428  23.413  0.1523  0.1291 -0.1430
  678PEP     CB23426  18.281   6.550  23.224  0.1315  0.0037 -0.3154
  678PEP     CB23427  18.003   6.656  22.982 -0.2610 -0.0800 -0.2726
  678PEP     CB23428  17.755   6.747  22.518  0.2746 -0.0297 -0.1109
  678PEP     CB23429  17.559   6.663  22.154  0.1137  0.1007 -0.0933
  678PEP     CB23430  17.667   6.552  21.679 -0.3859  0.0781  0.1692
  678PEP     CB23431  17.708   6.399  21.166  0.1239 -0.1753  0.1248
  678PEP     CB23432  17.753   6.433  20.722  0.4520 -0.1266 -0.1920
  678PEP     CB23433  17.796   6.443  20.313  0.0852  0.4801 -0.0376
  678PEP     CB23434  17.896   6.181  19.996 -0.6082  0.3354 -0.0719
  678PEP     CB23435  18.046   5.903  19.655 -0.0626 -0.1418 -0.3000
  678PEP     CB23436  18.100   5.745  19.269 -0.0085  0.4739 -0.0119
  678PEP     CB23437  17.931   5.696  18.786  0.0336  0.0584 -0.0450
  678PEP     CB23438  17.660   5.695  18.462 -0.0175 -0.0252  0.0052
  678PEP     CB23439  17.540   5.548  18.020 -0.2579  0.3123  0.1022
  678PEP     CB23440  17.618   5.192  17.694 -0.4249 -0.0203  0.5211
  679PEP     CB23441   6.827   3.473  21.779 -0.2456 -0.2099 -0.0342
  679PEP     CB23442   6.720   3.088  21.642 -0.0680 -0.0098  0.2324
  679PEP     CB23443   6.711   2.746  21.617  0.0999 -0.3821  0.0777
  679PEP     CB23444   6.532   2.499  21.449  0.2254 -0.0894  0.0064
  679PEP     CB23445   6.405   2.107  21.268 -0.2963  0.1567  0.2500
  679PEP     CB23446   6.337   1.724  21.059  0.1005  0.1481 -0.0021
  679PEP     CB23447   6.184   1.554  20.643  0.5206 -0.2680 -0.0145
  679PEP     CB23448   6.343   1.204  20.502  0.2759  0.4152  0.1515
  679PEP     CB23449   6.607   1.006  20.752  0.0642  0.2839 -0.4519
  679PEP     CB23450   6.859   0.693  20.888 -0.0525 -0.2467  0.2449
  679PEP     CB23451   7.304   0.815  20.947 -0.1583  0.0061  0.2076
  679PEP     CB23452   7.443   1.253  21.124  0.2187  0.2835 -0.2555
  679PEP     CB23453   7.671   1.598  21.443 -0.0916 -0.2276  0.0696
  679PEP     CB23454   8.090   1.646  21.562  0.1801  0.3590 -0.3871
  679PEP     CB23455   8.447   1.628  21.306  0.7027 -0.0474 -0.1986
  679PEP     CB23456   8.475   1.211  21.156  0.1428 -0.0810 -0.1073
  679PEP     CB23457   8.207   1.006  21.385 -0.0994  0.4623  0.1564
  679PEP     CB23458   7.778   0.991  21.556  0.3454  0.0203  0.4470
  679PEP     CB23459   7.347   0.837  21.427 -0.2875  0.1666 -0.1489
  679PEP     CB23460   6.850   0.688  21.379  0.1545  0.0374 -0.0393
  679PEP     CB23461   6.687   0.416  21.225  0.4516  0.1234  0.1982
  679PEP     CB23462   6.925   0.175  20.900  0.6248 -0.0137  0.1602
  679PEP     CB23463   7.068  -0.200  20.791 -0.3864  0.0713 -0.0717
  679PEP     CB23464   7.195  -0.622  20.657 -0.1470  0.6360  0.3703
  679PEP     CB23465   7.396  -0.890  20.342 -0.2355 -0.3808 -0.2309
  679PEP     CB23466   7.346  -0.910  19.912 -0.2081 -0.1153 -0.1305
  679PEP     CB23467   7.159  -0.538  19.591  0.0446 -0.1389  0.0426
  679PEP     CB23468   6.922  -0.065  19.537  0.6348  0.3238  0.2034
  679PEP     CB23469   6.674   0.013  19.286  0.0852  0.3216  0.0900
  679PEP     CB23470   6.418  -0.251  19.084  0.2135 -0.2194  0.1084
  679PEP     CB23471   6.293  -0.660  19.147  0.5337  0.5175 -0.1453
  679PEP     CB23472   6.334  -0.995  19.531  0.1882  0.0286  0.0143
  679PEP     CB23473   6.348  -1.225  19.888 -0.0225  0.0692 -0.0024
  679PEP     CB23474   6.328  -1.413  20.273 -0.1793  0.1071 -0.1291
  679PEP     CB23475   6.075  -1.574  20.625  0.0439 -0.3253 -0.1450
  679PEP     CB23476   5.614  -1.669  20.824 -0.1829 -0.2695  0.2074
  679PEP     CB23477   5.160  -1.782  20.794 -0.0103 -0.2016 -0.1064
  679PEP     CB23478   4.805  -1.899  20.480  0.3256 -0.0101 -0.4385
  679PEP     CB23479   4.976  -2.102  20.100 -0.5656  0.3183  0.1260
  679PEP     CB23480   5.320  -2.402  20.170  0.1794  0.1377 -0.2970
  680PEP     CB23481  20.908   9.457  12.670  0.0930  0.1294 -0.4974
  680PEP     CB23482  20.666   9.704  12.845 -0.0631  0.0679 -0.1852
  680PEP     CB23483  20.355   9.700  12.733  0.0700  0.0605 -0.2618
  680PEP     CB23484  19.997   9.513  12.802  0.1403  0.0321 -0.1817
  680PEP     CB23485  19.569   9.560  12.797 -0.1985  0.0501 -0.2226
  680PEP     CB23486  19.168   9.733  12.665 -0.0722  0.0499 -0.1622
  680PEP     CB23487  18.790   9.676  12.755  0.2026 -0.0343 -0.3607
  680PEP     CB23488  18.468   9.877  13.035 -0.2076 -0.2917  0.0388
  680PEP     CB23489  18.148   9.889  13.397 -0.0595  0.1504  0.1368
  680PEP     CB23490  17.651   9.822  13.482  0.1875  0.1580 -0.2956
  680PEP     CB23491  17.509   9.471  13.707  0.2574 -0.3419  0.0214
  680PEP     CB23492  17.722   9.374  14.026 -0.2366 -0.1487 -0.1076
  680PEP     CB23493  17.756   9.411  14.479  0.1460 -0.3208  0.1058
  680PEP     CB23494  17.711   9.370  14.937  0.1283 -0.1891 -0.1568
  680PEP     CB23495  17.863   9.165  15.297 -0.0230 -0.1000  0.1126
  680PEP     CB23496  18.095   9.153  15.686  0.2409  0.3512 -0.0524
  680PEP     CB23497  17.942   9.325  16.083  0.6324  0.0958 -0.2365
  680PEP     CB23498  17.628   9.678  16.085 -0.0100 -0.0772  0.3580
  680PEP     CB23499  17.170   9.720  15.937 -0.2081  0.2111  0.2289
  680PEP     CB23500  16.762   9.879  15.705  0.3022  0.0748 -0.1147
  680PEP     CB23501  16.636  10.195  15.434 -0.2347 -0.1404 -0.4045
  680PEP     CB23502  16.761  10.643  15.295  0.2058 -0.1979 -0.0213
  680PEP     CB23503  16.592  10.960  15.034 -0.2525 -0.1428  0.1420
  680PEP     CB23504  16.570  11.140  14.649 -0.0128  0.0053  0.1396
  680PEP     CB23505  16.219  11.078  14.437 -0.2583 -0.1606  0.1096
  680PEP     CB23506  15.849  10.974  14.719 -0.1387  0.3247 -0.3290
  680PEP     CB23507  15.888  10.862  15.133 -0.0426  0.2694 -0.4239
  680PEP     CB23508  16.162  10.801  15.450 -0.1835 -0.1724  0.0962
  680PEP     CB23509  16.043  10.689  15.884 -0.3870  0.0725 -0.0883
  680PEP     CB23510  15.672  10.388  15.970 -0.4779  0.1325  0.0401
  680PEP     CB23511  15.494   9.948  15.750 -0.1389  0.0382 -0.3678
  680PEP     CB23512  15.205   9.666  15.852 -0.1290  0.0328 -0.5872
  680PEP     CB23513  14.865   9.475  16.064  0.0027  0.1238  0.1850
  680PEP     CB23514  14.484   9.172  16.109  0.4444 -0.0604  0.1200
  680PEP     CB23515  14.035   9.303  16.170  0.2269  0.1073 -0.1466
  680PEP     CB23516  13.703   9.411  15.975  0.0621  0.2816  0.1781
  680PEP     CB23517  13.711   9.524  15.512  0.2635 -0.1427 -0.0869
  680PEP     CB23518  14.083   9.374  15.222  0.1663 -0.7116 -0.2279
  680PEP     CB23519  14.502   9.152  15.255  0.0003  0.3684 -0.1816
  680PEP     CB23520  14.649   8.805  15.583  0.0039  0.1255  0.0911
  681PEP     CB23521   9.927  11.170  18.619  0.1820 -0.0410  0.4681
  681PEP     CB23522   9.671  10.727  18.566  0.1372 -0.0020  0.2616
  681PEP     CB23523   9.538  10.504  18.238  0.1793  0.3186  0.0352
  681PEP     CB23524   9.731  10.536  17.780 -0.2384 -0.0101 -0.2179
  681PEP     CB23525   9.962  10.866  17.619 -0.0591  0.2129  0.0669
  681PEP     CB23526   9.804  11.347  17.639  0.0848  0.3623 -0.0559
  681PEP     CB23527   9.389  11.456  17.859 -0.2234 -0.3448  0.1976
  681PEP     CB23528   9.153  11.228  18.231 -0.2667  0.2178 -0.0657
  681PEP     CB23529   9.127  10.766  18.410  0.0653 -0.1002  0.2275
  681PEP     CB23530   9.042  10.366  18.309  0.5005  0.2744  0.0391
  681PEP     CB23531   8.801  10.208  17.996  0.2023 -0.2475 -0.3145
  681PEP     CB23532   8.507  10.350  17.709  0.1498 -0.1545 -0.0603
  681PEP     CB23533   8.193  10.344  17.371 -0.0413  0.1399 -0.2432
  681PEP     CB23534   7.797  10.347  17.186  0.2818 -0.2629 -0.1753
  681PEP     CB23535   7.405  10.254  16.995 -0.5016 -0.3355  0.0996
  681PEP     CB23536   7.102   9.898  16.957 -0.2515 -0.3952 -0.0072
  681PEP     CB23537   6.970   9.533  17.296 -0.2087  0.2262 -0.0012
  681PEP     CB23538   7.136   9.439  17.762  0.0973 -0.0423  0.0446
  681PEP     CB23539   7.281   9.841  18.040  0.1975 -0.1456 -0.0652
  681PEP     CB23540   7.115  10.220  18.021  0.3762  0.0466 -0.1619
  681PEP     CB23541   6.926  10.492  17.701  0.2021  0.3079  0.3888
  681PEP     CB23542   7.035  10.719  17.271 -0.2059  0.2231 -0.0024
  681PEP     CB23543   7.200  10.886  16.858  0.0621  0.3407 -0.2976
  681PEP     CB23544   7.558  11.115  16.706 -0.2295 -0.0289  0.3459
  681PEP     CB23545   7.975  11.266  16.773  0.2881  0.2574  0.3605
  681PEP     CB23546   8.193  11.393  17.112 -0.2133 -0.0721 -0.2010
  681PEP     CB23547   8.053  11.303  17.557  0.0460 -0.1453  0.5741
  681PEP     CB23548   7.716  11.452  17.799 -0.2503  0.0685  0.3356
  681PEP     CB23549   7.323  11.691  17.584  0.1409 -0.1328 -0.1716
  681PEP     CB23550   7.203  11.919  17.274  0.3562  0.1017  0.1903
  681PEP     CB23551   7.318  12.008  16.792 -0.0395  0.1020  0.1599
  681PEP     CB23552   7.273  12.004  16.413  0.1494 -0.3774  0.0218
  681PEP     CB23553   7.333  11.723  16.018 -0.0564  0.0568  0.1052
  681PEP     CB23554   7.728  11.554  15.656 -0.1169 -0.1757 -0.1563
  681PEP     CB23555   8.120  11.355  15.574  0.0821  0.0172  0.0541
  681PEP     CB23556   8.244  10.844  15.509 -0.3346 -0.1842 -0.1631
  681PEP     CB23557   7.939  10.458  15.470  0.1155  0.1385 -0.2047
  681PEP     CB23558   7.726  10.079  15.418 -0.1483  0.2639 -0.2396
  681PEP     CB23559   7.371   9.921  15.645  0.1117 -0.3983 -0.4984
  681PEP     CB23560   6.902   9.935  15.659  0.0212  0.1477  0.0502
  682PEP     CB23561  10.346  18.649   4.402 -0.0047  0.1996  0.4952
  682PEP     CB23562  10.172  18.243   4.484 -0.3880 -0.0621 -0.1074
  682PEP     CB23563  10.157  18.098   4.845 -0.3675 -0.0081  0.0259
  682PEP     CB23564  10.012  18.218   5.279  0.0918 -0.0506 -0.2105
  682PEP     CB23565   9.696  18.625   5.247 -0.1916  0.1940 -0.3604
  682PEP     CB23566   9.581  18.990   4.841 -0.0555  0.3562 -0.0068
  682PEP     CB23567   9.427  19.053   4.447  0.0440  0.2567 -0.0466
  682PEP     CB23568   9.378  19.072   3.911 -0.1419 -0.1745 -0.1131
  682PEP     CB23569   9.524  19.397   3.592 -0.0087 -0.1326  0.3804
  682PEP     CB23570   9.867  19.729   3.705  0.1304 -0.1644 -0.4055
  682PEP     CB23571  10.251  19.868   3.928 -0.0056 -0.2835  0.2229
  682PEP     CB23572  10.753  19.962   3.805 -0.3083  0.0973  0.1121
  682PEP     CB23573  11.007  19.594   3.722 -0.1197 -0.1551  0.0619
  682PEP     CB23574  11.275  19.225   3.701 -0.2506 -0.1081 -0.0600
  682PEP     CB23575  11.481  19.028   3.427 -0.4679  0.0306  0.0838
  682PEP     CB23576  11.852  19.212   3.200  0.1038 -0.1455 -0.2097
  682PEP     CB23577  12.196  19.392   3.454 -0.0821  0.0118  0.0677
  682PEP     CB23578  12.356  19.232   3.878  0.0358  0.1419  0.0653
  682PEP     CB23579  12.340  18.790   3.985  0.1814  0.1031 -0.1709
  682PEP     CB23580  12.241  18.396   3.607 -0.0808  0.3073 -0.1256
  682PEP     CB23581  11.898  18.057   3.477  0.0964 -0.1285  0.0195
  682PEP     CB23582  11.737  17.675   3.611  0.1159 -0.0001 -0.2726
  682PEP     CB23583  11.720  17.448   3.924 -0.1213  0.2312 -0.0070
  682PEP     CB23584  11.688  17.575   4.431 -0.0402 -0.0529  0.0166
  682PEP     CB23585  11.776  17.626   4.916  0.1455  0.4100  0.0128
  682PEP     CB23586  12.096  17.743   5.224 -0.0201 -0.0465  0.1010
  682PEP     CB23587  12.312  17.905   5.550  0.0629 -0.0569 -0.1786
  682PEP     CB23588  12.584  17.939   5.879 -0.0711 -0.0447  0.1890
  682PEP     CB23589  13.056  17.900   6.023  0.2201  0.2906  0.0097
  682PEP     CB23590  13.446  17.705   6.132  0.0447  0.1367  0.2475
  682PEP     CB23591  13.669  17.342   6.155  0.0451  0.3197  0.2337
  682PEP     CB23592  13.817  16.856   6.248 -0.0472 -0.1689  0.1003
  682PEP     CB23593  14.128  16.550   6.311  0.0295 -0.1902 -0.3156
  682PEP     CB23594  14.589  16.420   6.022  0.0568  0.1260 -0.1510
  682PEP     CB23595  14.918  16.347   5.750  0.1312 -0.0918 -0.2012
  682PEP     CB23596  15.041  16.278   5.343 -0.2701 -0.1526 -0.3593
  682PEP     CB23597  14.849  15.957   5.016 -0.1712  0.0738  0.2669
  682PEP     CB23598  14.520  15.769   4.677  0.2719 -0.5121 -0.2216
  682PEP     CB23599  14.409  15.842   4.210 -0.2050 -0.2323  0.2230
  682PEP     CB23600  14.070  15.968   3.987 -0.1103  0.1445  0.1864
  683PEP     CB23601  14.416  18.906  21.716 -0.0543 -0.1145  0.1349
  683PEP     CB23602  14.880  18.961  21.835  0.1317  0.0605  0.0474
  683PEP     CB23603  15.030  19.303  21.984 -0.0885 -0.0240 -0.1705
  683PEP     CB23604  14.941  19.695  21.977  0.3429 -0.3995  0.1429
  683PEP     CB23605  15.004  20.008  22.312 -0.2425 -0.2776  0.0052
  683PEP     CB23606  15.446  20.155  22.430  0.0286  0.0977 -0.1579
  683PEP     CB23607  15.728  20.299  22.232  0.2013  0.1977  0.0560
  683PEP     CB23608  15.982  20.690  22.033  0.1071  0.1749  0.0359
  683PEP     CB23609  16.079  21.130  21.951  0.1030 -0.2378 -0.1006
  683PEP     CB23610  16.365  21.517  21.877  0.0308 -0.0330 -0.4932
  683PEP     CB23611  16.734  21.731  21.789 -0.0615  0.0892  0.0378
  683PEP     CB23612  16.944  21.991  21.678 -0.0584 -0.0486  0.2178
  683PEP     CB23613  17.414  22.072  21.694  0.2428 -0.0411  0.0338
  683PEP     CB23614  17.797  21.878  21.742 -0.1502  0.0244 -0.0285
  683PEP     CB23615  17.928  21.395  21.765 -0.1234  0.3403 -0.0559
  683PEP     CB23616  17.880  20.931  21.659  0.1161  0.2500 -0.4255
  683PEP     CB23617  18.006  20.595  21.835  0.1084 -0.0217 -0.2877
  683PEP     CB23618  18.152  20.218  21.692  0.2730  0.0846 -0.0146
  683PEP     CB23619  18.439  20.129  21.364 -0.3481 -0.1835  0.1439
  683PEP     CB23620  18.841  20.373  21.219  0.3375  0.0830 -0.1261
  683PEP     CB23621  19.244  20.430  20.926 -0.1930  0.1149 -0.3242
  683PEP     CB23622  19.699  20.315  21.064 -0.2634 -0.2957  0.1825
  683PEP     CB23623  19.706  20.100  21.422 -0.0711 -0.1014  0.2333
  683PEP     CB23624  19.516  19.748  21.660 -0.1811  0.3757 -0.0379
  683PEP     CB23625  19.122  19.531  21.794 -0.0662 -0.1671  0.5322
  683PEP     CB23626  18.981  19.072  21.944 -0.3562  0.0396  0.0677
  683PEP     CB23627  19.206  18.687  21.937 -0.1402  0.1272  0.0943
  683PEP     CB23628  19.617  18.544  22.117 -0.0300  0.2104  0.1589
  683PEP     CB23629  19.914  18.566  22.403 -0.0896 -0.2494 -0.6072
  683PEP     CB23630  20.407  18.505  22.444 -0.1964 -0.0837 -0.1848
  683PEP     CB23631  20.736  18.191  22.678 -0.0675 -0.2318 -0.3511
  683PEP     CB23632  20.836  17.830  22.528 -0.3536 -0.4876 -0.0324
  683PEP     CB23633  21.015  17.556  22.145  0.0316 -0.4271  0.0750
  683PEP     CB23634  21.017  17.207  21.859  0.1196  0.0181  0.2100
  683PEP     CB23635  21.251  16.985  21.473 -0.0027  0.2480  0.3360
  683PEP     CB23636  21.543  17.245  21.249  0.0104 -0.0112  0.2181
  683PEP     CB23637  21.509  17.603  21.313 -0.0971  0.4190  0.1098
  683PEP     CB23638  21.440  17.916  21.652  0.4370  0.1606  0.0380
  683PEP     CB23639  21.093  18.118  21.849 -0.1804 -0.2132 -0.1939
  683PEP     CB23640  20.760  17.881  21.874 -0.1300  0.0191 -0.2567
  684PEP     CB23641  16.372  15.862   6.588  0.1381  0.2012  0.0474
  684PEP     CB23642  16.599  15.691   6.216  0.2113  0.0734 -0.3862
  684PEP     CB23643  16.880  15.604   5.861  0.0229 -0.2302 -0.1183
  684PEP     CB23644  17.150  15.748   5.522  0.2899 -0.0220  0.1307
  684PEP     CB23645  17.519  15.884   5.395  0.2155  0.1472  0.1391
  684PEP     CB23646  17.543  16.183   5.230  0.2529  0.3007  0.1805
  684PEP     CB23647  17.264  16.538   5.071  0.1666  0.0017 -0.2211
  684PEP     CB23648  16.843  16.398   4.790 -0.3089 -0.0669 -0.3422
  684PEP     CB23649  16.441  16.235   4.860  0.0835  0.0765 -0.0499
  684PEP     CB23650  16.341  15.805   5.056 -0.1563  0.0432  0.0040
  684PEP     CB23651  16.545  15.394   5.038 -0.2513  0.2589 -0.2557
  684PEP     CB23652  16.807  15.220   5.317 -0.0861  0.2732 -0.0633
  684PEP     CB23653  16.603  14.974   5.633  0.2278  0.0139  0.0150
  684PEP     CB23654  16.287  14.900   5.834  0.3158  0.1771  0.0810
  684PEP     CB23655  16.056  14.726   6.144  0.0543  0.6094  0.2628
  684PEP     CB23656  15.993  14.639   6.537 -0.0119  0.1591  0.4146
  684PEP     CB23657  15.867  14.311   6.733 -0.0897 -0.3208 -0.1388
  684PEP     CB23658  15.735  13.822   6.728 -0.0199 -0.0798  0.2448
  684PEP     CB23659  15.657  13.413   6.820  0.1937  0.0241 -0.0688
  684PEP     CB23660  15.294  13.251   6.821  0.2408  0.1211 -0.2291
  684PEP     CB23661  14.914  13.487   6.900 -0.0864  0.2274 -0.2688
  684PEP     CB23662  14.868  13.906   6.950 -0.2936  0.0281 -0.2780
  684PEP     CB23663  14.741  14.243   7.198  0.3011  0.2484 -0.1658
  684PEP     CB23664  14.790  14.714   7.264 -0.0214  0.0589  0.2766
  684PEP     CB23665  14.740  15.019   7.549 -0.0259  0.1316 -0.2940
  684PEP     CB23666  14.379  15.357   7.710 -0.0415 -0.1336 -0.0741
  684PEP     CB23667  13.967  15.476   7.735  0.2165  0.2198 -0.2435
  684PEP     CB23668  13.539  15.475   7.745  0.1797 -0.0944  0.0295
  684PEP     CB23669  13.074  15.455   7.642 -0.0995 -0.2019 -0.1702
  684PEP     CB23670  12.791  15.351   7.188  0.3977  0.1971  0.1225
  684PEP     CB23671  12.221  15.405   7.061  0.2553 -0.0390  0.5479
  684PEP     CB23672  11.936  15.776   7.276 -0.2347  0.0131 -0.1599
  684PEP     CB23673  11.766  15.937   7.674  0.4999  0.0689 -0.1539
  684PEP     CB23674  11.916  15.820   8.161 -0.0445 -0.1397  0.2887
  684PEP     CB23675  12.086  16.125   8.425 -0.6082 -0.4465  0.0096
  684PEP     CB23676  11.828  16.607   8.436 -0.1579 -0.1820  0.1769
  684PEP     CB23677  11.358  16.668   8.189 -0.1881  0.1173 -0.0121
  684PEP     CB23678  11.063  16.724   7.933 -0.1810  0.1861  0.1275
  684PEP     CB23679  10.870  16.909   7.580 -0.0691  0.2939 -0.0981
  684PEP     CB23680  10.857  17.187   7.239  0.2103 -0.3211  0.0688
  685PEP     CB23681  14.175  21.243   1.170  0.0656  0.0810 -0.2160
  685PEP     CB23682  14.516  21.398   1.379 -0.0589 -0.3819  0.2942
  685PEP     CB23683  14.955  21.535   1.488  0.0265  0.5523  0.4052
  685PEP     CB23684  15.324  21.659   1.455 -0.4025 -0.1993 -0.1956
  685PEP     CB23685  15.811  21.434   1.379  0.1964 -0.0518  0.1613
  685PEP     CB23686  15.943  21.200   1.009 -0.1330 -0.1922  0.4373
  685PEP     CB23687  15.821  20.824   0.620  0.0303 -0.0190 -0.0602
  685PEP     CB23688  16.084  20.545   0.485  0.3768  0.1917  0.3782
  685PEP     CB23689  16.427  20.292   0.553 -0.0602  0.1429 -0.0391
  685PEP     CB23690  16.859  20.166   0.703 -0.2485 -0.2188 -0.2281
  685PEP     CB23691  17.338  20.227   0.592 -0.0776 -0.0573  0.1032
  685PEP     CB23692  17.691  20.077   0.341  0.5365 -0.0009 -0.1122
  685PEP     CB23693  18.047  20.243   0.144 -0.4001  0.2044 -0.0987
  685PEP     CB23694  18.528  20.258   0.145 -0.1069  0.3416 -0.2105
  685PEP     CB23695  18.768  20.105  -0.228  0.3115 -0.1523 -0.0687
  685PEP     CB23696  18.682  19.737  -0.393 -0.1637  0.1336 -0.0923
  685PEP     CB23697  18.663  19.402  -0.670 -0.2533  0.0275  0.2997
  685PEP     CB23698  18.318  19.231  -0.793 -0.5537 -0.0288 -0.3126
  685PEP     CB23699  17.846  19.328  -0.702  0.2210  0.0948 -0.2012
  685PEP     CB23700  17.462  19.608  -0.735 -0.0421 -0.1079  0.2138
  685PEP     CB23701  17.017  19.713  -0.768  0.0591 -0.2784  0.0483
  685PEP     CB23702  16.717  19.683  -1.053 -0.0798  0.0779  0.2938
  685PEP     CB23703  16.699  19.863  -1.472  0.2696 -0.6761  0.2267
  685PEP     CB23704  16.927  19.917  -1.830  0.1801 -0.2642 -0.0901
  685PEP     CB23705  17.114  20.202  -2.064 -0.0043 -0.0068  0.0228
  685PEP     CB23706  17.405  20.343  -2.331 -0.3260  0.2451 -0.3553
  685PEP     CB23707  17.637  20.425  -2.738 -0.1065  0.2869 -0.1191
  685PEP     CB23708  17.703  20.457  -3.136 -0.2987 -0.0253 -0.1978
  685PEP     CB23709  17.757  20.716  -3.438 -0.1445  0.1447 -0.2479
  685PEP     CB23710  17.772  20.994  -3.800 -0.1069  0.0220  0.2896
  685PEP     CB23711  17.774  21.368  -4.156  0.1985  0.2000 -0.1602
  685PEP     CB23712  17.727  21.779  -4.368  0.2057 -0.4899  0.0871
  685PEP     CB23713  18.046  22.093  -4.407 -0.3363  0.2143 -0.0704
  685PEP     CB23714  18.488  22.133  -4.484 -0.0651 -0.0227 -0.0535
  685PEP     CB23715  18.891  22.213  -4.762  0.0309 -0.0295 -0.1798
  685PEP     CB23716  19.100  22.424  -5.059  0.1727 -0.2834 -0.2622
  685PEP     CB23717  19.105  22.786  -5.339  0.2133 -0.1459 -0.0367
  685PEP     CB23718  18.778  23.153  -5.243  0.3744 -0.1886 -0.1857
  685PEP     CB23719  18.516  23.374  -5.064 -0.1412  0.2447 -0.2689
  685PEP     CB23720  18.221  23.499  -4.700 -0.2439  0.0732 -0.0669
  686PEP     CB23721  21.337   6.787  15.247  0.3332 -0.0871  0.1704
  686PEP     CB23722  20.975   6.857  15.118 -0.1478  0.0838  0.2423
  686PEP     CB23723  20.569   6.739  15.006  0.0211 -0.0433  0.0974
  686PEP     CB23724  20.263   6.884  14.715 -0.2670  0.0963  0.0288
  686PEP     CB23725  19.989   6.774  14.409 -0.0110 -0.0818 -0.0538
  686PEP     CB23726  19.626   6.406  14.406  0.1201  0.2171 -0.3246
  686PEP     CB23727  19.345   6.257  14.122  0.2372 -0.0393 -0.0305
  686PEP     CB23728  19.221   6.164  13.654  0.2085 -0.4613 -0.0377
  686PEP     CB23729  19.189   6.015  13.317  0.0405 -0.1771  0.0029
  686PEP     CB23730  19.032   5.963  12.869  0.0456  0.4028 -0.2678
  686PEP     CB23731  18.790   6.213  12.613 -0.2042 -0.0328  0.0673
  686PEP     CB23732  18.817   6.702  12.520  0.1745  0.2875  0.3132
  686PEP     CB23733  18.571   6.942  12.684  0.2453  0.0062  0.1730
  686PEP     CB23734  18.172   6.865  12.738  0.1320 -0.2971  0.1559
  686PEP     CB23735  17.820   6.850  12.468 -0.2010  0.0469  0.0379
  686PEP     CB23736  17.721   6.753  12.136  0.3124  0.1297 -0.2340
  686PEP     CB23737  17.473   6.867  11.779 -0.1707 -0.0286  0.4002
  686PEP     CB23738  17.275   7.181  11.636  0.1642  0.3620 -0.3793
  686PEP     CB23739  17.308   7.555  11.832 -0.1857  0.0769  0.3545
  686PEP     CB23740  17.293   7.643  12.262 -0.4405 -0.2810  0.0210
  686PEP     CB23741  17.387   7.654  12.718 -0.1314 -0.0870  0.4735
  686PEP     CB23742  17.749   7.553  12.865  0.1986  0.0697 -0.0055
  686PEP     CB23743  18.089   7.888  12.924 -0.1727  0.0384 -0.2593
  686PEP     CB23744  18.054   8.188  13.278  0.2118 -0.0382  0.0742
  686PEP     CB23745  17.905   8.573  13.399  0.2456  0.1472 -0.0125
  686PEP     CB23746  17.931   8.973  13.241 -0.3370 -0.3887 -0.2334
  686PEP     CB23747  17.920   9.371  13.399 -0.3865 -0.3631 -0.0280
  686PEP     CB23748  18.236   9.546  13.762 -0.1066  0.1527 -0.1267
  686PEP     CB23749  18.206   9.297  14.076 -0.1325 -0.1096  0.0258
  686PEP     CB23750  18.355   8.913  14.130  0.0424  0.1567 -0.1054
  686PEP     CB23751  18.387   8.654  14.484  0.0308 -0.1438  0.0585
  686PEP     CB23752  18.303   8.809  14.926  0.1407 -0.1727  0.1865
  686PEP     CB23753  18.380   9.162  15.207  0.2615 -0.2367  0.2797
  686PEP     CB23754  18.527   9.361  15.562  0.1682  0.3261  0.2279
  686PEP     CB23755  18.946   9.460  15.702 -0.2611 -0.0823 -0.0141
  686PEP     CB23756  19.332   9.228  15.886  0.1446  0.0425  0.0559
  686PEP     CB23757  19.466   9.153  16.275 -0.2702  0.0665 -0.3627
  686PEP     CB23758  19.688   8.818  16.498 -0.1535  0.2904 -0.2200
  686PEP     CB23759  20.170   8.780  16.571  0.1480  0.1249 -0.0254
  686PEP     CB23760  20.529   8.730  16.763  0.0482  0.3104  0.1110
  687PEP     CB23761  14.515  16.883   8.189 -0.4184 -0.1370 -0.0769
  687PEP     CB23762  14.439  16.409   8.251 -0.0707  0.1225  0.0090
  687PEP     CB23763  14.608  16.082   8.330 -0.2830  0.0724 -0.0394
  687PEP     CB23764  15.025  15.947   8.336  0.0023 -0.0237 -0.0270
  687PEP     CB23765  15.355  15.812   8.587  0.4263 -0.0128 -0.1345
  687PEP     CB23766  15.718  15.625   8.649  0.0011 -0.0372  0.1631
  687PEP     CB23767  15.930  15.342   8.495 -0.1236 -0.0552 -0.1055
  687PEP     CB23768  16.176  14.886   8.502  0.2107 -0.0183  0.0342
  687PEP     CB23769  16.289  14.470   8.565 -0.1720  0.1377  0.2818
  687PEP     CB23770  16.348  14.115   8.859 -0.1460  0.2379  0.0050
  687PEP     CB23771  16.550  13.717   8.944 -0.7193  0.4192  0.0028
  687PEP     CB23772  16.876  13.312   8.807 -0.0779  0.1188 -0.1273
  687PEP     CB23773  16.850  13.166   8.417 -0.3492  0.0841 -0.0985
  687PEP     CB23774  16.451  12.901   8.205  0.3177 -0.0193  0.1438
  687PEP     CB23775  16.175  12.921   8.495  0.3180  0.1544  0.0107
  687PEP     CB23776  16.280  13.271   8.872 -0.0848  0.0917  0.0352
  687PEP     CB23777  16.445  13.326   9.197  0.1005 -0.1587  0.0988
  687PEP     CB23778  16.271  13.400   9.660 -0.0400 -0.0912 -0.2403
  687PEP     CB23779  16.037  13.091   9.950 -0.1748  0.2176  0.2720
  687PEP     CB23780  16.230  12.915  10.319  0.5177  0.1991 -0.1399
  687PEP     CB23781  16.398  12.750  10.657 -0.2326 -0.2166 -0.0801
  687PEP     CB23782  16.399  12.568  11.059 -0.0675 -0.1504 -0.0931
  687PEP     CB23783  16.476  12.500  11.532  0.0618  0.0962 -0.0464
  687PEP     CB23784  16.869  12.596  11.787 -0.0517 -0.0921 -0.3702
  687PEP     CB23785  17.334  12.563  11.620 -0.0858  0.0208 -0.0092
  687PEP     CB23786  17.713  12.335  11.294  0.2018 -0.1111  0.1803
  687PEP     CB23787  17.812  12.296  10.903  0.0855 -0.0016 -0.5036
  687PEP     CB23788  17.593  12.569  10.612  0.1252 -0.1577  0.1135
  687PEP     CB23789  17.756  12.997  10.683 -0.1883  0.2059  0.1117
  687PEP     CB23790  18.145  13.228  10.679 -0.1323 -0.1589  0.1904
  687PEP     CB23791  18.571  13.141  10.770  0.1942 -0.3901  0.1511
  687PEP     CB23792  18.812  12.830  10.670 -0.6565 -0.2444 -0.3657
  687PEP     CB23793  18.689  12.552  10.396 -0.1963 -0.1409  0.0744
  687PEP     CB23794  18.623  12.093  10.176  0.1095  0.1218  0.3545
  687PEP     CB23795  18.737  11.703   9.957 -0.2562  0.1790 -0.0413
  687PEP     CB23796  18.485  11.494   9.629  0.2085  0.3110 -0.2777
  687PEP     CB23797  18.119  11.410   9.432 -0.0189 -0.2795 -0.2901
  687PEP     CB23798  17.818  11.216   9.100  0.0844  0.0211  0.1517
  687PEP     CB23799  17.728  10.925   8.720  0.1969  0.0229 -0.0346
  687PEP     CB23800  17.617  10.914   8.273  0.2100 -0.2540 -0.0908
  688PEP     CB23801  21.701  17.656  15.111 -0.0147 -0.0107  0.2209
  688PEP     CB23802  22.045  17.731  15.249  0.0733 -0.1751  0.2765
  688PEP     CB23803  22.374  18.058  15.298 -0.1296 -0.0944  0.0544
  688PEP     CB23804  22.472  18.408  15.515 -0.0946  0.0550  0.0981
  688PEP     CB23805  22.330  18.890  15.317 -0.0759 -0.0092 -0.1305
  688PEP     CB23806  22.079  19.011  14.961 -0.0145 -0.1577 -0.3607
  688PEP     CB23807  22.034  18.754  14.628 -0.0916  0.0797  0.2007
  688PEP     CB23808  22.427  18.493  14.546  0.1767  0.1893  0.1903
  688PEP     CB23809  22.818  18.665  14.609  0.0331 -0.3249  0.6594
  688PEP     CB23810  22.831  19.070  14.776  0.2365  0.0050 -0.0592
  688PEP     CB23811  22.305  19.317  14.636  0.0250 -0.2343  0.1850
  688PEP     CB23812  22.230  19.305  14.218  0.2798  0.0270  0.1082
  688PEP     CB23813  22.534  19.327  13.883 -0.1701  0.1160  0.2217
  688PEP     CB23814  22.724  19.614  13.524 -0.2123 -0.0537 -0.4675
  688PEP     CB23815  22.931  19.665  13.185 -0.2679  0.2389  0.2813
  688PEP     CB23816  23.004  19.574  12.677 -0.0017  0.1409 -0.0044
  688PEP     CB23817  22.941  19.583  12.207  0.1663 -0.0984 -0.0454
  688PEP     CB23818  22.579  19.437  11.866 -0.3606  0.4583  0.1724
  688PEP     CB23819  22.076  19.390  11.990 -0.1282  0.0656 -0.1518
  688PEP     CB23820  21.640  19.441  12.241  0.0716  0.0903  0.0942
  688PEP     CB23821  21.279  19.528  12.337  0.2562  0.0491  0.4877
  688PEP     CB23822  20.931  19.745  12.596  0.2579 -0.2313  0.4310
  688PEP     CB23823  20.539  19.813  12.724  0.0078  0.1291 -0.0319
  688PEP     CB23824  20.112  19.626  12.639 -0.1019  0.2010 -0.0611
  688PEP     CB23825  19.813  19.437  12.422  0.0611  0.0173 -0.1279
  688PEP     CB23826  19.863  19.032  12.251 -0.3946 -0.3042  0.1183
  688PEP     CB23827  20.144  18.657  12.253 -0.2274  0.5216  0.3432
  688PEP     CB23828  20.558  18.510  12.433  0.0796 -0.0597 -0.1088
  688PEP     CB23829  20.704  18.338  12.755  0.1627  0.4102  0.0757
  688PEP     CB23830  21.100  18.233  12.965  0.2278 -0.2640  0.2194
  688PEP     CB23831  21.551  18.029  12.904 -0.0548 -0.1204  0.4109
  688PEP     CB23832  21.795  17.844  12.577 -0.3894  0.0339  0.0840
  688PEP     CB23833  21.916  17.852  12.187  0.2346  0.2882 -0.0937
  688PEP     CB23834  21.848  18.068  11.735  0.2199 -0.0114 -0.0532
  688PEP     CB23835  21.993  18.332  11.422  0.0248 -0.0228  0.2168
  688PEP     CB23836  21.881  18.586  11.082 -0.2108  0.2196 -0.0924
  688PEP     CB23837  22.028  18.722  10.717  0.1466  0.3154 -0.4354
  688PEP     CB23838  22.113  18.542  10.446 -0.1655 -0.0272 -0.0724
  688PEP     CB23839  22.450  18.290  10.253 -0.0629 -0.0038  0.3225
  688PEP     CB23840  22.884  18.224  10.346 -0.0938 -0.1303 -0.0739
  689PEP     CB23841   6.154  21.936  19.467  0.2620 -0.2430  0.1185
  689PEP     CB23842   6.111  21.548  19.763  0.0470 -0.5902  0.0852
  689PEP     CB23843   6.123  21.275  20.132  0.0034 -0.1630  0.1808
  689PEP     CB23844   5.890  21.098  20.463 -0.2009 -0.3288 -0.1400
  689PEP     CB23845   5.542  20.965  20.626  0.2127  0.2780 -0.0263
  689PEP     CB23846   5.363  20.764  20.960 -0.3224 -0.5118 -0.2812
  689PEP     CB23847   5.582  20.668  21.341 -0.0899  0.3882 -0.4612
  689PEP     CB23848   5.750  20.824  21.638 -0.2576 -0.0703 -0.1194
  689PEP     CB23849   5.542  20.996  22.008  0.2007 -0.2230  0.1052
  689PEP     CB23850   5.125  21.013  22.352  0.2897  0.1631  0.1535
  689PEP     CB23851   4.688  20.998  22.493 -0.0821 -0.2207  0.1539
  689PEP     CB23852   4.574  20.925  22.814 -0.1576 -0.0405  0.0221
  689PEP     CB23853   4.693  20.759  23.150  0.1719  0.1272 -0.3239
  689PEP     CB23854   4.703  20.257  23.296 -0.0774 -0.2965 -0.0753
  689PEP     CB23855   4.738  19.911  23.012  0.1411  0.3116 -0.1604
  689PEP     CB23856   5.005  19.611  22.790 -0.2626 -0.2462 -0.1816
  689PEP     CB23857   5.359  19.278  22.681 -0.5241 -0.2121 -0.6127
  689PEP     CB23858   5.461  19.012  23.077  0.3849 -0.0704 -0.3766
  689PEP     CB23859   5.509  19.184  23.392  0.1615 -0.2439  0.1958
  689PEP     CB23860   5.818  19.570  23.405 -0.4654  0.2621  0.1223
  689PEP     CB23861   6.294  19.606  23.406  0.2840 -0.1347 -0.1694
  689PEP     CB23862   6.700  19.747  23.112 -0.1229 -0.0874 -0.1385
  689PEP     CB23863   6.730  20.126  22.881 -0.4090 -0.2517 -0.1045
  689PEP     CB23864   6.364  20.263  22.813 -0.4942 -0.0520  0.2444
  689PEP     CB23865   5.956  20.231  22.665 -0.0891  0.1106  0.1929
  689PEP     CB23866   5.744  20.199  22.245 -0.0371 -0.1505 -0.0998
  689PEP     CB23867   5.587  20.071  21.896 -0.0544  0.0633  0.0263
  689PEP     CB23868   5.372  19.856  21.666  0.1776  0.0714 -0.1561
  689PEP     CB23869   4.956  19.741  21.479 -0.0102  0.1467  0.0036
  689PEP     CB23870   4.496  19.566  21.442 -0.1339 -0.0811 -0.0626
  689PEP     CB23871   4.190  19.818  21.313  0.1143  0.1316  0.0772
  689PEP     CB23872   3.776  19.890  21.063 -0.1604  0.0250 -0.1540
  689PEP     CB23873   3.433  19.997  20.991 -0.4911 -0.2790 -0.3589
  689PEP     CB23874   3.166  20.400  20.793  0.1632 -0.2002  0.1381
  689PEP     CB23875   3.442  20.712  20.635  0.2666 -0.2341 -0.1888
  689PEP     CB23876   3.719  20.991  20.690  0.0167 -0.2519 -0.2548
  689PEP     CB23877   3.613  21.229  21.012 -0.3021  0.1466 -0.1462
  689PEP     CB23878   3.453  21.210  21.412 -0.2914 -0.0222  0.1618
  689PEP     CB23879   3.266  21.170  21.794  0.0792  0.1921  0.0534
  689PEP     CB23880   3.103  21.325  22.232 -0.2127 -0.4196  0.2026
  690PEP     CB23881  15.454  20.882  17.427  0.1284  0.0695  0.2146
  690PEP     CB23882  15.353  20.665  16.941  0.1164  0.0436 -0.0595
  690PEP     CB23883  15.326  20.266  16.593  0.1739  0.1592 -0.1203
  690PEP     CB23884  15.503  19.961  16.372  0.1103 -0.4528  0.2850
  690PEP     CB23885  15.346  19.531  16.171  0.2046  0.0923 -0.1582
  690PEP     CB23886  14.898  19.446  16.122  0.3173  0.1482  0.5328
  690PEP     CB23887  14.641  19.529  16.378  0.0595 -0.1511  0.3547
  690PEP     CB23888  14.737  19.684  16.860  0.3358 -0.6272 -0.2318
  690PEP     CB23889  14.821  19.737  17.293 -0.2264  0.1402 -0.2889
  690PEP     CB23890  14.757  19.912  17.774 -0.2523 -0.1007 -0.2713
  690PEP     CB23891  14.583  19.824  18.186  0.3964  0.1424  0.3165
  690PEP     CB23892  14.468  19.576  18.592  0.3363 -0.4363 -0.0381
  690PEP     CB23893  14.640  19.421  18.969 -0.1133 -0.2004 -0.3915
  690PEP     CB23894  14.914  19.297  19.321 -0.0343  0.2352  0.2506
  690PEP     CB23895  14.908  19.400  19.720  0.5063 -0.3366 -0.0969
  690PEP     CB23896  14.979  19.596  20.090 -0.1864  0.0761  0.1660
  690PEP     CB23897  14.953  19.480  20.577 -0.3031  0.2739 -0.1400
  690PEP     CB23898  15.008  19.528  21.013  0.0439  0.0943 -0.1140
  690PEP     CB23899  15.171  19.725  21.319 -0.1606 -0.1044  0.4273
  690PEP     CB23900  15.201  19.975  21.649  0.0138 -0.1403 -0.2660
  690PEP     CB23901  15.430  19.973  21.933 -0.0373 -0.1108  0.0353
  690PEP     CB23902  15.481  19.594  22.180 -0.1257 -0.2671  0.2199
  690PEP     CB23903  15.765  19.244  22.223 -0.3494 -0.8449  0.0599
  690PEP     CB23904  16.114  18.969  22.322 -0.1242  0.3027 -0.2394
  690PEP     CB23905  16.402  18.693  22.230 -0.3085 -0.0556 -0.0869
  690PEP     CB23906  16.528  18.366  21.945 -0.3985 -0.0216  0.0600
  690PEP     CB23907  16.420  17.923  21.912 -0.3899  0.1400 -0.1776
  690PEP     CB23908  16.427  17.487  21.805  0.0623  0.1817  0.6496
  690PEP     CB23909  16.543  17.076  21.967  0.2995 -0.1325 -0.0968
  690PEP     CB23910  16.819  17.044  22.325 -0.1405  0.3057 -0.1197
  690PEP     CB23911  16.659  17.122  22.744  0.1042  0.1000 -0.3576
  690PEP     CB23912  16.487  17.469  22.991 -0.0682 -0.2419 -0.0299
  690PEP     CB23913  16.084  17.737  22.920 -0.3192  0.0998  0.2541
  690PEP     CB23914  15.614  17.791  22.831  0.1162  0.0676  0.1134
  690PEP     CB23915  15.190  17.817  22.778 -0.3011 -0.3740 -0.3155
  690PEP     CB23916  14.996  18.110  22.657 -0.1490 -0.0597 -0.2402
  690PEP     CB23917  14.887  18.465  22.812  0.2253 -0.2606  0.2066
  690PEP     CB23918  14.922  18.968  22.865 -0.2813 -0.2997  0.1920
  690PEP     CB23919  15.313  19.198  22.941 -0.1150 -0.2251 -0.3704
  690PEP     CB23920  15.725  19.222  22.691  0.1728  0.0734 -0.0205
  691PEP     CB23921  21.168   3.684  12.125 -0.0441  0.2144 -0.0140
  691PEP     CB23922  21.281   3.234  12.161  0.3295  0.0738  0.2298
  691PEP     CB23923  21.523   2.826  12.286  0.3609 -0.2086 -0.1433
  691PEP     CB23924  21.649   2.593  12.606  0.0040 -0.4394  0.1429
  691PEP     CB23925  21.715   2.494  13.019 -0.0742 -0.3521 -0.3023
  691PEP     CB23926  21.697   2.646  13.498  0.0541 -0.3028  0.2206
  691PEP     CB23927  21.552   3.021  13.805  0.2485  0.1504 -0.0161
  691PEP     CB23928  21.545   3.375  13.966  0.0241 -0.0794 -0.1850
  691PEP     CB23929  21.459   3.635  14.310 -0.0206 -0.2690 -0.0293
  691PEP     CB23930  21.145   3.870  14.561  0.1651  0.0337 -0.2868
  691PEP     CB23931  20.615   3.872  14.639  0.1105  0.2374  0.0596
  691PEP     CB23932  20.359   3.658  14.861 -0.3493 -0.3443  0.1852
  691PEP     CB23933  20.305   3.387  15.183 -0.1708  0.0565  0.6952
  691PEP     CB23934  20.377   3.513  15.635 -0.1255 -0.1244 -0.0398
  691PEP     CB23935  20.002   3.754  15.917 -0.1444  0.5286  0.0375
  691PEP     CB23936  19.706   4.122  15.730 -0.2645 -0.0113 -0.0332
  691PEP     CB23937  19.436   3.894  15.388  0.2216  0.2111  0.0270
  691PEP     CB23938  19.355   3.551  15.351 -0.0733 -0.1936 -0.1320
  691PEP     CB23939  19.349   3.180  15.269 -0.1660  0.0235 -0.1244
  691PEP     CB23940  19.546   2.805  15.262  0.1280 -0.1880 -0.1642
  691PEP     CB23941  19.475   2.415  15.381  0.1304  0.0155  0.2394
  691PEP     CB23942  19.179   2.170  15.644  0.1402  0.0649 -0.0187
  691PEP     CB23943  19.062   1.816  15.763 -0.3774  0.0542 -0.1507
  691PEP     CB23944  18.841   1.458  16.017 -0.0763  0.0559 -0.2247
  691PEP     CB23945  18.542   1.129  16.003 -0.2129 -0.2065 -0.0201
  691PEP     CB23946  18.293   0.827  16.062 -0.2063 -0.0370  0.0632
  691PEP     CB23947  18.145   0.465  16.281 -0.3918  0.5578 -0.0748
  691PEP     CB23948  17.820   0.429  16.443 -0.2038  0.0936  0.3566
  691PEP     CB23949  17.416   0.293  16.589 -0.1762  0.1597  0.3511
  691PEP     CB23950  17.227   0.082  16.862 -0.6490  0.1499  0.1648
  691PEP     CB23951  17.326  -0.183  17.180  0.4636  0.1898 -0.1808
  691PEP     CB23952  17.543  -0.622  17.088 -0.1388 -0.2107  0.1244
  691PEP     CB23953  17.245  -1.008  17.174 -0.1905  0.0798 -0.0349
  691PEP     CB23954  17.091  -1.235  17.605 -0.2110 -0.1857 -0.2354
  691PEP     CB23955  17.180  -1.626  17.759 -0.0407 -0.3598  0.2098
  691PEP     CB23956  17.132  -2.080  17.897  0.4065 -0.1635 -0.2724
  691PEP     CB23957  17.254  -2.470  18.093 -0.0028  0.0952 -0.3157
  691PEP     CB23958  17.195  -2.695  18.505 -0.2222 -0.1448  0.1514
  691PEP     CB23959  16.888  -2.655  18.781 -0.1154 -0.1277  0.1457
  691PEP     CB23960  16.495  -2.761  18.801 -0.3221 -0.4263 -0.1488
  692PEP     CB23961   8.323   5.114  15.682 -0.3346 -0.0299 -0.0920
  692PEP     CB23962   8.019   4.872  15.544  0.1790  0.2892 -0.4369
  692PEP     CB23963   7.568   4.840  15.669 -0.4001  0.1483 -0.0495
  692PEP     CB23964   7.340   4.540  16.043 -0.1661  0.4306  0.0402
  692PEP     CB23965   7.420   4.553  16.477 -0.4637 -0.0860 -0.1413
  692PEP     CB23966   7.706   4.894  16.577  0.1706  0.3084  0.1757
  692PEP     CB23967   7.975   5.236  16.608  0.1373 -0.1602  0.0429
  692PEP     CB23968   8.269   5.415  16.509 -0.1046  0.1261 -0.2920
  692PEP     CB23969   8.597   5.644  16.430 -0.2764 -0.2225 -0.1853
  692PEP     CB23970   8.842   5.919  16.397 -0.0781 -0.2507  0.1143
  692PEP     CB23971   9.333   5.963  16.324 -0.0615 -0.0923  0.2501
  692PEP     CB23972   9.673   5.873  16.587  0.1653 -0.0927  0.1148
  692PEP     CB23973   9.706   5.920  17.103  0.0560 -0.3692 -0.0212
  692PEP     CB23974   9.696   5.603  17.380  0.1116  0.1258  0.0527
  692PEP     CB23975   9.936   5.050  17.287 -0.1242  0.0801 -0.0514
  692PEP     CB23976  10.316   5.024  17.018  0.3873  0.3977  0.0304
  692PEP     CB23977  10.248   5.023  16.608  0.0242 -0.0241  0.1639
  692PEP     CB23978   9.962   4.880  16.290  0.1330 -0.0684 -0.1149
  692PEP     CB23979   9.836   4.615  16.085  0.2270  0.1718  0.1463
  692PEP     CB23980   9.675   4.227  16.153  0.0782  0.2443 -0.1721
  692PEP     CB23981   9.884   3.752  16.277  0.1054 -0.0750  0.3411
  692PEP     CB23982   9.733   3.268  16.269 -0.6610 -0.1731 -0.3705
  692PEP     CB23983   9.406   2.995  16.490 -0.0043 -0.2560 -0.0602
  692PEP     CB23984   9.317   3.061  16.810 -0.0039  0.1346  0.1960
  692PEP     CB23985   9.309   3.412  17.114 -0.0914  0.0176  0.1144
  692PEP     CB23986   9.178   3.815  16.898  0.5245  0.2845 -0.0727
  692PEP     CB23987   8.818   3.676  16.625  0.0664 -0.3249 -0.1963
  692PEP     CB23988   8.848   3.239  16.558 -0.0356  0.0819  0.0152
  692PEP     CB23989   8.880   2.980  16.191  0.1122  0.0375  0.1964
  692PEP     CB23990   9.117   2.908  15.905  0.1585 -0.2772  0.0574
  692PEP     CB23991   9.506   2.692  15.803  0.4102 -0.3070  0.0075
  692PEP     CB23992   9.793   2.488  15.510  0.1401  0.1595 -0.3389
  692PEP     CB23993   9.879   2.508  15.047 -0.3022  0.1433  0.3027
  692PEP     CB23994   9.594   2.792  14.802 -0.0268 -0.0491  0.1632
  692PEP     CB23995   9.298   3.253  14.955  0.1275  0.3219 -0.2592
  692PEP     CB23996   9.236   3.314  15.376  0.2412  0.0709  0.2809
  692PEP     CB23997   9.413   3.532  15.712 -0.2451 -0.4502 -0.2659
  692PEP     CB23998   9.667   3.867  15.841  0.4698 -0.1769  0.4223
  692PEP     CB23999   9.786   4.198  15.578  0.1424  0.0699  0.1442
  692PEP     CB24000   9.978   4.561  15.497  0.1753  0.0127  0.0327
  693PEP     CB24001   9.675  18.988   9.043  0.3378 -0.5683  0.1892
  693PEP     CB24002   9.958  19.181   8.745 -0.1382  0.2246 -0.2481
  693PEP     CB24003  10.147  19.252   8.399 -0.0672  0.2266  0.3340
  693PEP     CB24004  10.585  19.250   8.309 -0.0262 -0.1958  0.1442
  693PEP     CB24005  10.791  18.977   8.185 -0.2189  0.0629 -0.0793
  693PEP     CB24006  10.830  18.596   8.266 -0.3013  0.3629  0.1112
  693PEP     CB24007  10.755  18.462   8.694  0.0270 -0.3407  0.3657
  693PEP     CB24008  10.372  18.399   8.754  0.2570  0.4149  0.2582
  693PEP     CB24009  10.056  18.139   8.562 -0.0540 -0.0741  0.4670
  693PEP     CB24010   9.940  18.085   8.112 -0.0388 -0.0763 -0.1396
  693PEP     CB24011  10.140  18.187   7.697 -0.0428  0.2744  0.0130
  693PEP     CB24012  10.484  18.157   7.372 -0.3749  0.2148 -0.2547
  693PEP     CB24013  10.547  17.976   6.913 -0.1938 -0.3638 -0.0913
  693PEP     CB24014  10.513  17.822   6.450  0.0804 -0.3575 -0.1149
  693PEP     CB24015  10.890  17.710   6.228 -0.0211  0.1772 -0.0713
  693PEP     CB24016  11.161  17.428   6.306  0.3332  0.1890  0.0721
  693PEP     CB24017  11.210  17.034   6.313  0.1710  0.1281 -0.0656
  693PEP     CB24018  11.232  16.570   6.324 -0.2332 -0.0166 -0.2419
  693PEP     CB24019  11.522  16.380   6.489 -0.2142 -0.2130  0.1666
  693PEP     CB24020  11.629  16.074   6.842 -0.1756 -0.0727 -0.0015
  693PEP     CB24021  11.589  16.129   7.286 -0.0562 -0.1180  0.2274
  693PEP     CB24022  11.314  16.036   7.556  0.1688 -0.0156 -0.0141
  693PEP     CB24023  11.057  16.171   7.882 -0.0405 -0.2773  0.0184
  693PEP     CB24024  11.104  16.226   8.285 -0.0183  0.2220  0.0366
  693PEP     CB24025  11.582  16.212   8.435  0.1146 -0.1922 -0.4538
  693PEP     CB24026  11.882  16.290   8.013 -0.3709  0.1620  0.0291
  693PEP     CB24027  11.614  16.555   7.660 -0.0024  0.2060  0.0659
  693PEP     CB24028  11.202  16.548   7.455  0.0348  0.0158  0.2681
  693PEP     CB24029  10.745  16.414   7.547 -0.3346 -0.3085  0.1300
  693PEP     CB24030  10.593  16.428   7.999  0.2877  0.0915 -0.0564
  693PEP     CB24031  10.626  16.092   8.304  0.3097  0.3145 -0.1330
  693PEP     CB24032  10.856  15.785   8.042  0.4249  0.1024  0.2995
  693PEP     CB24033  11.133  15.628   7.941 -0.3702 -0.1395  0.0128
  693PEP     CB24034  11.588  15.495   7.707 -0.1694 -0.1717 -0.1769
  693PEP     CB24035  11.994  15.465   7.744  0.1475  0.3214 -0.5737
  693PEP     CB24036  12.427  15.598   7.578 -0.0205  0.0166  0.0972
  693PEP     CB24037  12.800  15.813   7.348 -0.0042 -0.1611  0.3469
  693PEP     CB24038  12.998  16.177   7.098  0.2204  0.0338  0.0036
  693PEP     CB24039  13.042  16.593   6.996  0.0370  0.0052  0.1515
  693PEP     CB24040  12.859  16.909   6.856  0.2943  0.3155 -0.0980
  694PEP     CB24041   7.889  15.666   1.107  0.1199  0.2177 -0.0665
  694PEP     CB24042   7.954  16.008   1.323 -0.1838 -0.1444 -0.2388
  694PEP     CB24043   8.171  16.328   1.564  0.1506 -0.3600 -0.3119
  694PEP     CB24044   8.624  16.301   1.648 -0.2380 -0.1657  0.2191
  694PEP     CB24045   8.877  15.955   1.653  0.0695 -0.2287 -0.4354
  694PEP     CB24046   9.116  15.638   1.251  0.0810 -0.0285 -0.2337
  694PEP     CB24047   9.537  15.690   0.896 -0.0993  0.1971  0.2297
  694PEP     CB24048   9.801  15.669   0.509 -0.0979 -0.0434  0.0206
  694PEP     CB24049  10.227  15.594   0.252  0.0349 -0.0241  0.4229
  694PEP     CB24050  10.586  15.390  -0.068 -0.3744  0.0727  0.1526
  694PEP     CB24051  10.749  15.110  -0.392  0.2091 -0.2069  0.1126
  694PEP     CB24052  11.045  15.034  -0.731  0.0975  0.1115  0.3132
  694PEP     CB24053  11.211  14.778  -0.984  0.0748 -0.3051  0.0166
  694PEP     CB24054  11.215  14.346  -0.983 -0.1455 -0.0822 -0.2237
  694PEP     CB24055  11.351  13.998  -0.758  0.1379 -0.1362  0.2118
  694PEP     CB24056  11.274  13.694  -0.422 -0.1175 -0.3059  0.1219
  694PEP     CB24057  11.046  13.480  -0.101  0.0939 -0.0253 -0.0554
  694PEP     CB24058  11.191  13.207   0.267 -0.1278 -0.0861  0.1037
  694PEP     CB24059  11.393  12.870   0.107  0.4028 -0.1554  0.0449
  694PEP     CB24060  11.807  12.895  -0.196  0.0522 -0.3194  0.0413
  694PEP     CB24061  12.146  13.242  -0.085 -0.1095 -0.0942 -0.1229
  694PEP     CB24062  12.411  13.107   0.312 -0.2507 -0.2867  0.3086
  694PEP     CB24063  12.580  12.766   0.362 -0.1456  0.0500 -0.6313
  694PEP     CB24064  12.683  12.371   0.064 -0.0818  0.0325 -0.0810
  694PEP     CB24065  13.168  12.099   0.029  0.1946 -0.1979  0.0081
  694PEP     CB24066  13.574  12.190   0.044  0.0818 -0.1085  0.2411
  694PEP     CB24067  13.856  12.608   0.020 -0.0767 -0.2356  0.2406
  694PEP     CB24068  14.044  12.920   0.275 -0.1973  0.0457  0.0715
  694PEP     CB24069  14.008  13.324   0.499  0.2040 -0.3886  0.0692
  694PEP     CB24070  13.991  13.365   0.905  0.0866  0.2542 -0.2736
  694PEP     CB24071  14.084  13.207   1.305  0.2227 -0.1629  0.2480
  694PEP     CB24072  14.135  13.197   1.732 -0.0888  0.1408 -0.2945
  694PEP     CB24073  14.302  13.384   2.140  0.0717  0.2190  0.0844
  694PEP     CB24074  14.297  13.635   2.544  0.2706 -0.5289 -0.1060
  694PEP     CB24075  14.262  13.858   2.900 -0.2107 -0.0043  0.0061
  694PEP     CB24076  14.168  13.927   3.353 -0.1599  0.0675 -0.1929
  694PEP     CB24077  13.824  14.147   3.670 -0.0856  0.1739 -0.0260
  694PEP     CB24078  13.385  14.254   3.729 -0.1834 -0.4706 -0.0461
  694PEP     CB24079  12.943  14.131   3.623 -0.0040 -0.0113  0.0120
  694PEP     CB24080  12.521  14.272   3.484  0.1706  0.0097 -0.1631
  695PEP     CB24081   6.906  14.649  21.098 -0.0323  0.3635 -0.1413
  695PEP     CB24082   6.671  14.934  20.832 -0.0536  0.0494  0.4598
  695PEP     CB24083   6.325  15.205  20.734  0.0862  0.0490  0.1786
  695PEP     CB24084   6.092  15.641  20.792 -0.0869  0.3891  0.0532
  695PEP     CB24085   6.209  16.138  20.956 -0.1993 -0.1536 -0.0948
  695PEP     CB24086   6.041  16.504  20.920  0.0269 -0.2373 -0.0142
  695PEP     CB24087   5.692  16.626  20.562 -0.0308 -0.1481  0.4248
  695PEP     CB24088   5.427  16.506  20.248 -0.0703 -0.1980 -0.0532
  695PEP     CB24089   5.504  16.153  19.909 -0.2095 -0.0674 -0.0742
  695PEP     CB24090   5.330  15.779  20.166 -0.0702  0.2816 -0.1682
  695PEP     CB24091   5.006  15.913  20.437 -0.3093 -0.0260  0.0655
  695PEP     CB24092   5.004  16.384  20.561 -0.4769 -0.0221  0.0793
  695PEP     CB24093   5.155  16.822  20.478  0.2849  0.0802 -0.0724
  695PEP     CB24094   5.555  17.137  20.617 -0.2402  0.3901 -0.0290
  695PEP     CB24095   5.737  17.406  20.942  0.2096  0.2287  0.1784
  695PEP     CB24096   5.903  17.703  21.197 -0.2536  0.2354 -0.0694
  695PEP     CB24097   6.324  17.641  21.307  0.1132 -0.2916 -0.0698
  695PEP     CB24098   6.524  17.290  21.260  0.1343  0.0929 -0.0195
  695PEP     CB24099   6.913  17.088  21.282  0.0333  0.3216  0.3949
  695PEP     CB24100   7.300  16.943  21.165  0.1091 -0.2105  0.1040
  695PEP     CB24101   7.467  16.523  21.025  0.0679 -0.1473 -0.0474
  695PEP     CB24102   7.824  16.357  20.996  0.1106 -0.0024  0.1000
  695PEP     CB24103   7.979  16.352  21.344 -0.4225  0.3124  0.1219
  695PEP     CB24104   7.673  16.454  21.664 -0.0191  0.0626 -0.2247
  695PEP     CB24105   7.328  16.255  21.715  0.2790  0.0092 -0.4557
  695PEP     CB24106   6.972  16.075  21.656  0.3767  0.6189  0.1127
  695PEP     CB24107   6.602  16.023  21.428 -0.1151  0.1240 -0.0220
  695PEP     CB24108   6.303  15.668  21.307 -0.2756  0.1337  0.0580
  695PEP     CB24109   6.311  15.218  21.354  0.3035  0.1168  0.1922
  695PEP     CB24110   6.727  14.983  21.328 -0.1305  0.1302 -0.0660
  695PEP     CB24111   7.123  15.184  21.414  0.1046  0.1082 -0.0700
  695PEP     CB24112   7.244  15.599  21.258 -0.3419  0.0027  0.3974
  695PEP     CB24113   7.180  15.967  21.164  0.3096  0.3117 -0.0034
  695PEP     CB24114   7.023  16.423  21.328 -0.2188 -0.1259 -0.0271
  695PEP     CB24115   6.985  16.687  21.733 -0.2161  0.0934  0.0200
  695PEP     CB24116   7.225  17.052  22.107 -0.0203 -0.0770 -0.0968
  695PEP     CB24117   7.550  17.354  22.187  0.2715  0.1374  0.0180
  695PEP     CB24118   8.068  17.467  22.306 -0.1003 -0.4013  0.0023
  695PEP     CB24119   8.487  17.351  22.077 -0.1973 -0.0615  0.2479
  695PEP     CB24120   8.675  17.430  21.667 -0.0046 -0.2290  0.0145
  696PEP     CB24121   3.141   8.782   5.045  0.2766 -0.0036 -0.0819
  696PEP     CB24122   3.394   8.507   4.725 -0.1110  0.4388 -0.0846
  696PEP     CB24123   3.212   8.072   4.652  0.0906 -0.2537  0.3058
  696PEP     CB24124   3.041   7.784   4.979 -0.0019  0.1350 -0.1509
  696PEP     CB24125   2.598   7.756   5.208 -0.1216  0.0049  0.0438
  696PEP     CB24126   2.151   7.796   5.228  0.0410 -0.1525  0.0630
  696PEP     CB24127   1.711   7.644   5.438 -0.0223  0.1622  0.1106
  696PEP     CB24128   1.552   7.254   5.647 -0.7294 -0.2584 -0.1730
  696PEP     CB24129   1.562   6.976   5.423 -0.4564  0.2907 -0.1129
  696PEP     CB24130   1.492   6.850   4.966 -0.0165  0.1038  0.1648
  696PEP     CB24131   1.224   6.690   4.550  0.1672 -0.3346  0.3936
  696PEP     CB24132   0.834   6.486   4.456 -0.0455  0.0155 -0.2792
  696PEP     CB24133   0.523   6.359   4.243  0.4140 -0.1071  0.1145
  696PEP     CB24134   0.164   6.427   3.958 -0.2151  0.0083  0.0675
  696PEP     CB24135  -0.319   6.528   3.971 -0.1614  0.2972 -0.0837
  696PEP     CB24136  -0.716   6.720   3.957 -0.1813 -0.0635  0.1677
  696PEP     CB24137  -1.066   6.975   3.964  0.3523  0.0616 -0.0053
  696PEP     CB24138  -1.358   7.355   4.006 -0.3440  0.0397 -0.0859
  696PEP     CB24139  -1.443   7.679   4.223 -0.3579  0.2459 -0.1218
  696PEP     CB24140  -1.124   8.018   4.160 -0.0253 -0.0828 -0.3309
  696PEP     CB24141  -0.718   7.910   3.886 -0.2935 -0.1557 -0.0637
  696PEP     CB24142  -0.613   7.660   3.538 -0.1261  0.2574  0.4929
  696PEP     CB24143  -0.617   7.279   3.357 -0.0174  0.1292 -0.0440
  696PEP     CB24144  -0.708   6.945   3.036 -0.0107  0.1788 -0.2755
  696PEP     CB24145  -0.979   6.549   2.929  0.0836  0.2700 -0.1702
  696PEP     CB24146  -0.990   6.083   2.995  0.3853 -0.0318  0.0219
  696PEP     CB24147  -0.814   5.697   2.858  0.0385 -0.0900 -0.0826
  696PEP     CB24148  -0.532   5.357   2.828 -0.1034 -0.1375  0.2820
  696PEP     CB24149  -0.170   5.137   2.836 -0.2301 -0.2589  0.2474
  696PEP     CB24150   0.252   5.115   2.841  0.0533 -0.1057 -0.0025
  696PEP     CB24151   0.573   4.949   3.166  0.6380 -0.4226  0.1378
  696PEP     CB24152   0.543   4.606   3.565  0.3858  0.2637 -0.6097
  696PEP     CB24153   0.814   4.255   3.762 -0.0335 -0.3618 -0.1582
  696PEP     CB24154   1.294   4.195   3.859 -0.0320  0.5289 -0.1697
  696PEP     CB24155   1.674   4.402   3.853 -0.1414 -0.1389 -0.4269
  696PEP     CB24156   1.923   4.253   4.188 -0.1697 -0.1725 -0.1982
  696PEP     CB24157   2.154   4.165   4.584  0.5541  0.0875  0.3402
  696PEP     CB24158   2.449   4.430   4.700 -0.1776  0.1014 -0.0839
  696PEP     CB24159   2.472   4.772   4.530  0.2212  0.3050  0.1286
  696PEP     CB24160   2.132   5.044   4.343 -0.1429 -0.1311  0.3475
  697PEP     CB24161   5.252   3.281   8.980 -0.0544 -0.5371  0.1820
  697PEP     CB24162   5.567   3.269   9.257 -0.3092 -0.1603 -0.0190
  697PEP     CB24163   6.090   3.243   9.365  0.0130 -0.3454 -0.2258
  697PEP     CB24164   6.476   3.420   9.618 -0.0715  0.3776 -0.0197
  697PEP     CB24165   6.650   3.628   9.899 -0.1152 -0.1929 -0.1435
  697PEP     CB24166   6.653   3.717  10.314 -0.2601  0.2829 -0.3009
  697PEP     CB24167   6.708   3.543  10.794  0.0180  0.5291  0.3758
  697PEP     CB24168   6.818   3.470  11.188 -0.0423  0.4349  0.3442
  697PEP     CB24169   6.832   3.421  11.631  0.0263 -0.0919  0.0442
  697PEP     CB24170   7.104   3.373  12.036  0.0479  0.2635  0.3726
  697PEP     CB24171   7.520   3.208  12.293  0.1828  0.2929  0.1882
  697PEP     CB24172   7.956   3.330  12.567  0.0877 -0.2515  0.1444
  697PEP     CB24173   8.201   3.318  12.971  0.3642 -0.3414 -0.2794
  697PEP     CB24174   8.427   3.187  13.321  0.2702  0.1005  0.3023
  697PEP     CB24175   8.810   3.248  13.537  0.1039 -0.0177 -0.3635
  697PEP     CB24176   9.050   3.604  13.639 -0.0412 -0.4776  0.1689
  697PEP     CB24177   8.886   3.934  13.627 -0.3049 -0.1761 -0.1217
  697PEP     CB24178   8.395   3.865  13.548 -0.2082 -0.2624 -0.4357
  697PEP     CB24179   8.133   3.549  13.508 -0.1740  0.2227  0.1925
  697PEP     CB24180   7.785   3.255  13.639 -0.1673 -0.0116 -0.0163
  697PEP     CB24181   7.522   2.868  13.680  0.1010 -0.6275 -0.3006
  697PEP     CB24182   7.036   2.829  13.645 -0.0302 -0.1821  0.1214
  697PEP     CB24183   6.665   3.158  13.616 -0.0160  0.3253  0.0098
  697PEP     CB24184   6.289   3.414  13.813 -0.2068  0.0427  0.3019
  697PEP     CB24185   6.026   3.690  14.027 -0.2074 -0.1520  0.2805
  697PEP     CB24186   5.569   3.563  14.107  0.2646 -0.0342 -0.4964
  697PEP     CB24187   5.186   3.477  14.362  0.2930 -0.0302 -0.1757
  697PEP     CB24188   4.730   3.398  14.330 -0.4884  0.3265 -0.1576
  697PEP     CB24189   4.302   3.579  14.321 -0.1977 -0.0535  0.5336
  697PEP     CB24190   4.008   3.832  14.071  0.0199 -0.2113  0.3456
  697PEP     CB24191   3.887   4.092  13.745  0.4181 -0.0023  0.3674
  697PEP     CB24192   3.667   4.213  13.410 -0.1067  0.3081 -0.1615
  697PEP     CB24193   3.664   4.027  12.937  0.3150  0.1257  0.1218
  697PEP     CB24194   3.530   4.032  12.481  0.2956 -0.3596 -0.4167
  697PEP     CB24195   3.340   4.229  12.257 -0.0112  0.2661 -0.0261
  697PEP     CB24196   3.069   4.426  11.898  0.2598 -0.1972 -0.2459
  697PEP     CB24197   2.672   4.612  11.741  0.1234  0.0240  0.2119
  697PEP     CB24198   2.275   4.676  11.820 -0.3196  0.0117 -0.3147
  697PEP     CB24199   1.969   4.443  11.666  0.0159  0.2478 -0.0659
  697PEP     CB24200   1.946   4.013  11.463 -0.1095 -0.1178  0.3725
  698PEP     CB24201   8.891  16.614  14.840 -0.0440  0.3380  0.3534
  698PEP     CB24202   8.472  16.497  14.512 -0.2199 -0.1170  0.1912
  698PEP     CB24203   7.931  16.388  14.437 -0.0578 -0.3086 -0.1209
  698PEP     CB24204   7.471  16.410  14.520 -0.2732  0.1609  0.0427
  698PEP     CB24205   7.157  16.505  14.791  0.2029 -0.2993 -0.3368
  698PEP     CB24206   6.747  16.644  15.041  0.1902  0.1443 -0.2228
  698PEP     CB24207   6.429  16.550  15.388  0.3573  0.1987 -0.1278
  698PEP     CB24208   6.056  16.297  15.333 -0.1982 -0.2566  0.2437
  698PEP     CB24209   5.610  16.326  15.421  0.0172  0.0843 -0.0026
  698PEP     CB24210   5.246  16.383  15.625  0.1265  0.0327  0.1547
  698PEP     CB24211   5.077  16.643  15.948 -0.1444 -0.0323  0.2202
  698PEP     CB24212   5.026  17.073  16.219  0.2971  0.1944 -0.3420
  698PEP     CB24213   5.065  17.459  16.458  0.0247 -0.1606 -0.4588
  698PEP     CB24214   5.265  17.731  16.480  0.1262  0.1760  0.0739
  698PEP     CB24215   5.567  17.975  16.234  0.4596 -0.4607  0.3446
  698PEP     CB24216   5.839  17.934  15.899 -0.3744 -0.0542  0.1144
  698PEP     CB24217   6.092  17.574  15.824 -0.1130 -0.1590 -0.4678
  698PEP     CB24218   6.145  17.186  15.999 -0.1012  0.2565 -0.1034
  698PEP     CB24219   5.935  16.843  16.058  0.4950 -0.0672 -0.1639
  698PEP     CB24220   5.583  16.481  15.993 -0.1348 -0.0124 -0.0128
  698PEP     CB24221   5.215  16.217  16.153  0.1047 -0.0867  0.0835
  698PEP     CB24222   5.088  16.336  16.541 -0.2257 -0.3197 -0.0098
  698PEP     CB24223   5.263  16.703  16.759  0.1046 -0.2017  0.0230
  698PEP     CB24224   5.514  16.891  16.334  0.1099  0.2567  0.3128
  698PEP     CB24225   5.417  16.996  15.980  0.0279  0.1129  0.3306
  698PEP     CB24226   5.705  17.212  15.661 -0.2737 -0.2517 -0.1130
  698PEP     CB24227   6.136  17.184  15.470  0.4377  0.1059 -0.3546
  698PEP     CB24228   6.459  16.946  15.699 -0.1255 -0.0144  0.0836
  698PEP     CB24229   6.405  16.672  16.078  0.9322  0.2384 -0.1996
  698PEP     CB24230   6.052  16.446  16.302  0.1264 -0.1646  0.1843
  698PEP     CB24231   5.819  16.483  16.635 -0.0078 -0.0298 -0.1049
  698PEP     CB24232   5.616  16.357  17.045  0.0969 -0.3056  0.1792
  698PEP     CB24233   5.447  16.344  17.534 -0.2724  0.3331  0.0120
  698PEP     CB24234   5.490  16.091  17.923  0.2372 -0.1257 -0.1621
  698PEP     CB24235   5.503  15.932  18.450  0.0715  0.2734  0.1536
  698PEP     CB24236   5.351  15.935  18.940 -0.0432  0.2271  0.4331
  698PEP     CB24237   5.226  16.116  19.320 -0.2651  0.3101  0.7989
  698PEP     CB24238   5.411  16.432  19.536 -0.2958 -0.0321 -0.0417
  698PEP     CB24239   5.645  16.691  19.863 -0.2275 -0.4044 -0.1325
  698PEP     CB24240   5.964  16.814  20.087 -0.1021  0.1839 -0.1616
  699PEP     CB24241   6.748   2.314   9.031 -0.1434 -0.1747  0.5082
  699PEP     CB24242   7.019   1.917   8.954 -0.0569 -0.4318 -0.3274
  699PEP     CB24243   7.361   1.696   8.823 -0.2146 -0.0500 -0.0087
  699PEP     CB24244   7.672   1.359   8.574 -0.2524 -0.1192  0.4358
  699PEP     CB24245   8.194   1.218   8.528 -0.0947 -0.2766 -0.3891
  699PEP     CB24246   8.560   1.276   8.486 -0.5017 -0.3347  0.1757
  699PEP     CB24247   8.900   1.163   8.349  0.4553 -0.4335 -0.1142
  699PEP     CB24248   9.256   1.155   8.165 -0.2450  0.3095  0.0933
  699PEP     CB24249   9.678   1.132   7.983 -0.2367  0.2332 -0.3922
  699PEP     CB24250  10.203   0.959   8.060  0.2759  0.2733  0.0918
  699PEP     CB24251  10.583   0.700   8.005  0.1056  0.0833  0.3587
  699PEP     CB24252  10.761   0.262   7.789 -0.1386 -0.2344  0.1846
  699PEP     CB24253  10.607   0.185   7.364  0.2329  0.2991  0.2080
  699PEP     CB24254  10.293   0.171   7.033  0.5482 -0.2866  0.3896
  699PEP     CB24255  10.059   0.041   6.745 -0.3986 -0.4322 -0.1862
  699PEP     CB24256   9.769   0.039   6.461  0.2249  0.1981  0.3450
  699PEP     CB24257   9.463   0.338   6.467  0.1863  0.5253 -0.1073
  699PEP     CB24258   9.193   0.714   6.492 -0.0525  0.0382  0.2694
  699PEP     CB24259   8.844   1.035   6.542  0.4378 -0.0010 -0.0712
  699PEP     CB24260   8.451   1.347   6.553  0.1366  0.2885 -0.1119
  699PEP     CB24261   8.254   1.664   6.380 -0.1600  0.0132  0.1988
  699PEP     CB24262   8.132   2.136   6.512 -0.2801  0.3227  0.0092
  699PEP     CB24263   7.884   2.492   6.731  0.0174  0.3935 -0.4590
  699PEP     CB24264   7.589   2.770   6.794 -0.1013 -0.1906  0.1590
  699PEP     CB24265   7.298   3.020   6.875  0.0437 -0.2691  0.2151
  699PEP     CB24266   6.839   3.263   6.967 -0.0350  0.2763  0.0618
  699PEP     CB24267   6.507   3.564   6.829  0.0045 -0.2159 -0.2803
  699PEP     CB24268   6.078   3.647   6.845 -0.1693 -0.0823  0.0292
  699PEP     CB24269   5.780   3.945   7.005  0.3788 -0.0852  0.2794
  699PEP     CB24270   5.460   3.930   7.265 -0.0471 -0.3317 -0.4263
  699PEP     CB24271   5.344   3.682   7.599  0.1402  0.3494 -0.1520
  699PEP     CB24272   5.342   3.579   8.136  0.1331 -0.0719 -0.1100
  699PEP     CB24273   5.059   3.461   8.455 -0.1361  0.2497 -0.2570
  699PEP     CB24274   4.746   3.663   8.641 -0.0579 -0.3702  0.1082
  699PEP     CB24275   4.489   3.974   8.900  0.3252  0.0002 -0.1483
  699PEP     CB24276   4.534   4.401   9.114 -0.2008  0.0422  0.2740
  699PEP     CB24277   4.882   4.680   9.122  0.1173  0.0202  0.1789
  699PEP     CB24278   5.075   5.025   8.946 -0.1017  0.2045  0.1137
  699PEP     CB24279   5.177   5.277   8.694  0.1865  0.1296 -0.4371
  699PEP     CB24280   5.254   5.585   8.463  0.1945  0.0265  0.2067
  700PEP     CB24281  14.789   5.454   1.554 -0.0209 -0.3954  0.1907
  700PEP     CB24282  14.872   5.487   1.178  0.1810  0.0103  0.0663
  700PEP     CB24283  14.861   5.225   0.673 -0.1340 -0.1189  0.0171
  700PEP     CB24284  14.917   4.970   0.191 -0.0289 -0.1387  0.1145
  700PEP     CB24285  14.902   4.742  -0.096  0.1247 -0.0078  0.3726
  700PEP     CB24286  14.644   4.644  -0.426 -0.2740  0.1174 -0.0088
  700PEP     CB24287  14.110   4.584  -0.420 -0.1250 -0.0602  0.0356
  700PEP     CB24288  13.675   4.799  -0.161 -0.0302 -0.1851  0.1211
  700PEP     CB24289  13.200   4.901  -0.161  0.0393 -0.2411 -0.5037
  700PEP     CB24290  12.805   4.815  -0.067 -0.5806  0.0940 -0.0671
  700PEP     CB24291  12.363   5.009   0.012 -0.4792  0.2420 -0.5127
  700PEP     CB24292  11.950   5.006   0.079  0.3433  0.0008 -0.0098
  700PEP     CB24293  11.707   4.882   0.413 -0.0476 -0.0578  0.0657
  700PEP     CB24294  11.640   4.821   0.819 -0.1183 -0.1250 -0.1909
  700PEP     CB24295  11.418   4.752   1.235  0.1361 -0.0573  0.0868
  700PEP     CB24296  11.287   4.553   1.762 -0.0490  0.1462  0.1157
  700PEP     CB24297  11.391   4.373   2.126 -0.2865 -0.1838 -0.1874
  700PEP     CB24298  11.417   3.978   2.324 -0.0187  0.2241 -0.1821
  700PEP     CB24299  11.322   3.596   2.106 -0.2518 -0.0991 -0.0925
  700PEP     CB24300  10.911   3.423   2.026  0.2730 -0.0612 -0.0684
  700PEP     CB24301  10.464   3.583   2.203 -0.1377  0.4414 -0.0972
  700PEP     CB24302  10.318   3.923   2.576  0.1630  0.5804  0.0379
  700PEP     CB24303  10.668   4.224   2.830  0.0581 -0.0354  0.0524
  700PEP     CB24304  10.791   4.281   3.252 -0.3366 -0.0155 -0.1745
  700PEP     CB24305  10.518   4.468   3.613 -0.2946  0.1311  0.0746
  700PEP     CB24306  10.243   4.828   3.474  0.0116 -0.3270 -0.3281
  700PEP     CB24307  10.317   5.162   3.203 -0.0965 -0.1903 -0.0374
  700PEP     CB24308  10.620   5.365   2.966 -0.2824  0.3071  0.3043
  700PEP     CB24309  10.630   5.510   2.621  0.3141 -0.1453 -0.0272
  700PEP     CB24310  10.462   5.739   2.343 -0.4266  0.1723  0.1071
  700PEP     CB24311  10.676   6.177   2.231  0.1020  0.1469 -0.2978
  700PEP     CB24312  10.903   6.576   2.207 -0.0399  0.3293 -0.2658
  700PEP     CB24313  11.346   6.735   2.133  0.0517  0.1418 -0.1747
  700PEP     CB24314  11.782   6.991   2.043  0.0583 -0.4574  0.0325
  700PEP     CB24315  12.062   7.302   2.072  0.2638 -0.0473 -0.2184
  700PEP     CB24316  12.587   7.405   2.004  0.0009 -0.2053 -0.1664
  700PEP     CB24317  12.980   7.572   2.098  0.1753 -0.1421  0.1527
  700PEP     CB24318  13.420   7.714   2.060 -0.0987 -0.4250  0.1330
  700PEP     CB24319  13.682   7.834   1.715  0.2655  0.3653  0.3372
  700PEP     CB24320  13.714   7.574   1.384 -0.1771  0.4033 -0.1691
  701PEP     CB24321  16.986   3.790  20.861  0.3707 -0.0300  0.2776
  701PEP     CB24322  17.447   3.924  20.905  0.5173  0.1814  0.1483
  701PEP     CB24323  17.817   3.653  20.999  0.2088 -0.2964  0.0355
  701PEP     CB24324  18.243   3.410  20.920  0.0804 -0.5908  0.2106
  701PEP     CB24325  18.413   3.065  20.699 -0.0552 -0.0005 -0.0001
  701PEP     CB24326  18.435   3.101  20.286  0.0087  0.1741  0.2330
  701PEP     CB24327  18.064   3.241  20.047  0.0295  0.3956 -0.1703
  701PEP     CB24328  17.910   3.614  19.988 -0.1401  0.1255  0.0625
  701PEP     CB24329  17.959   3.990  20.247  0.4115  0.1582  0.1627
  701PEP     CB24330  17.732   4.186  20.546  0.1767 -0.4660  0.4073
  701PEP     CB24331  17.465   4.481  20.561 -0.3178 -0.1478 -0.0282
  701PEP     CB24332  17.030   4.634  20.684 -0.7607  0.1637  0.3592
  701PEP     CB24333  16.687   4.775  20.926  0.2168 -0.2449 -0.1312
  701PEP     CB24334  16.259   4.737  21.076  0.2413  0.2428  0.2202
  701PEP     CB24335  16.054   4.674  21.474  0.4539 -0.1503  0.0426
  701PEP     CB24336  15.928   4.291  21.765 -0.1442 -0.0399 -0.0936
  701PEP     CB24337  16.087   3.828  21.829 -0.0343  0.1224  0.1286
  701PEP     CB24338  16.376   3.453  22.021  0.2629  0.0569 -0.1286
  701PEP     CB24339  16.176   3.175  22.356 -0.0501  0.2154 -0.0022
  701PEP     CB24340  15.778   3.017  22.390  0.1388  0.1848  0.3148
  701PEP     CB24341  15.554   2.812  22.093 -0.4471 -0.0453 -0.2223
  701PEP     CB24342  15.503   2.648  21.607 -0.1018 -0.0170  0.4233
  701PEP     CB24343  15.366   2.234  21.402 -0.0943 -0.0942 -0.1702
  701PEP     CB24344  15.292   1.819  21.480 -0.2162  0.1929 -0.1438
  701PEP     CB24345  15.153   1.440  21.698  0.3292  0.2597  0.2105
  701PEP     CB24346  14.709   1.524  22.014 -0.1596  0.1384 -0.1037
  701PEP     CB24347  14.600   1.964  22.101 -0.0017  0.3462 -0.0310
  701PEP     CB24348  14.466   2.236  21.777  0.1822  0.2800 -0.0785
  701PEP     CB24349  14.352   2.335  21.355 -0.3287  0.0957 -0.1963
  701PEP     CB24350  14.065   2.645  21.153 -0.0523 -0.3395 -0.1727
  701PEP     CB24351  13.772   3.009  21.137  0.0284  0.2657  0.0282
  701PEP     CB24352  13.561   3.347  21.096  0.1616 -0.2784  0.0286
  701PEP     CB24353  13.156   3.461  20.897 -0.0123  0.1801 -0.1222
  701PEP     CB24354  12.987   3.163  20.650 -0.4795  0.2246  0.2263
  701PEP     CB24355  12.572   3.139  20.682 -0.0770  0.1122  0.1188
  701PEP     CB24356  12.497   3.468  20.809 -0.3670  0.1173  0.3456
  701PEP     CB24357  12.862   3.803  20.691 -0.0402 -0.2287  0.0763
  701PEP     CB24358  13.262   3.687  20.513  0.2777 -0.3081  0.0370
  701PEP     CB24359  13.593   3.482  20.320  0.2939 -0.3211  0.7047
  701PEP     CB24360  13.756   3.441  19.898  0.0589 -0.4758  0.1310
  702PEP     CB24361  13.331   3.436  12.402 -0.4218 -0.0110 -0.2906
  702PEP     CB24362  13.260   3.118  12.672 -0.3257  0.0119  0.2888
  702PEP     CB24363  13.456   3.085  13.149  0.3831 -0.4032 -0.4013
  702PEP     CB24364  13.900   3.129  13.394  0.2046  0.2423 -0.1593
  702PEP     CB24365  14.218   3.421  13.343  0.1027  0.0087 -0.0829
  702PEP     CB24366  14.149   3.821  13.115  0.1200  0.0598 -0.1696
  702PEP     CB24367  14.051   4.088  12.708 -0.3003  0.1738  0.0420
  702PEP     CB24368  14.016   4.000  12.267 -0.0758  0.0372  0.2643
  702PEP     CB24369  14.438   4.005  12.000  0.1043  0.1731  0.6390
  702PEP     CB24370  14.894   4.270  12.193  0.3313  0.0375 -0.2448
  702PEP     CB24371  14.966   4.218  12.621 -0.0488 -0.1277 -0.1298
  702PEP     CB24372  14.811   3.804  12.837  0.1401 -0.4262 -0.0042
  702PEP     CB24373  14.767   3.366  12.672 -0.0965 -0.2290 -0.2377
  702PEP     CB24374  14.511   3.161  12.385 -0.0980  0.1211 -0.2897
  702PEP     CB24375  14.436   3.021  11.922 -0.1549  0.0233 -0.3025
  702PEP     CB24376  14.187   3.209  11.572  0.1109 -0.0241  0.1779
  702PEP     CB24377  13.835   3.379  11.430  0.0031  0.0556 -0.3213
  702PEP     CB24378  13.554   3.296  11.084 -0.1441 -0.0085 -0.1807
  702PEP     CB24379  13.422   3.291  10.597  0.0281  0.0579 -0.0643
  702PEP     CB24380  12.988   3.245  10.528  0.0477 -0.1213  0.0667
  702PEP     CB24381  12.650   3.320  10.872 -0.2477 -0.4245 -0.0007
  702PEP     CB24382  12.586   3.102  11.222 -0.1227  0.0407 -0.3208
  702PEP     CB24383  12.689   3.050  11.674  0.0012 -0.0254  0.2786
  702PEP     CB24384  12.771   2.994  12.128  0.2664  0.1009 -0.0294
  702PEP     CB24385  12.642   3.132  12.477  0.2636 -0.4868  0.1949
  702PEP     CB24386  12.308   3.052  12.771  0.2758  0.1586 -0.1974
  702PEP     CB24387  11.972   2.704  12.999  0.0731 -0.0509  0.2194
  702PEP     CB24388  11.686   2.414  12.995  0.0212 -0.1679  0.1367
  702PEP     CB24389  11.344   2.276  12.922 -0.0512  0.1748  0.0079
  702PEP     CB24390  11.091   2.197  12.540 -0.1977  0.2897  0.0475
  702PEP     CB24391  11.083   1.832  12.239  0.3468  0.3535  0.2733
  702PEP     CB24392  11.387   1.492  12.152  0.2621 -0.2062 -0.3139
  702PEP     CB24393  11.638   1.162  11.895 -0.1694  0.1301 -0.1704
  702PEP     CB24394  11.874   0.965  11.585  0.0205  0.1833 -0.1878
  702PEP     CB24395  11.898   0.502  11.537 -0.3381  0.0386 -0.2059
  702PEP     CB24396  11.582   0.370  11.370  0.0776 -0.1863  0.0645
  702PEP     CB24397  11.230   0.150  11.199  0.1148 -0.0785  0.2531
  702PEP     CB24398  10.862  -0.030  11.267 -0.0967  0.0662  0.2739
  702PEP     CB24399  10.613  -0.196  11.599  0.3941 -0.0743  0.1237
  702PEP     CB24400  10.378  -0.552  11.741 -0.1801 -0.1525 -0.0665
  703PEP     CB24401  14.035   3.823   2.051 -0.0127  0.0821 -0.1496
  703PEP     CB24402  14.049   4.248   2.192 -0.1808  0.3880 -0.0917
  703PEP     CB24403  14.193   4.615   2.422 -0.0293 -0.3422  0.2851
  703PEP     CB24404  13.977   4.899   2.815 -0.3310  0.4194 -0.2971
  703PEP     CB24405  13.677   5.351   2.789 -0.0855 -0.0114 -0.0204
  703PEP     CB24406  13.712   5.799   2.776 -0.0282 -0.0265  0.1901
  703PEP     CB24407  13.903   6.165   2.994  0.1713 -0.0252  0.4270
  703PEP     CB24408  13.952   6.402   3.371  0.1586 -0.4626 -0.2613
  703PEP     CB24409  13.666   6.503   3.737  0.2034 -0.2055  0.0856
  703PEP     CB24410  13.498   6.337   4.124 -0.0688  0.1343 -0.3412
  703PEP     CB24411  13.551   6.406   4.560  0.0873 -0.1053 -0.3392
  703PEP     CB24412  13.626   6.768   4.685 -0.2328 -0.2822  0.2287
  703PEP     CB24413  13.996   6.889   4.525 -0.2384 -0.3882 -0.1237
  703PEP     CB24414  14.463   6.851   4.379  0.3094  0.1959 -0.0499
  703PEP     CB24415  14.654   6.755   3.976  0.2092 -0.2251  0.2866
  703PEP     CB24416  14.825   6.731   3.517 -0.1735  0.1198 -0.3308
  703PEP     CB24417  14.920   6.576   3.011 -0.1632 -0.2104  0.2463
  703PEP     CB24418  15.164   6.291   2.622  0.0157 -0.0183 -0.0316
  703PEP     CB24419  15.323   5.931   2.331 -0.3899 -0.1702  0.3999
  703PEP     CB24420  15.611   5.568   2.304 -0.2793  0.3261  0.3357
  703PEP     CB24421  15.972   5.409   2.052  0.3417  0.1740  0.2555
  703PEP     CB24422  16.283   5.129   1.937  0.2176 -0.2284 -0.0069
  703PEP     CB24423  16.515   4.893   1.629  0.1438 -0.1306 -0.3294
  703PEP     CB24424  16.711   4.752   1.311 -0.0722  0.0371  0.4106
  703PEP     CB24425  16.919   4.830   0.981  0.4779  0.4668 -0.1932
  703PEP     CB24426  16.804   5.016   0.546 -0.0310 -0.2165 -0.0106
  703PEP     CB24427  16.344   5.019   0.414  0.0525 -0.1336 -0.2435
  703PEP     CB24428  15.958   5.113   0.581  0.0187 -0.1204 -0.1271
  703PEP     CB24429  15.752   4.967   0.999 -0.4343  0.1404  0.1120
  703PEP     CB24430  15.534   4.871   1.314  0.2176 -0.2604  0.0113
  703PEP     CB24431  15.215   4.570   1.555 -0.0830  0.1686  0.3678
  703PEP     CB24432  15.256   4.236   1.832  0.3230 -0.1802 -0.1538
  703PEP     CB24433  14.951   4.201   2.116  0.1919  0.2929 -0.1560
  703PEP     CB24434  14.625   4.412   2.443 -0.2385  0.1796 -0.0156
  703PEP     CB24435  14.498   4.484   2.830  0.0880 -0.1339  0.1087
  703PEP     CB24436  14.676   4.562   3.173 -0.1500 -0.4244 -0.3425
  703PEP     CB24437  14.711   4.780   3.593  0.1043  0.0924  0.1297
  703PEP     CB24438  14.857   5.124   3.895  0.0662  0.2962 -0.1391
  703PEP     CB24439  15.261   5.242   3.931 -0.0001 -0.3155  0.3206
  703PEP     CB24440  15.502   5.343   3.623  0.1894 -0.1049  0.1465
  704PEP     CB24441  21.719   4.466   2.137  0.2235 -0.3951 -0.0504
  704PEP     CB24442  21.454   4.147   2.051  0.1204  0.1990  0.1123
  704PEP     CB24443  21.354   3.809   1.946  0.1747 -0.0924  0.0057
  704PEP     CB24444  21.077   3.593   1.699 -0.4125  0.2708 -0.2532
  704PEP     CB24445  20.989   3.500   1.253  0.2217  0.4233  0.6665
  704PEP     CB24446  21.155   3.302   0.846 -0.1384  0.1817  0.0698
  704PEP     CB24447  21.557   3.089   0.633  0.0233 -0.0383 -0.1367
  704PEP     CB24448  21.962   3.107   0.429 -0.1658 -0.3700 -0.4261
  704PEP     CB24449  22.225   3.170   0.065  0.4351  0.1867 -0.1736
  704PEP     CB24450  22.327   3.096  -0.377  0.0664 -0.5612 -0.0528
  704PEP     CB24451  22.423   3.445  -0.697  0.0832 -0.2646 -0.1365
  704PEP     CB24452  22.364   3.698  -1.074 -0.1309 -0.4513 -0.0461
  704PEP     CB24453  22.496   3.683  -1.525 -0.3016 -0.0904  0.1838
  704PEP     CB24454  22.532   3.545  -1.942  0.2514  0.0857  0.3827
  704PEP     CB24455  22.575   3.681  -2.315  0.2818 -0.2573 -0.1605
  704PEP     CB24456  22.421   3.621  -2.664  0.1391 -0.0719  0.0823
  704PEP     CB24457  22.326   3.244  -3.110 -0.1141 -0.0401  0.2683
  704PEP     CB24458  22.367   3.159  -3.639 -0.0275  0.1098  0.0215
  704PEP     CB24459  22.601   3.276  -4.062 -0.1793 -0.3602 -0.1686
  704PEP     CB24460  22.910   3.379  -4.281  0.0634 -0.2840 -0.0587
  704PEP     CB24461  22.975   3.632  -4.637  0.3126 -0.2320  0.3467
  704PEP     CB24462  23.015   3.694  -5.118 -0.3309 -0.1143 -0.4334
  704PEP     CB24463  22.899   3.856  -5.604  0.1829 -0.1010 -0.1436
  704PEP     CB24464  22.633   3.945  -5.956  0.1916  0.1214  0.2181
  704PEP     CB24465  22.179   3.982  -6.204 -0.1433  0.3352 -0.1228
  704PEP     CB24466  21.813   4.095  -6.379 -0.1959 -0.3826 -0.1337
  704PEP     CB24467  21.602   4.134  -6.782  0.0566 -0.0909 -0.3827
  704PEP     CB24468  21.210   4.153  -7.095 -0.3134  0.3215 -0.1040
  704PEP     CB24469  20.928   4.335  -7.278 -0.0217  0.0874  0.1257
  704PEP     CB24470  20.406   4.386  -7.500 -0.0638 -0.0338  0.1583
  704PEP     CB24471  20.144   4.442  -7.852 -0.0693 -0.1464  0.0372
  704PEP     CB24472  20.243   4.767  -8.170 -0.0240 -0.1673 -0.2941
  704PEP     CB24473  20.652   4.955  -8.308 -0.2907  0.4015 -0.1066
  704PEP     CB24474  21.033   4.975  -8.441  0.0113 -0.2000  0.1823
  704PEP     CB24475  21.336   5.222  -8.222  0.1523  0.3187  0.3247
  704PEP     CB24476  21.174   5.527  -8.144 -0.1197  0.1049 -0.0155
  704PEP     CB24477  21.166   6.051  -8.112 -0.0930 -0.2034 -0.0271
  704PEP     CB24478  21.261   6.456  -7.939 -0.2084  0.1912 -0.0612
  704PEP     CB24479  21.497   6.685  -7.748  0.0088 -0.3395 -0.0817
  704PEP     CB24480  21.409   7.153  -7.397 -0.0538 -0.2301 -0.1735
  705PEP     CB24481   5.748  17.293   4.342  0.1254  0.0676 -0.3218
  705PEP     CB24482   6.077  17.441   3.941  0.0851 -0.0218 -0.0146
  705PEP     CB24483   6.413  17.522   3.754  0.3321 -0.2895  0.2934
  705PEP     CB24484   6.587  17.753   3.454 -0.2557 -0.0561 -0.0484
  705PEP     CB24485   6.732  18.115   3.155 -0.0238  0.0652 -0.3916
  705PEP     CB24486   6.709  18.617   3.094 -0.1036 -0.0887 -0.2235
  705PEP     CB24487   6.997  18.928   3.127  0.4037  0.1087  0.0158
  705PEP     CB24488   7.309  18.978   3.377 -0.0576  0.3749  0.2904
  705PEP     CB24489   7.487  19.269   3.742  0.1541 -0.0375  0.0324
  705PEP     CB24490   7.868  19.421   3.987 -0.0975 -0.1436 -0.1580
  705PEP     CB24491   8.087  19.693   4.232 -0.2840  0.3297 -0.0163
  705PEP     CB24492   8.087  20.189   4.213  0.1242  0.0089 -0.0212
  705PEP     CB24493   7.803  20.487   4.113  0.0192 -0.3228  0.1057
  705PEP     CB24494   7.630  20.839   3.879 -0.0305  0.2331  0.2615
  705PEP     CB24495   7.319  21.102   3.687  0.3078 -0.4332 -0.0910
  705PEP     CB24496   7.055  20.936   3.359  0.2477 -0.0002 -0.0832
  705PEP     CB24497   6.815  20.443   3.314 -0.2165  0.0533  0.3366
  705PEP     CB24498   7.021  19.988   3.223 -0.3966 -0.2694  0.3878
  705PEP     CB24499   7.463  19.981   3.232 -0.1704 -0.4166 -0.2474
  705PEP     CB24500   7.904  20.031   3.133 -0.2881  0.2367  0.1002
  705PEP     CB24501   8.296  19.820   3.010 -0.1491 -0.0302 -0.2608
  705PEP     CB24502   8.559  19.545   3.224 -0.0640 -0.2283 -0.3506
  705PEP     CB24503   8.955  19.498   3.427 -0.0427 -0.1406  0.3731
  705PEP     CB24504   9.213  19.803   3.714 -0.1338 -0.1327 -0.1662
  705PEP     CB24505   9.144  20.134   3.985  0.0938 -0.1082  0.2343
  705PEP     CB24506   8.930  20.445   4.180  0.3304 -0.2254  0.0380
  705PEP     CB24507   8.503  20.550   4.135  0.0900  0.1945  0.1385
  705PEP     CB24508   8.291  20.488   3.754 -0.0224 -0.2981 -0.0990
  705PEP     CB24509   8.362  20.224   3.369  0.2298  0.1694  0.2466
  705PEP     CB24510   8.663  19.987   3.363 -0.1521 -0.0969  0.1320
  705PEP     CB24511   9.091  20.201   3.411 -0.0972  0.1356  0.2071
  705PEP     CB24512   9.248  20.636   3.282 -0.2028 -0.2346  0.5310
  705PEP     CB24513   9.148  21.045   3.435 -0.3068  0.1333 -0.1611
  705PEP     CB24514   9.030  21.429   3.622 -0.0258  0.3399 -0.0854
  705PEP     CB24515   9.046  21.825   3.822 -0.0509  0.1919  0.3733
  705PEP     CB24516   9.363  22.195   3.902 -0.2021 -0.2370  0.1120
  705PEP     CB24517   9.729  22.519   4.049  0.1644 -0.1100  0.2043
  705PEP     CB24518   9.860  22.853   3.875 -0.1945  0.0867 -0.0303
  705PEP     CB24519   9.713  23.119   3.495 -0.0718 -0.0598  0.0427
  705PEP     CB24520   9.632  23.260   3.012 -0.1944 -0.3286 -0.3488
  706PEP     CB24521   2.604  19.670   3.055  0.0906  0.0518 -0.2659
  706PEP     CB24522   2.749  19.487   3.435  0.4109  0.0991 -0.0676
  706PEP     CB24523   2.760  19.094   3.537 -0.1967  0.0785  0.0280
  706PEP     CB24524   2.665  18.757   3.745  0.2073 -0.2308  0.1569
  706PEP     CB24525   2.379  18.425   3.924 -0.2284 -0.0008 -0.3369
  706PEP     CB24526   2.356  18.108   4.318 -0.1141 -0.0095 -0.0338
  706PEP     CB24527   2.609  17.929   4.680 -0.2232 -0.1074  0.1870
  706PEP     CB24528   3.042  17.788   4.687  0.2398  0.2099 -0.0574
  706PEP     CB24529   3.116  17.393   4.451  0.2859  0.0629  0.1447
  706PEP     CB24530   3.183  16.999   4.231 -0.3360 -0.2969  0.3017
  706PEP     CB24531   3.568  16.724   4.194 -0.2794  0.0479 -0.0439
  706PEP     CB24532   3.788  16.298   4.191 -0.0459  0.2993  0.1423
  706PEP     CB24533   3.818  15.924   4.146  0.1088  0.1535  0.3919
  706PEP     CB24534   3.733  15.505   3.948  0.0707 -0.1808  0.5062
  706PEP     CB24535   3.878  15.076   3.852 -0.0166  0.3532  0.0577
  706PEP     CB24536   4.084  14.660   3.935  0.1985 -0.0365 -0.0657
  706PEP     CB24537   4.369  14.335   3.994  0.0446 -0.1416  0.2510
  706PEP     CB24538   4.526  13.981   3.951  0.1960 -0.3642 -0.0673
  706PEP     CB24539   4.458  13.533   3.839  0.2556 -0.2766  0.0850
  706PEP     CB24540   4.454  13.100   3.837 -0.1388 -0.1377  0.1064
  706PEP     CB24541   4.775  12.849   3.835 -0.0803 -0.1067 -0.1087
  706PEP     CB24542   4.988  12.477   4.075  0.0689 -0.4398 -0.1017
  706PEP     CB24543   5.232  12.121   3.906  0.3010  0.2241  0.0514
  706PEP     CB24544   5.093  11.945   3.501 -0.0909 -0.2919  0.2361
  706PEP     CB24545   4.660  12.049   3.312 -0.2128 -0.1132 -0.6137
  706PEP     CB24546   4.451  12.468   3.186  0.1025  0.1349  0.1170
  706PEP     CB24547   4.598  12.884   3.364 -0.4550  0.0625  0.3351
  706PEP     CB24548   4.972  13.017   3.421  0.6766  0.0948 -0.0795
  706PEP     CB24549   5.419  13.036   3.348  0.0617  0.1060 -0.2738
  706PEP     CB24550   5.744  12.844   3.399 -0.2234 -0.1528 -0.0562
  706PEP     CB24551   5.935  12.553   3.347 -0.1353  0.3489  0.0419
  706PEP     CB24552   6.072  12.102   3.315 -0.2839  0.3484 -0.5158
  706PEP     CB24553   5.825  11.777   3.035  0.3022  0.2987  0.0090
  706PEP     CB24554   5.472  11.891   3.014 -0.0220  0.0278 -0.0165
  706PEP     CB24555   4.959  11.843   3.016 -0.1813  0.1391  0.3723
  706PEP     CB24556   4.585  11.663   2.893 -0.1876 -0.0631  0.2297
  706PEP     CB24557   4.277  11.651   3.232 -0.1588 -0.1174 -0.2907
  706PEP     CB24558   4.354  11.415   3.617 -0.0240 -0.0265 -0.0126
  706PEP     CB24559   4.202  11.284   4.070  0.5904  0.0067  0.3002
  706PEP     CB24560   3.820  11.300   4.286 -0.3221  0.2373  0.5253
  707PEP     CB24561   5.561  17.782   4.669 -0.1673  0.2251  0.1855
  707PEP     CB24562   6.048  17.858   4.840  0.3432 -0.4723  0.0258
  707PEP     CB24563   6.304  18.222   4.995 -0.1007 -0.1503 -0.0320
  707PEP     CB24564   6.260  18.571   4.812  0.0457  0.1975  0.1346
  707PEP     CB24565   6.514  18.623   4.417  0.1474 -0.0266  0.0787
  707PEP     CB24566   6.710  18.203   4.411 -0.0779  0.1129 -0.2053
  707PEP     CB24567   6.771  18.044   4.823 -0.2266 -0.4170 -0.1819
  707PEP     CB24568   6.966  18.167   5.227 -0.0251 -0.1217  0.1656
  707PEP     CB24569   7.212  18.148   5.580  0.2155  0.1079 -0.0188
  707PEP     CB24570   7.341  18.127   5.985 -0.6674  0.0042 -0.0354
  707PEP     CB24571   7.495  18.091   6.353  0.2722  0.6974  0.3047
  707PEP     CB24572   7.748  17.880   6.571 -0.3493  0.4770  0.1986
  707PEP     CB24573   8.167  17.825   6.773  0.0967 -0.1769  0.2379
  707PEP     CB24574   8.471  17.998   7.043 -0.1024 -0.1498 -0.2000
  707PEP     CB24575   8.711  18.435   7.109 -0.1058  0.2690 -0.1276
  707PEP     CB24576   8.934  18.788   7.044 -0.0723 -0.3398  0.2032
  707PEP     CB24577   9.260  19.086   7.162  0.5538  0.3014 -0.3404
  707PEP     CB24578   9.530  19.361   6.857 -0.3671  0.1943 -0.1378
  707PEP     CB24579   9.548  19.863   6.716 -0.1590  0.2636  0.0033
  707PEP     CB24580   9.613  20.309   6.855 -0.0527  0.3794 -0.2354
  707PEP     CB24581   9.984  20.525   6.977  0.4761 -0.3217 -0.0431
  707PEP     CB24582  10.351  20.252   7.133  0.2382 -0.0546  0.0922
  707PEP     CB24583  10.412  19.840   7.053 -0.5843  0.0372 -0.2394
  707PEP     CB24584  10.532  19.485   6.956 -0.4693 -0.1114 -0.1396
  707PEP     CB24585  10.699  19.121   7.234  0.2659  0.1514  0.1818
  707PEP     CB24586  10.543  18.951   7.574 -0.1201 -0.3466  0.1133
  707PEP     CB24587  10.286  19.024   7.944 -0.2595  0.1003  0.2751
  707PEP     CB24588   9.924  19.302   7.948 -0.0835 -0.0891 -0.2765
  707PEP     CB24589   9.821  19.696   7.755  0.2976  0.0883 -0.1721
  707PEP     CB24590   9.939  19.754   7.336  0.1298 -0.0238  0.3515
  707PEP     CB24591   9.956  19.711   6.953  0.0149 -0.2109 -0.1013
  707PEP     CB24592  10.173  19.579   6.615 -0.0715  0.0303 -0.2787
  707PEP     CB24593  10.384  19.229   6.497 -0.1278 -0.2486  0.1630
  707PEP     CB24594  10.909  19.233   6.396 -0.4652 -0.0164  0.2018
  707PEP     CB24595  11.243  19.497   6.254  0.1718  0.3895  0.1190
  707PEP     CB24596  11.210  19.882   6.227  0.1461  0.0517 -0.3953
  707PEP     CB24597  10.922  20.200   6.289  0.2187 -0.2149  0.2242
  707PEP     CB24598  10.675  20.679   6.221 -0.1502 -0.2924  0.3116
  707PEP     CB24599  10.272  20.872   6.381  0.2705 -0.1788 -0.2108
  707PEP     CB24600   9.857  21.131   6.229  0.0384 -0.4306  0.1047
  708PEP     CB24601   3.853   2.138  21.926  0.0167  0.2450  0.0240
  708PEP     CB24602   3.704   2.204  21.478 -0.2027 -0.0546  0.0538
  708PEP     CB24603   3.295   2.229  21.318 -0.1526 -0.1098  0.3049
  708PEP     CB24604   2.991   2.518  21.396  0.3465 -0.0774  0.1216
  708PEP     CB24605   2.605   2.590  21.360 -0.1042  0.1729 -0.0826
  708PEP     CB24606   2.168   2.863  21.204 -0.2271 -0.3262  0.0560
  708PEP     CB24607   1.803   2.968  20.875  0.1901  0.0776 -0.2388
  708PEP     CB24608   1.392   2.869  20.766  0.0306 -0.2099 -0.0448
  708PEP     CB24609   0.990   2.982  20.962 -0.1596 -0.0140 -0.1089
  708PEP     CB24610   0.662   2.808  21.032 -0.2383  0.2847 -0.3364
  708PEP     CB24611   0.348   2.556  20.833 -0.2888  0.2623  0.2031
  708PEP     CB24612   0.183   2.201  20.611  0.0871  0.1814  0.5595
  708PEP     CB24613   0.073   1.717  20.562 -0.1753 -0.0875  0.2932
  708PEP     CB24614   0.308   1.338  20.453 -0.3569 -0.2711  0.0453
  708PEP     CB24615   0.526   1.128  20.770  0.2014  0.2413  0.1050
  708PEP     CB24616   0.411   0.899  21.205  0.0303  0.3171  0.0234
  708PEP     CB24617   0.551   0.625  21.569  0.1297 -0.2820  0.2511
  708PEP     CB24618   0.871   0.310  21.603  0.1299 -0.3186 -0.3588
  708PEP     CB24619   0.875   0.001  21.187  0.3496 -0.2095  0.0026
  708PEP     CB24620   0.495  -0.052  20.913  0.5206  0.2700 -0.1391
  708PEP     CB24621   0.200   0.151  20.656  0.0707  0.2948 -0.2377
  708PEP     CB24622  -0.033   0.449  20.303  0.5090 -0.0939  0.1005
  708PEP     CB24623  -0.257   0.422  19.903  0.3373  0.2877  0.1151
  708PEP     CB24624  -0.565   0.585  19.572  0.3072  0.0071  0.4432
  708PEP     CB24625  -0.672   0.800  19.175  0.0697 -0.1580  0.0106
  708PEP     CB24626  -0.551   0.645  18.767 -0.1808 -0.0819  0.2980
  708PEP     CB24627  -0.432   0.361  18.416 -0.0600  0.2195  0.1976
  708PEP     CB24628  -0.180   0.204  18.101 -0.4129 -0.0567 -0.1977
  708PEP     CB24629   0.173  -0.088  18.139 -0.1366  0.1170  0.1095
  708PEP     CB24630   0.257  -0.359  18.500 -0.1024  0.0416 -0.3234
  708PEP     CB24631   0.502  -0.527  18.727  0.2190 -0.0569  0.2570
  708PEP     CB24632   0.840  -0.749  18.864 -0.4037  0.2155 -0.0200
  708PEP     CB24633   1.202  -0.864  19.054 -0.2385 -0.0217 -0.0554
  708PEP     CB24634   1.552  -0.681  19.127  0.1054  0.1950  0.0199
  708PEP     CB24635   1.862  -0.529  18.922  0.0804  0.2152  0.0271
  708PEP     CB24636   2.012  -0.530  18.524  0.2878 -0.1456  0.0942
  708PEP     CB24637   1.823  -0.466  18.065  0.0473 -0.2453  0.0236
  708PEP     CB24638   1.522  -0.537  17.760 -0.2649 -0.0519  0.1280
  708PEP     CB24639   1.398  -0.807  17.423  0.3820  0.1497 -0.2684
  708PEP     CB24640   1.080  -0.991  17.282 -0.0809  0.2967  0.4322
  709PEP     CB24641   4.527   5.022   8.824 -0.1548 -0.3345 -0.3996
  709PEP     CB24642   4.753   5.191   8.481 -0.2110  0.0673 -0.4251
  709PEP     CB24643   4.732   5.642   8.314 -0.1605 -0.6362  0.0005
  709PEP     CB24644   4.375   5.888   8.167 -0.3644 -0.1163 -0.1751
  709PEP     CB24645   4.050   6.177   8.215  0.2201  0.0501 -0.1950
  709PEP     CB24646   3.906   6.235   8.630  0.0138 -0.2833  0.2636
  709PEP     CB24647   4.129   6.061   8.960 -0.2894 -0.1634  0.2031
  709PEP     CB24648   4.065   5.614   9.129  0.0398 -0.4375 -0.0676
  709PEP     CB24649   4.253   5.448   9.500  0.0671 -0.0489 -0.1135
  709PEP     CB24650   4.217   5.309   9.870  0.0646 -0.0134 -0.1019
  709PEP     CB24651   4.105   5.471  10.319 -0.1290 -0.1943 -0.0250
  709PEP     CB24652   4.061   5.248  10.760  0.1151 -0.1051  0.2656
  709PEP     CB24653   4.157   4.940  11.101 -0.3118 -0.0700  0.1487
  709PEP     CB24654   4.362   4.752  11.423 -0.3148 -0.0411  0.1030
  709PEP     CB24655   4.520   4.312  11.405  0.2738  0.0381  0.2503
  709PEP     CB24656   4.729   4.077  11.036 -0.0510 -0.0519 -0.0018
  709PEP     CB24657   4.551   3.683  10.817  0.0650 -0.3109  0.2151
  709PEP     CB24658   4.095   3.500  10.761  0.0687  0.1387 -0.1966
  709PEP     CB24659   3.701   3.672  11.002 -0.2560  0.2651  0.3238
  709PEP     CB24660   3.519   4.064  11.134 -0.0458 -0.0915  0.3724
  709PEP     CB24661   3.362   4.449  11.369  0.1112  0.0308  0.3531
  709PEP     CB24662   3.128   4.749  11.499  0.0988 -0.3413  0.0014
  709PEP     CB24663   2.749   4.851  11.159  0.2519  0.0534 -0.3309
  709PEP     CB24664   2.800   5.192  10.836  0.1011  0.0962 -0.0790
  709PEP     CB24665   3.136   5.519  10.793 -0.0668 -0.2812  0.3365
  709PEP     CB24666   3.528   5.442  10.550 -0.3540 -0.1339 -0.1421
  709PEP     CB24667   3.646   5.119  10.265  0.0348  0.0933 -0.0070
  709PEP     CB24668   3.595   4.929   9.881 -0.1533 -0.4498 -0.1009
  709PEP     CB24669   3.526   4.594   9.653 -0.0240  0.0839  0.2814
  709PEP     CB24670   3.364   4.315   9.265 -0.1374 -0.0803  0.2768
  709PEP     CB24671   3.345   4.295   8.828  0.0923  0.0508  0.0975
  709PEP     CB24672   3.266   4.662   8.560  0.2788  0.3398 -0.3666
  709PEP     CB24673   3.394   5.094   8.740 -0.4135  0.2845 -0.1544
  709PEP     CB24674   3.551   5.308   9.095 -0.2849 -0.0772 -0.4040
  709PEP     CB24675   3.782   5.140   9.436  0.0213  0.0859  0.1382
  709PEP     CB24676   4.039   4.852   9.518  0.2428  0.3873  0.0122
  709PEP     CB24677   4.101   4.464   9.392 -0.1845  0.0997 -0.2103
  709PEP     CB24678   3.972   4.167   9.136  0.0990 -0.2797 -0.1803
  709PEP     CB24679   3.977   3.999   8.779  0.1572 -0.0713  0.0656
  709PEP     CB24680   4.276   3.900   8.448  0.2557  0.4253  0.0785
  710PEP     CB24681  21.410   4.562  15.501 -0.0478  0.0621 -0.0839
  710PEP     CB24682  21.446   4.640  15.075  0.0800 -0.4091 -0.1837
  710PEP     CB24683  21.393   4.555  14.658  0.1091 -0.1461  0.1614
  710PEP     CB24684  21.581   4.121  14.579  0.3693 -0.1830  0.1101
  710PEP     CB24685  21.641   3.854  14.833  0.4499  0.0998 -0.0899
  710PEP     CB24686  21.582   3.643  15.188 -0.2163 -0.1139 -0.0669
  710PEP     CB24687  21.165   3.464  15.317 -0.1342  0.0169 -0.0440
  710PEP     CB24688  20.786   3.226  15.370  0.0572  0.0776 -0.0885
  710PEP     CB24689  20.579   2.818  15.553  0.2971 -0.2516 -0.0812
  710PEP     CB24690  20.530   2.427  15.748  0.2894 -0.3141  0.0949
  710PEP     CB24691  20.752   2.022  15.934 -0.1676 -0.0618 -0.1647
  710PEP     CB24692  20.781   1.755  16.237  0.0708  0.3952  0.1764
  710PEP     CB24693  20.718   1.319  16.487  0.1465 -0.0919 -0.0738
  710PEP     CB24694  20.394   0.940  16.618  0.0526 -0.0745  0.1186
  710PEP     CB24695  20.088   0.785  16.649  0.1978  0.1547 -0.1096
  710PEP     CB24696  20.095   0.394  16.696  0.0677  0.0404  0.2796
  710PEP     CB24697  20.038  -0.093  16.740 -0.0227 -0.0302 -0.0853
  710PEP     CB24698  20.196  -0.498  16.882  0.2812 -0.1171  0.1865
  710PEP     CB24699  20.173  -0.790  16.586 -0.0559  0.1752 -0.2255
  710PEP     CB24700  20.180  -0.786  16.122  0.0493  0.3250  0.2029
  710PEP     CB24701  20.294  -0.547  15.800  0.1509 -0.3266  0.1377
  710PEP     CB24702  20.124  -0.105  15.745  0.3137  0.1113 -0.0687
  710PEP     CB24703  19.810   0.167  15.790 -0.1913  0.0302 -0.2360
  710PEP     CB24704  19.746   0.597  15.904  0.0991  0.1218 -0.2097
  710PEP     CB24705  19.605   0.957  15.823 -0.2019 -0.0327 -0.0457
  710PEP     CB24706  19.491   1.227  16.145 -0.1364  0.1350  0.1810
  710PEP     CB24707  19.265   1.137  16.477  0.3840 -0.0693  0.2676
  710PEP     CB24708  19.477   1.152  16.895 -0.1457 -0.1388  0.6235
  710PEP     CB24709  19.853   1.366  17.013  0.0904  0.0077 -0.0229
  710PEP     CB24710  20.333   1.185  17.011  0.0856 -0.3234  0.2324
  710PEP     CB24711  20.391   0.750  17.168 -0.2484  0.4510  0.2371
  710PEP     CB24712  20.548   0.649  17.588 -0.1255 -0.0980 -0.1403
  710PEP     CB24713  20.780   0.826  17.871 -0.0098  0.2361  0.1491
  710PEP     CB24714  21.067   1.149  17.949  0.1925  0.1852  0.0752
  710PEP     CB24715  21.499   1.323  17.960 -0.0462  0.0202 -0.0112
  710PEP     CB24716  21.877   1.321  17.732  0.3229  0.2138 -0.1281
  710PEP     CB24717  22.346   1.379  17.711  0.2463  0.2154 -0.3301
  710PEP     CB24718  22.805   1.578  17.770 -0.2930  0.3200  0.1516
  710PEP     CB24719  23.202   1.830  17.843  0.2617 -0.2608 -0.1110
  710PEP     CB24720  23.388   2.248  17.881  0.4290  0.1592  0.2835
  711PEP     CB24721  20.041   1.079  13.083 -0.0233 -0.3596  0.5151
  711PEP     CB24722  20.024   1.220  13.552 -0.0018 -0.0944 -0.0048
  711PEP     CB24723  19.922   1.300  13.994  0.2359  0.5335 -0.2115
  711PEP     CB24724  19.794   1.383  14.361  0.0068 -0.1729 -0.3388
  711PEP     CB24725  19.472   1.677  14.537  0.2805  0.1126  0.4507
  711PEP     CB24726  19.125   1.570  14.751  0.1160 -0.1568 -0.2018
  711PEP     CB24727  18.841   1.264  14.607  0.1847 -0.0395 -0.3013
  711PEP     CB24728  18.593   0.920  14.391  0.1080 -0.1507 -0.1764
  711PEP     CB24729  18.205   0.706  14.611  0.0639  0.3820 -0.4076
  711PEP     CB24730  17.846   0.828  14.688 -0.2009  0.1038 -0.1400
  711PEP     CB24731  17.722   1.227  14.807 -0.2144 -0.0522  0.1034
  711PEP     CB24732  17.788   1.601  14.639  0.1767 -0.0070  0.3437
  711PEP     CB24733  17.660   1.970  14.817  0.3125  0.1621 -0.0222
  711PEP     CB24734  17.535   2.217  15.119 -0.1274 -0.1464  0.1404
  711PEP     CB24735  17.471   2.258  15.591 -0.1111 -0.4151 -0.1532
  711PEP     CB24736  17.416   1.886  15.798 -0.0922 -0.1009 -0.0839
  711PEP     CB24737  17.417   1.458  15.617 -0.2948  0.0241  0.0801
  711PEP     CB24738  17.113   1.171  15.418 -0.0881  0.0863 -0.0375
  711PEP     CB24739  16.719   1.304  15.287 -0.3713 -0.3273 -0.4355
  711PEP     CB24740  16.267   1.124  15.218 -0.4860  0.2415  0.0241
  711PEP     CB24741  15.893   1.189  14.976 -0.3425  0.1630 -0.2548
  711PEP     CB24742  15.619   1.085  14.654  0.0920 -0.0848 -0.2553
  711PEP     CB24743  15.305   0.869  14.387 -0.0538 -0.0964  0.1743
  711PEP     CB24744  15.081   0.895  13.946 -0.0612 -0.2666 -0.0491
  711PEP     CB24745  15.141   0.910  13.448  0.0218 -0.5231 -0.1548
  711PEP     CB24746  15.627   1.011  13.244  0.0175 -0.1422  0.1514
  711PEP     CB24747  15.893   1.133  13.474 -0.1357  0.0646  0.4682
  711PEP     CB24748  15.964   1.472  13.690 -0.0686  0.2246 -0.3015
  711PEP     CB24749  16.014   1.759  14.004 -0.0114  0.2708 -0.0822
  711PEP     CB24750  16.068   2.011  14.396 -0.1826  0.2008  0.0105
  711PEP     CB24751  16.047   2.369  14.642 -0.1572 -0.0922 -0.0075
  711PEP     CB24752  16.039   2.683  14.973  0.4828  0.1649  0.1334
  711PEP     CB24753  16.137   3.076  15.118  0.1308  0.4221  0.2539
  711PEP     CB24754  16.453   3.293  15.422 -0.1425  0.0942  0.0217
  711PEP     CB24755  16.629   3.010  15.623 -0.3402 -0.4235  0.2918
  711PEP     CB24756  17.039   2.816  15.513 -0.1075  0.1381 -0.2492
  711PEP     CB24757  17.223   3.069  15.218 -0.2486  0.1066  0.0175
  711PEP     CB24758  16.984   3.547  15.291  0.1045 -0.2159  0.1176
  711PEP     CB24759  16.756   3.575  15.711  0.0421 -0.0785  0.2366
  711PEP     CB24760  16.493   3.778  16.076 -0.0307 -0.1032  0.2615
  712PEP     CB24761   5.336   5.628  15.926 -0.0410 -0.2762  0.1946
  712PEP     CB24762   5.645   5.555  16.227  0.4522  0.1128 -0.0149
  712PEP     CB24763   5.687   5.483  16.652  0.1138 -0.0769  0.0337
  712PEP     CB24764   5.680   5.282  17.046  0.1840 -0.0330 -0.3928
  712PEP     CB24765   5.450   4.885  17.012  0.0126  0.0018 -0.0046
  712PEP     CB24766   5.234   4.992  16.633  0.0937 -0.0375  0.2441
  712PEP     CB24767   5.202   5.169  16.195 -0.1266  0.0757  0.3706
  712PEP     CB24768   5.109   5.229  15.771 -0.1076  0.0562  0.3343
  712PEP     CB24769   4.786   5.495  15.704  0.2382 -0.2083  0.2712
  712PEP     CB24770   4.429   5.700  15.707 -0.1998  0.0517 -0.1227
  712PEP     CB24771   4.057   5.769  15.931  0.0097 -0.4542  0.0626
  712PEP     CB24772   3.693   5.595  15.914  0.0211  0.3135  0.1812
  712PEP     CB24773   3.398   5.245  15.892 -0.2770  0.3126  0.1401
  712PEP     CB24774   3.103   4.942  15.768  0.1241 -0.2620  0.3065
  712PEP     CB24775   3.043   4.624  15.538 -0.1368 -0.3037  0.0913
  712PEP     CB24776   2.951   4.264  15.376 -0.2016  0.2293 -0.0408
  712PEP     CB24777   2.844   4.118  14.959  0.0487 -0.1707  0.3770
  712PEP     CB24778   2.729   4.373  14.635 -0.0162 -0.4140 -0.0254
  712PEP     CB24779   2.633   4.713  14.316 -0.1728  0.2765 -0.1624
  712PEP     CB24780   2.547   4.998  14.037  0.2741 -0.1225 -0.1134
  712PEP     CB24781   2.264   5.391  14.126 -0.1015 -0.0609  0.1341
  712PEP     CB24782   2.256   5.584  14.616 -0.2574  0.1754  0.0195
  712PEP     CB24783   2.165   5.278  15.048  0.0381 -0.0335 -0.1697
  712PEP     CB24784   2.169   5.094  15.499  0.1666 -0.0609  0.3083
  712PEP     CB24785   1.940   5.036  15.876  0.0127 -0.3458  0.0346
  712PEP     CB24786   1.819   4.815  16.254  0.4358  0.1155 -0.0207
  712PEP     CB24787   1.888   4.907  16.727 -0.0531  0.0444 -0.7871
  712PEP     CB24788   1.917   4.885  17.142  0.0658  0.2938  0.0124
  712PEP     CB24789   1.976   5.197  17.554 -0.0833  0.0181 -0.3609
  712PEP     CB24790   1.759   5.480  17.817  0.3828  0.1285 -0.0924
  712PEP     CB24791   1.441   5.746  17.970 -0.1453 -0.0033  0.0179
  712PEP     CB24792   1.095   6.036  17.861  0.0707  0.4645 -0.1558
  712PEP     CB24793   0.955   6.533  17.866 -0.1499 -0.2586  0.1129
  712PEP     CB24794   1.073   6.939  17.919 -0.0659  0.2712 -0.1909
  712PEP     CB24795   1.406   7.047  17.670 -0.2569  0.3856 -0.1078
  712PEP     CB24796   1.673   7.262  17.388  0.4304 -0.2045 -0.1219
  712PEP     CB24797   2.092   7.339  17.233 -0.1039 -0.0320  0.0167
  712PEP     CB24798   2.572   7.123  17.087  0.1530  0.1044  0.0393
  712PEP     CB24799   2.978   7.304  16.915  0.3374  0.0487 -0.1375
  712PEP     CB24800   3.206   7.725  16.856 -0.1553  0.1672 -0.0210
  713PEP     CB24801   7.079   2.560  17.404 -0.2879  0.2285  0.1354
  713PEP     CB24802   7.166   2.796  17.096 -0.2601  0.2440 -0.4394
  713PEP     CB24803   7.290   3.127  16.762  0.2083  0.3470 -0.2102
  713PEP     CB24804   7.252   3.405  16.443 -0.1532 -0.1677 -0.1506
  713PEP     CB24805   7.273   3.493  15.970  0.4432  0.2412  0.1951
  713PEP     CB24806   7.315   3.647  15.580  0.1365  0.2404  0.0225
  713PEP     CB24807   7.418   3.965  15.224 -0.2232  0.1305 -0.0188
  713PEP     CB24808   7.282   4.163  14.750  0.0752  0.1575 -0.2498
  713PEP     CB24809   6.966   4.301  14.385  0.4569 -0.3122 -0.3872
  713PEP     CB24810   6.734   4.099  14.178  0.2939 -0.4399 -0.0942
  713PEP     CB24811   6.833   3.661  13.988 -0.2855  0.1425  0.0535
  713PEP     CB24812   7.019   3.296  13.931 -0.0702  0.3788 -0.0050
  713PEP     CB24813   7.241   3.318  13.581  0.0319 -0.2600  0.0991
  713PEP     CB24814   7.556   3.616  13.467  0.3619  0.5778 -0.0186
  713PEP     CB24815   7.863   3.872  13.140 -0.5374 -0.4197 -0.0032
  713PEP     CB24816   8.319   4.071  13.074 -0.1549  0.1039 -0.1486
  713PEP     CB24817   8.382   4.551  13.022  0.1164  0.0737 -0.4149
  713PEP     CB24818   8.115   4.829  13.011 -0.2696 -0.2698  0.1531
  713PEP     CB24819   8.016   5.278  13.123 -0.2447  0.1003  0.2788
  713PEP     CB24820   7.810   5.375  13.579 -0.0999 -0.4516  0.3266
  713PEP     CB24821   7.465   5.243  13.724 -0.3958  0.1920  0.0481
  713PEP     CB24822   7.153   5.011  13.641 -0.0817  0.0907 -0.3370
  713PEP     CB24823   6.752   4.876  13.352 -0.1221 -0.3024 -0.1161
  713PEP     CB24824   6.289   4.816  13.200  0.1480  0.9004  0.0100
  713PEP     CB24825   5.846   4.963  13.224 -0.0956  0.1890  0.2653
  713PEP     CB24826   5.474   5.014  13.496 -0.0487  0.2044  0.1634
  713PEP     CB24827   5.397   4.710  13.740 -0.2767  0.0271 -0.0293
  713PEP     CB24828   5.267   4.430  13.678 -0.0643 -0.2348 -0.0261
  713PEP     CB24829   5.219   4.103  13.387  0.1371 -0.0619 -0.1836
  713PEP     CB24830   5.106   4.089  12.924 -0.1689  0.1358 -0.0834
  713PEP     CB24831   5.018   4.004  12.481 -0.0449  0.3606  0.1442
  713PEP     CB24832   4.951   3.621  12.195  0.0304 -0.6417  0.0204
  713PEP     CB24833   4.814   3.388  11.814 -0.4589 -0.3106  0.0621
  713PEP     CB24834   4.484   3.112  11.511  0.1264 -0.0950  0.0396
  713PEP     CB24835   4.115   2.828  11.444 -0.0084  0.3191 -0.2716
  713PEP     CB24836   3.810   2.966  11.569  0.0800  0.0735  0.0966
  713PEP     CB24837   3.612   3.170  11.885  0.5441  0.2188 -0.4414
  713PEP     CB24838   3.742   3.321  12.222  0.0521  0.1321 -0.1879
  713PEP     CB24839   3.763   3.178  12.624  0.0012 -0.2669 -0.0940
  713PEP     CB24840   4.030   3.046  13.058 -0.3262 -0.3891  0.1653
  714PEP     CB24841   6.352   7.076   5.491  0.1172 -0.0499 -0.0880
  714PEP     CB24842   6.677   7.258   5.273 -0.3494  0.1693  0.1814
  714PEP     CB24843   7.141   7.209   5.242  0.0169 -0.2507 -0.2263
  714PEP     CB24844   7.315   6.681   5.322 -0.3464 -0.0345 -0.1085
  714PEP     CB24845   6.978   6.270   5.302  0.0563  0.0226  0.1840
  714PEP     CB24846   6.546   6.373   5.323 -0.3069 -0.0409 -0.2700
  714PEP     CB24847   6.229   6.662   5.256  0.1193 -0.1161  0.2348
  714PEP     CB24848   5.821   6.547   5.241  0.1698  0.2471  0.0648
  714PEP     CB24849   5.651   6.042   5.041  0.2449  0.1781 -0.1252
  714PEP     CB24850   5.631   5.599   4.992  0.3436 -0.1166  0.1491
  714PEP     CB24851   5.644   5.341   5.304  0.0275 -0.0741  0.1462
  714PEP     CB24852   5.729   5.056   5.648  0.1024 -0.0477 -0.2359
  714PEP     CB24853   5.705   4.649   5.473 -0.4273 -0.1174  0.2989
  714PEP     CB24854   5.376   4.575   5.079 -0.0669  0.4611 -0.1405
  714PEP     CB24855   5.215   4.848   4.786 -0.0169 -0.3272 -0.1066
  714PEP     CB24856   5.190   5.227   4.573  0.2406  0.0637  0.1980
  714PEP     CB24857   5.261   5.597   4.584  0.0807 -0.0018  0.1043
  714PEP     CB24858   5.120   6.009   4.754  0.0100  0.3247 -0.3380
  714PEP     CB24859   4.833   6.070   5.031  0.0981  0.0937  0.1062
  714PEP     CB24860   4.529   5.991   5.343 -0.1296  0.1280  0.0740
  714PEP     CB24861   4.411   6.184   5.739  0.1405 -0.0424  0.0134
  714PEP     CB24862   4.596   6.489   6.027  0.6165  0.0272 -0.1322
  714PEP     CB24863   4.592   6.931   6.030  0.2604 -0.1506 -0.0827
  714PEP     CB24864   4.738   7.332   6.050 -0.7274  0.2340  0.1001
  714PEP     CB24865   5.101   7.558   6.135 -0.1582  0.1679  0.1427
  714PEP     CB24866   5.404   7.782   5.924 -0.1662 -0.2349  0.2531
  714PEP     CB24867   5.578   8.189   5.808  0.2366  0.0399 -0.2995
  714PEP     CB24868   5.477   8.605   5.560  0.1585 -0.0504  0.0751
  714PEP     CB24869   5.417   8.795   5.168 -0.0499 -0.2126  0.1557
  714PEP     CB24870   5.071   9.010   5.046 -0.1768 -0.1826 -0.1306
  714PEP     CB24871   4.676   9.138   5.187 -0.2834  0.2933  0.0768
  714PEP     CB24872   4.506   9.238   5.661 -0.0589  0.0175  0.0634
  714PEP     CB24873   4.737   9.194   6.059  0.0719 -0.1017  0.5208
  714PEP     CB24874   5.166   9.277   6.089  0.0681  0.0751 -0.1745
  714PEP     CB24875   5.347   9.482   5.736  0.2402 -0.2655  0.3514
  714PEP     CB24876   5.098   9.915   5.614  0.5738 -0.3101 -0.2210
  714PEP     CB24877   5.039  10.440   5.527  0.0803  0.0783  0.1545
  714PEP     CB24878   5.173  10.867   5.530  0.0761 -0.1745 -0.1711
  714PEP     CB24879   5.259  11.251   5.539  0.0118 -0.3423  0.0615
  714PEP     CB24880   5.073  11.582   5.519  0.2702 -0.3058  0.0168
  715PEP     CB24881   1.521  11.498   7.449  0.0433 -0.1175 -0.3344
  715PEP     CB24882   1.324  11.183   7.268 -0.2763 -0.3062  0.0757
  715PEP     CB24883   1.228  10.708   7.400  0.2791  0.1880 -0.1734
  715PEP     CB24884   1.447  10.446   7.734 -0.5663  0.2546  0.1055
  715PEP     CB24885   1.411  10.392   8.097  0.0553 -0.2894 -0.4245
  715PEP     CB24886   1.770  10.460   8.495  0.1677  0.0353 -0.0118
  715PEP     CB24887   2.084  10.556   8.600 -0.2628 -0.1603  0.3134
  715PEP     CB24888   2.170  10.854   8.498  0.2210 -0.1469 -0.4422
  715PEP     CB24889   2.001  11.168   8.183 -0.0276 -0.1923 -0.1626
  715PEP     CB24890   1.549  11.325   8.013  0.0781 -0.1778 -0.0831
  715PEP     CB24891   1.188  11.443   7.796  0.1671  0.2044  0.0463
  715PEP     CB24892   1.013  11.748   7.633 -0.0638  0.0812 -0.1249
  715PEP     CB24893   1.296  12.155   7.369  0.3261 -0.0536 -0.1476
  715PEP     CB24894   1.636  12.103   7.128 -0.0837 -0.3679 -0.2586
  715PEP     CB24895   1.920  11.795   7.141  0.0112  0.0845 -0.1989
  715PEP     CB24896   2.261  11.475   7.156  0.1253  0.0907  0.2476
  715PEP     CB24897   2.272  11.102   7.260 -0.1114  0.0674 -0.2956
  715PEP     CB24898   2.149  10.751   7.077 -0.0854 -0.1762 -0.1651
  715PEP     CB24899   2.238  10.338   6.854 -0.1111 -0.0044 -0.0122
  715PEP     CB24900   2.202   9.918   6.647 -0.1632 -0.0020 -0.2244
  715PEP     CB24901   2.461   9.472   6.580 -0.1422 -0.2007 -0.2126
  715PEP     CB24902   2.881   9.322   6.779 -0.5061  0.1596  0.4238
  715PEP     CB24903   3.015   9.503   7.249 -0.0169 -0.1385 -0.3214
  715PEP     CB24904   2.670   9.753   7.438  0.0229 -0.4229  0.0517
  715PEP     CB24905   2.352   9.633   7.751  0.0128  0.0500  0.3514
  715PEP     CB24906   2.036   9.448   8.055  0.1714 -0.0023 -0.0127
  715PEP     CB24907   1.670   9.591   8.172 -0.1753  0.3156 -0.1087
  715PEP     CB24908   1.528   9.920   7.920 -0.2729  0.4472 -0.1061
  715PEP     CB24909   1.739   9.987   7.586  0.2130 -0.1097 -0.0934
  715PEP     CB24910   1.933   9.770   7.290 -0.2108 -0.2623  0.2450
  715PEP     CB24911   2.213   9.491   7.084  0.0826 -0.3286  0.0508
  715PEP     CB24912   2.334   9.121   7.370 -0.2981  0.1377  0.5486
  715PEP     CB24913   2.615   8.767   7.549  0.1962 -0.0845 -0.3956
  715PEP     CB24914   2.751   8.736   7.997  0.1110  0.3594 -0.4017
  715PEP     CB24915   2.688   8.650   8.452 -0.0951  0.2372  0.2846
  715PEP     CB24916   2.373   8.444   8.840 -0.2277 -0.2976 -0.0148
  715PEP     CB24917   2.241   8.409   9.347  0.3125 -0.2552 -0.0299
  715PEP     CB24918   2.501   8.392   9.771 -0.5595 -0.0744  0.2249
  715PEP     CB24919   2.979   8.314   9.836 -0.1133 -0.4317 -0.3455
  715PEP     CB24920   3.390   8.466   9.780 -0.3135  0.1479 -0.4655
  716PEP     CB24921  10.257  20.763  12.361  0.0369 -0.1072 -0.2060
  716PEP     CB24922  10.059  20.364  12.354  0.0444 -0.0464  0.0365
  716PEP     CB24923  10.028  20.011  12.648 -0.1520 -0.1133 -0.0483
  716PEP     CB24924  10.261  19.922  13.084 -0.2236 -0.0600 -0.0619
  716PEP     CB24925  10.669  20.060  13.225  0.1020 -0.1006 -0.0110
  716PEP     CB24926  10.891  20.335  12.884  0.2978 -0.1667 -0.0303
  716PEP     CB24927  10.999  20.126  12.476 -0.1904  0.6416  0.2956
  716PEP     CB24928  11.157  19.699  12.379 -0.0943  0.0042  0.1597
  716PEP     CB24929  11.443  19.399  12.595  0.0547 -0.5914 -0.2248
  716PEP     CB24930  11.582  19.225  12.988 -0.0488 -0.1703  0.1861
  716PEP     CB24931  11.586  18.997  13.390 -0.1207  0.0637 -0.0488
  716PEP     CB24932  11.641  18.817  13.823  0.5929 -0.1658  0.1004
  716PEP     CB24933  11.768  18.411  14.075  0.0173 -0.2393  0.0524
  716PEP     CB24934  11.616  17.930  13.972  0.1228  0.1456  0.2240
  716PEP     CB24935  11.292  17.681  14.013 -0.3635  0.3162 -0.3466
  716PEP     CB24936  10.984  17.357  14.066  0.2180  0.0014 -0.1146
  716PEP     CB24937  10.657  17.095  13.991 -0.0551 -0.0618  0.2203
  716PEP     CB24938  10.178  17.011  13.860  0.0638 -0.3356  0.1198
  716PEP     CB24939   9.778  16.826  13.948 -0.1654  0.0614 -0.2306
  716PEP     CB24940   9.674  16.678  14.388 -0.5123 -0.0110 -0.0870
  716PEP     CB24941   9.786  16.447  14.804  0.4234 -0.0262 -0.0927
  716PEP     CB24942  10.050  16.047  14.870  0.3457 -0.0770 -0.2737
  716PEP     CB24943  10.457  15.936  14.735  0.0520  0.0067 -0.2435
  716PEP     CB24944  10.772  16.161  14.513 -0.4533  0.0288 -0.0903
  716PEP     CB24945  11.096  16.391  14.560  0.2043  0.2218 -0.0435
  716PEP     CB24946  11.289  16.809  14.707  0.0269 -0.0031  0.2610
  716PEP     CB24947  11.185  17.184  15.018  0.0214 -0.1155  0.2430
  716PEP     CB24948  10.864  17.533  15.078 -0.0580 -0.0475 -0.1269
  716PEP     CB24949  10.580  17.681  14.787 -0.4384  0.2571 -0.1147
  716PEP     CB24950  10.476  17.415  14.384 -0.0322  0.3287  0.2950
  716PEP     CB24951  10.184  17.048  14.396 -0.1357 -0.1353 -0.2070
  716PEP     CB24952   9.946  16.944  14.677 -0.3543 -0.1711  0.2895
  716PEP     CB24953   9.746  16.830  15.127 -0.3293  0.1366  0.1846
  716PEP     CB24954   9.823  16.694  15.512 -0.8004  0.0149  0.5160
  716PEP     CB24955   9.906  16.413  15.826 -0.0510 -0.3718  0.0096
  716PEP     CB24956   9.744  15.996  15.917 -0.0673 -0.0783  0.2713
  716PEP     CB24957   9.497  15.629  15.674  0.3401 -0.0390 -0.1221
  716PEP     CB24958   9.321  15.205  15.715  0.0849 -0.2657  0.2959
  716PEP     CB24959   9.532  14.803  15.600 -0.2455  0.1954 -0.0593
  716PEP     CB24960   9.895  14.516  15.345  0.0999 -0.0839 -0.1097
  717PEP     CB24961   3.523   8.897  11.940  0.1297 -0.0389 -0.2135
  717PEP     CB24962   3.875   9.005  12.273  0.2373 -0.2848 -0.1865
  717PEP     CB24963   4.146   8.808  12.548  0.2321  0.3858  0.1782
  717PEP     CB24964   4.106   8.385  12.836 -0.0223  0.2642  0.0031
  717PEP     CB24965   3.922   8.278  13.235  0.0149 -0.0074 -0.2155
  717PEP     CB24966   3.550   8.190  13.551 -0.1222 -0.3896 -0.1820
  717PEP     CB24967   3.059   8.318  13.744 -0.1865  0.0606 -0.1791
  717PEP     CB24968   2.699   8.331  14.003  0.5273 -0.1634  0.1848
  717PEP     CB24969   2.435   8.202  14.292  0.1378  0.1403  0.2581
  717PEP     CB24970   2.393   7.879  14.600 -0.0210 -0.2097 -0.0333
  717PEP     CB24971   2.155   7.680  14.874 -0.2401 -0.0774 -0.1192
  717PEP     CB24972   2.090   7.286  15.111  0.0215  0.2351  0.1284
  717PEP     CB24973   1.843   6.894  15.324  0.1798  0.0904 -0.4843
  717PEP     CB24974   1.772   6.456  15.293 -0.2969  0.4115  0.1513
  717PEP     CB24975   1.461   6.151  15.153  0.3408 -0.0143 -0.0924
  717PEP     CB24976   1.051   6.070  14.961  0.2715  0.1133  0.3322
  717PEP     CB24977   0.738   6.321  14.849 -0.1460  0.0596 -0.3146
  717PEP     CB24978   0.781   6.782  14.880  0.1032  0.2035  0.0427
  717PEP     CB24979   0.661   7.080  14.588  0.2312  0.1891  0.0937
  717PEP     CB24980   0.649   7.082  14.155  0.3563 -0.4050 -0.0805
  717PEP     CB24981   0.704   6.755  13.926 -0.1250  0.0697  0.4115
  717PEP     CB24982   0.709   6.333  14.092 -0.0356 -0.0236  0.3105
  717PEP     CB24983   0.956   6.079  14.456  0.0465  0.1164 -0.0633
  717PEP     CB24984   1.367   6.257  14.564  0.0444  0.0955  0.0944
  717PEP     CB24985   1.581   6.673  14.392 -0.0738  0.3524 -0.0797
  717PEP     CB24986   1.650   6.736  14.041  0.3130 -0.0789  0.2741
  717PEP     CB24987   1.842   6.827  13.643 -0.2657 -0.1229  0.2147
  717PEP     CB24988   2.043   6.927  13.217 -0.0948  0.0136 -0.3679
  717PEP     CB24989   2.057   6.992  12.819  0.1506  0.0999 -0.2119
  717PEP     CB24990   2.281   6.959  12.458  0.0781  0.5344 -0.0624
  717PEP     CB24991   2.221   6.819  12.071  0.0269  0.0600 -0.3540
  717PEP     CB24992   2.086   7.046  11.693  0.0196  0.0102 -0.1776
  717PEP     CB24993   1.706   7.241  11.683  0.5440 -0.0404  0.1930
  717PEP     CB24994   1.521   7.436  12.057  0.0932  0.0264 -0.0313
  717PEP     CB24995   1.368   7.656  12.447 -0.2116 -0.1548 -0.0960
  717PEP     CB24996   1.135   7.980  12.517  0.0418  0.3300 -0.0495
  717PEP     CB24997   0.946   8.258  12.676 -0.3197 -0.2689 -0.1731
  717PEP     CB24998   0.926   8.422  13.088 -0.0409 -0.0289  0.1766
  717PEP     CB24999   0.792   8.265  13.406 -0.4574  0.0139 -0.0127
  717PEP     CB25000   0.403   8.260  13.661  0.3453 -0.0356 -0.2466
  718PEP     CB25001  10.643   5.987   4.170 -0.1610  0.2983  0.3697
  718PEP     CB25002  10.229   6.056   4.088  0.2056  0.2029  0.0985
  718PEP     CB25003   9.760   6.208   4.164 -0.7105  0.1048 -0.3499
  718PEP     CB25004   9.481   6.177   4.515 -0.4781  0.0484  0.2622
  718PEP     CB25005   9.213   6.421   4.724  0.3920 -0.3216  0.2282
  718PEP     CB25006   9.007   6.863   4.891 -0.2416 -0.1423 -0.5275
  718PEP     CB25007   8.835   7.243   4.709 -0.0218 -0.3229  0.1992
  718PEP     CB25008   8.932   7.416   4.265 -0.0770 -0.2797  0.6090
  718PEP     CB25009   9.158   7.370   3.836  0.2214  0.1494 -0.3564
  718PEP     CB25010   9.532   7.268   3.657 -0.1979  0.0269  0.1146
  718PEP     CB25011   9.864   7.183   3.992 -0.3843  0.2449  0.3649
  718PEP     CB25012   9.816   6.787   4.237  0.1923  0.4128 -0.1336
  718PEP     CB25013   9.852   6.595   4.551 -0.0434 -0.1382 -0.0754
  718PEP     CB25014   9.927   6.074   4.622 -0.2602 -0.2486  0.0094
  718PEP     CB25015  10.177   5.758   4.425 -0.0382 -0.1604 -0.1076
  718PEP     CB25016  10.438   5.460   4.147 -0.3787  0.4369 -0.0419
  718PEP     CB25017  10.517   5.030   4.289  0.0041 -0.0395 -0.0467
  718PEP     CB25018  10.684   5.072   4.724 -0.0466 -0.3781  0.0363
  718PEP     CB25019  11.026   5.423   4.844  0.1669 -0.1078  0.2310
  718PEP     CB25020  11.336   5.679   4.665  0.3727  0.3006 -0.0952
  718PEP     CB25021  11.548   6.080   4.818  0.0486 -0.2592 -0.1078
  718PEP     CB25022  11.500   6.501   4.664  0.0749  0.4183  0.3828
  718PEP     CB25023  11.343   6.721   4.264 -0.0383  0.1455  0.4839
  718PEP     CB25024  11.496   6.661   3.893 -0.2769 -0.0609  0.0365
  718PEP     CB25025  11.936   6.600   3.641 -0.1290  0.1420 -0.1152
  718PEP     CB25026  12.398   6.382   3.756  0.0312  0.1689 -0.0110
  718PEP     CB25027  12.788   6.490   3.559  0.1917 -0.0851  0.0378
  718PEP     CB25028  12.776   6.844   3.154 -0.1683 -0.4418 -0.2142
  718PEP     CB25029  12.666   7.249   3.170  0.1082 -0.1106  0.0274
  718PEP     CB25030  12.557   7.396   3.479  0.1680  0.5056 -0.0680
  718PEP     CB25031  12.813   7.487   3.888 -0.1030 -0.0161  0.1767
  718PEP     CB25032  13.001   7.886   3.974  0.1151  0.3170 -0.0145
  718PEP     CB25033  13.448   8.195   4.056 -0.3778 -0.0685 -0.1873
  718PEP     CB25034  13.782   8.415   3.911  0.0376  0.0274 -0.3965
  718PEP     CB25035  14.229   8.563   4.033  0.0531 -0.2200  0.4471
  718PEP     CB25036  14.457   8.951   4.104 -0.3324 -0.1959  0.3304
  718PEP     CB25037  14.223   9.345   4.072  0.1481  0.1267  0.1638
  718PEP     CB25038  13.808   9.502   4.251  0.4489 -0.0118  0.0467
  718PEP     CB25039  13.466   9.256   4.240  0.3983 -0.4136 -0.1758
  718PEP     CB25040  13.421   8.869   4.094  0.0590  0.3227  0.3434
  719PEP     CB25041  13.534  11.104   0.947  0.2494 -0.1786  0.0153
  719PEP     CB25042  13.725  11.475   0.881  0.3147  0.0607 -0.0777
  719PEP     CB25043  14.022  11.825   0.836  0.1879 -0.1409  0.1323
  719PEP     CB25044  14.379  12.058   1.153  0.0535  0.0642  0.3631
  719PEP     CB25045  14.429  12.254   1.507 -0.3991  0.1055  0.1634
  719PEP     CB25046  14.602  12.444   1.881  0.0934  0.2259  0.0717
  719PEP     CB25047  14.783  12.502   2.256 -0.2420 -0.0016  0.2023
  719PEP     CB25048  15.114  12.811   2.513  0.0836  0.2545  0.2583
  719PEP     CB25049  15.478  13.002   2.439  0.2092 -0.2371  0.0897
  719PEP     CB25050  15.936  13.040   2.694  0.3550  0.0750 -0.3137
  719PEP     CB25051  16.372  13.120   2.726  0.0289 -0.1995  0.1023
  719PEP     CB25052  16.757  13.290   2.839  0.1729  0.0955 -0.0450
  719PEP     CB25053  16.985  13.557   2.651 -0.3616  0.1167 -0.2602
  719PEP     CB25054  17.000  13.978   2.482 -0.2273  0.0311 -0.0993
  719PEP     CB25055  16.896  14.175   2.111  0.3654 -0.1211 -0.0565
  719PEP     CB25056  16.902  14.244   1.666 -0.1246 -0.2967  0.1769
  719PEP     CB25057  17.031  14.517   1.298  0.0764 -0.1974  0.1251
  719PEP     CB25058  17.044  14.917   1.029  0.2882  0.2682 -0.1250
  719PEP     CB25059  17.352  15.194   0.967 -0.1562 -0.4432  0.1292
  719PEP     CB25060  17.750  15.064   0.905 -0.0164  0.1223  0.1867
  719PEP     CB25061  18.125  15.012   0.729  0.6175  0.1392 -0.0555
  719PEP     CB25062  18.473  14.711   0.514 -0.0480  0.0633 -0.0540
  719PEP     CB25063  18.893  14.557   0.570  0.0410 -0.0374  0.0596
  719PEP     CB25064  19.131  14.458   0.830 -0.1142 -0.0554 -0.0556
  719PEP     CB25065  19.357  14.450   1.150 -0.4171  0.2839  0.1049
  719PEP     CB25066  19.707  14.633   1.407 -0.2141 -0.1060  0.0855
  719PEP     CB25067  19.851  14.842   1.769 -0.1503 -0.1344 -0.2593
  719PEP     CB25068  19.789  15.007   2.231  0.2958  0.2623  0.1092
  719PEP     CB25069  19.759  14.963   2.653  0.1268  0.0654  0.1170
  719PEP     CB25070  19.692  14.537   2.910 -0.0898  0.0347 -0.1359
  719PEP     CB25071  19.515  14.088   2.767 -0.2745 -0.2684 -0.2076
  719PEP     CB25072  19.757  13.853   2.461 -0.3556 -0.0704  0.0368
  719PEP     CB25073  20.238  13.717   2.508 -0.2756  0.1924  0.0431
  719PEP     CB25074  20.463  13.365   2.407  0.6132  0.2694  0.2238
  719PEP     CB25075  20.835  13.059   2.302  0.2011 -0.1092 -0.1122
  719PEP     CB25076  21.178  12.990   2.110  0.0796  0.4141  0.2084
  719PEP     CB25077  21.373  12.820   1.742 -0.0465  0.1653 -0.1098
  719PEP     CB25078  21.263  12.446   1.485 -0.4081 -0.2995 -0.1678
  719PEP     CB25079  21.007  12.156   1.306  0.3893 -0.5219  0.1769
  719PEP     CB25080  20.618  12.048   1.048  0.3566 -0.2021 -0.3140
  720PEP     CB25081   2.255  11.615   1.991  0.4814  0.1616  0.2826
  720PEP     CB25082   2.648  11.871   1.754 -0.3544  0.4449 -0.1170
  720PEP     CB25083   2.643  12.258   1.677 -0.5602 -0.0022  0.0350
  720PEP     CB25084   2.398  12.580   1.867  0.2204  0.0261  0.1770
  720PEP     CB25085   2.208  13.064   1.986  0.1248  0.3895 -0.0956
  720PEP     CB25086   2.206  13.544   2.037  0.3322  0.0885  0.0662
  720PEP     CB25087   2.385  14.057   2.261  0.4800  0.3172 -0.0706
  720PEP     CB25088   2.438  14.523   1.930  0.0794  0.1913 -0.1859
  720PEP     CB25089   2.433  14.375   1.503  0.0459  0.0221 -0.0200
  720PEP     CB25090   2.257  14.287   1.123 -0.0037  0.1581  0.2289
  720PEP     CB25091   2.180  14.177   0.763  0.0674  0.3378 -0.2333
  720PEP     CB25092   2.532  14.211   0.401 -0.3885  0.0970 -0.2566
  720PEP     CB25093   2.883  14.017   0.030  0.2450  0.2024 -0.1924
  720PEP     CB25094   2.786  13.690  -0.120 -0.3398 -0.4022  0.2898
  720PEP     CB25095   2.354  13.599  -0.219 -0.3792  0.1309 -0.1769
  720PEP     CB25096   1.923  13.587  -0.310 -0.1870 -0.2087 -0.1461
  720PEP     CB25097   1.519  13.717  -0.345 -0.2682  0.2142 -0.0315
  720PEP     CB25098   1.236  14.098  -0.416  0.2795 -0.1233 -0.0398
  720PEP     CB25099   0.961  14.484  -0.285  0.0191  0.0291  0.1645
  720PEP     CB25100   1.026  14.936  -0.312  0.1897  0.1904 -0.2186
  720PEP     CB25101   1.081  15.282  -0.244 -0.0920 -0.3794 -0.1378
  720PEP     CB25102   1.463  15.495  -0.024 -0.2615 -0.3435 -0.4631
  720PEP     CB25103   1.878  15.372   0.179 -0.3066  0.1978  0.1270
  720PEP     CB25104   2.255  15.275   0.274 -0.0893 -0.0708  0.5713
  720PEP     CB25105   2.628  15.023   0.456 -0.1260  0.0309 -0.2050
  720PEP     CB25106   2.631  14.733   0.699 -0.1925 -0.2657 -0.0481
  720PEP     CB25107   2.638  14.385   0.817  0.4412  0.1070  0.3174
  720PEP     CB25108   2.876  14.180   1.125  0.2186 -0.1758  0.1916
  720PEP     CB25109   2.777  13.957   1.438  0.1960  0.0079 -0.6467
  720PEP     CB25110   2.699  13.604   1.748 -0.2047  0.2808  0.3129
  720PEP     CB25111   2.623  13.264   2.077  0.0464 -0.1466 -0.2653
  720PEP     CB25112   2.714  12.879   2.119 -0.0223 -0.0058  0.2879
  720PEP     CB25113   2.879  12.456   2.083 -0.2143 -0.1397 -0.1693
  720PEP     CB25114   2.872  12.064   2.168 -0.1375  0.0045 -0.2143
  720PEP     CB25115   2.557  11.778   2.318 -0.4646  0.1135  0.2006
  720PEP     CB25116   2.379  11.784   2.649  0.1179 -0.2799 -0.3188
  720PEP     CB25117   2.173  11.874   3.000  0.1920  0.2066  0.0657
  720PEP     CB25118   1.952  11.954   3.353  0.2648  0.0022  0.0736
  720PEP     CB25119   1.669  12.286   3.473 -0.0964  0.0502 -0.3737
  720PEP     CB25120   1.627  12.580   3.717  0.1303 -0.2522  0.3493
  721PEP     CB25121   5.746   1.373  21.834 -0.0085 -0.1215 -0.1115
  721PEP     CB25122   6.034   1.293  22.136 -0.0487  0.1139  0.0430
  721PEP     CB25123   6.451   1.050  22.289 -0.2465 -0.0093  0.4091
  721PEP     CB25124   6.802   0.806  22.090  0.0351  0.1737  0.0334
  721PEP     CB25125   7.080   0.615  21.875  0.5161 -0.0697  0.1228
  721PEP     CB25126   7.292   0.200  22.017 -0.1800 -0.2299  0.1753
  721PEP     CB25127   7.049  -0.172  22.107  0.1383  0.1366  0.0905
  721PEP     CB25128   6.668  -0.126  22.160  0.2906 -0.5940 -0.1334
  721PEP     CB25129   6.311   0.185  22.113  0.0010  0.0261 -0.2621
  721PEP     CB25130   6.365   0.611  21.930  0.1776 -0.1099  0.3307
  721PEP     CB25131   6.499   0.962  21.733  0.0305  0.3009 -0.0832
  721PEP     CB25132   6.597   1.374  21.837  0.1671  0.3752  0.2922
  721PEP     CB25133   6.810   1.506  22.188  0.0312  0.0948  0.4623
  721PEP     CB25134   6.906   1.646  22.607 -0.1788  0.3208  0.2191
  721PEP     CB25135   6.955   1.934  22.968 -0.4839 -0.1745  0.0592
  721PEP     CB25136   6.922   2.285  23.197 -0.3146 -0.3208 -0.3693
  721PEP     CB25137   6.997   2.694  23.352  0.0006  0.0956 -0.1359
  721PEP     CB25138   7.141   2.960  23.736 -0.4434 -0.2157 -0.2013
  721PEP     CB25139   7.195   3.155  24.107 -0.3482 -0.1410 -0.1418
  721PEP     CB25140   7.044   3.328  24.499  0.0041  0.0644  0.4340
  721PEP     CB25141   6.870   3.271  24.921 -0.0240 -0.1686  0.3202
  721PEP     CB25142   6.801   3.234  25.346  0.3187  0.0982 -0.0150
  721PEP     CB25143   7.047   3.371  25.659  0.3963 -0.1988 -0.4308
  721PEP     CB25144   7.496   3.462  25.638 -0.1994  0.1320 -0.0998
  721PEP     CB25145   7.785   3.281  25.401  0.2000 -0.2496 -0.4964
  721PEP     CB25146   8.036   3.340  25.047 -0.3726  0.1984 -0.2469
  721PEP     CB25147   8.398   3.481  24.788  0.2251 -0.1682  0.4229
  721PEP     CB25148   8.551   3.408  24.346  0.3131 -0.0331  0.2844
  721PEP     CB25149   8.737   3.594  23.965 -0.0359  0.2009  0.0994
  721PEP     CB25150   8.458   3.740  23.604 -0.4683  0.4662 -0.0505
  721PEP     CB25151   8.188   3.541  23.385  0.0400 -0.0541 -0.0548
  721PEP     CB25152   7.823   3.350  23.259 -0.5398 -0.0379  0.0609
  721PEP     CB25153   7.519   3.199  23.637  0.0157  0.0667 -0.1653
  721PEP     CB25154   7.682   3.095  24.023 -0.1407 -0.0214  0.0681
  721PEP     CB25155   7.873   2.792  24.226 -0.3371  0.0730 -0.4895
  721PEP     CB25156   8.038   2.375  24.244 -0.0452  0.0217  0.0908
  721PEP     CB25157   8.201   1.896  24.191 -0.0118 -0.0222 -0.0966
  721PEP     CB25158   8.508   1.570  24.393  0.1779  0.1293  0.2711
  721PEP     CB25159   8.840   1.440  24.710  0.3225  0.1744  0.0075
  721PEP     CB25160   9.218   1.524  24.912  0.1921 -0.3036  0.2532
  722PEP     CB25161  19.715  20.401  17.055  0.2050 -0.0476 -0.1362
  722PEP     CB25162  19.672  20.167  17.385 -0.0612 -0.2676 -0.3266
  722PEP     CB25163  19.919  19.935  17.589  0.2342  0.3128 -0.1547
  722PEP     CB25164  20.121  19.924  17.879 -0.0342 -0.0388  0.0551
  722PEP     CB25165  20.084  20.205  18.228  0.4287 -0.1100 -0.3378
  722PEP     CB25166  19.775  20.467  18.325 -0.0744 -0.3015 -0.2600
  722PEP     CB25167  19.352  20.698  18.364 -0.0894  0.1184 -0.1472
  722PEP     CB25168  19.104  21.023  18.453  0.0190 -0.0401 -0.1357
  722PEP     CB25169  18.649  21.078  18.496 -0.1790 -0.0730 -0.3000
  722PEP     CB25170  18.357  21.399  18.574  0.0534  0.3023  0.0821
  722PEP     CB25171  18.343  21.883  18.500 -0.2813  0.1891 -0.2670
  722PEP     CB25172  18.644  22.150  18.768  0.2596  0.0359 -0.1448
  722PEP     CB25173  18.746  22.043  19.257 -0.0185 -0.1719 -0.0724
  722PEP     CB25174  18.938  22.062  19.678 -0.4821  0.1594  0.0696
  722PEP     CB25175  19.299  22.001  20.014  0.0007 -0.0710 -0.1040
  722PEP     CB25176  19.533  21.828  20.320 -0.0639  0.1623  0.0063
  722PEP     CB25177  19.615  21.428  20.472 -0.1000 -0.1811  0.3092
  722PEP     CB25178  19.560  21.046  20.587  0.6109  0.1023 -0.0244
  722PEP     CB25179  19.758  20.688  20.561 -0.4917 -0.2512 -0.1000
  722PEP     CB25180  20.244  20.376  20.536 -0.1444  0.0656  0.2237
  722PEP     CB25181  20.473  20.105  20.115 -0.0322  0.2391 -0.1646
  722PEP     CB25182  20.206  19.907  19.786  0.2493 -0.0841 -0.0220
  722PEP     CB25183  20.007  19.630  19.526  0.0373 -0.0464  0.0899
  722PEP     CB25184  20.161  19.180  19.441 -0.2414 -0.1766 -0.2299
  722PEP     CB25185  20.538  19.091  19.565  0.2964 -0.1088 -0.0727
  722PEP     CB25186  20.898  19.420  19.543 -0.1246  0.1045 -0.3811
  722PEP     CB25187  21.320  19.458  19.295  0.1107  0.2086  0.0451
  722PEP     CB25188  21.694  19.484  19.171  0.0233  0.0424  0.2237
  722PEP     CB25189  21.838  19.470  18.763  0.1728  0.0238  0.0951
  722PEP     CB25190  21.944  19.812  18.412 -0.2105  0.2630  0.3133
  722PEP     CB25191  22.212  20.210  18.386  0.1147  0.2863 -0.4775
  722PEP     CB25192  22.222  20.590  18.581 -0.1779 -0.1067 -0.0515
  722PEP     CB25193  22.484  20.838  18.822  0.2503  0.6048  0.0951
  722PEP     CB25194  22.939  20.827  18.776  0.1019  0.0418  0.2969
  722PEP     CB25195  23.108  21.083  18.379  0.1270 -0.0508  0.2140
  722PEP     CB25196  22.815  21.325  18.244 -0.2652 -0.0294 -0.0716
  722PEP     CB25197  22.367  21.350  18.092  0.2674 -0.0373 -0.3569
  722PEP     CB25198  22.011  21.522  17.984 -0.0434 -0.1173 -0.2280
  722PEP     CB25199  21.571  21.698  18.133  0.4243  0.0199 -0.0292
  722PEP     CB25200  21.145  21.681  18.365 -0.3015 -0.0282  0.0568
  723PEP     CB25201   2.380  21.041  20.345  0.3579  0.2084  0.0782
  723PEP     CB25202   2.712  21.251  20.578 -0.3796 -0.1368 -0.3324
  723PEP     CB25203   3.122  21.565  20.640 -0.0662 -0.2805  0.3657
  723PEP     CB25204   3.596  21.575  20.640  0.0547  0.1217  0.1420
  723PEP     CB25205   3.922  21.408  20.350 -0.3436 -0.2500 -0.1620
  723PEP     CB25206   4.114  21.059  20.411  0.4345 -0.0886  0.0666
  723PEP     CB25207   4.419  21.011  20.741 -0.1006  0.0576  0.0146
  723PEP     CB25208   4.670  21.323  20.960 -0.1025 -0.1956  0.1789
  723PEP     CB25209   5.054  21.607  21.024 -0.1692 -0.2014 -0.1207
  723PEP     CB25210   5.391  21.918  21.018 -0.0440  0.1594  0.2382
  723PEP     CB25211   5.649  22.219  21.225 -0.1177  0.2006 -0.1748
  723PEP     CB25212   5.646  22.622  21.345  0.0827 -0.4620 -0.1380
  723PEP     CB25213   5.472  23.028  21.558 -0.3739 -0.2591 -0.1367
  723PEP     CB25214   5.218  23.396  21.521 -0.1086  0.2098 -0.0583
  723PEP     CB25215   4.929  23.698  21.551 -0.1001 -0.3999 -0.1721
  723PEP     CB25216   4.701  24.029  21.761  0.1767  0.0318  0.0555
  723PEP     CB25217   4.828  24.527  21.816  0.1619  0.3290  0.1625
  723PEP     CB25218   4.798  24.982  21.745  0.0116 -0.4410  0.2420
  723PEP     CB25219   4.657  25.276  21.397  0.3933 -0.0803 -0.4827
  723PEP     CB25220   4.306  25.158  21.059 -0.1952 -0.0319 -0.3283
  723PEP     CB25221   4.039  24.862  20.954 -0.0808  0.1223  0.3939
  723PEP     CB25222   3.889  24.317  20.987  0.1019  0.1657 -0.4285
  723PEP     CB25223   3.668  23.956  20.875 -0.2049  0.2029 -0.3497
  723PEP     CB25224   3.700  23.561  21.009  0.2234  0.1881  0.2918
  723PEP     CB25225   3.943  23.224  21.236 -0.0996  0.2822 -0.3073
  723PEP     CB25226   4.115  22.967  21.516  0.0546 -0.0795 -0.2064
  723PEP     CB25227   4.447  22.614  21.549  0.0109 -0.1143  0.2000
  723PEP     CB25228   4.622  22.354  21.256 -0.1056  0.0682  0.0637
  723PEP     CB25229   4.904  22.166  20.856 -0.5433  0.2125  0.0998
  723PEP     CB25230   4.986  21.937  20.562  0.0628 -0.0025  0.1359
  723PEP     CB25231   5.358  21.721  20.383 -0.4586 -0.2204 -0.0640
  723PEP     CB25232   5.826  21.726  20.244  0.0213  0.0949 -0.0690
  723PEP     CB25233   6.008  21.931  20.005  0.2715 -0.3897  0.0860
  723PEP     CB25234   5.726  22.178  19.672 -0.1287 -0.0572 -0.2554
  723PEP     CB25235   5.324  22.481  19.668  0.6187 -0.4928  0.3270
  723PEP     CB25236   4.840  22.779  19.741 -0.0391 -0.0257 -0.1671
  723PEP     CB25237   4.753  23.137  19.666  0.1076  0.3708  0.1211
  723PEP     CB25238   4.979  23.510  19.605 -0.1524 -0.0570  0.1407
  723PEP     CB25239   5.123  23.856  19.702 -0.2143 -0.2898 -0.2629
  723PEP     CB25240   5.098  24.277  19.631  0.4068 -0.0849  0.2149
  724PEP     CB25241   2.882   0.309  16.189  0.0194 -0.2825  0.4127
  724PEP     CB25242   2.894  -0.090  16.315 -0.2008  0.1539 -0.0462
  724PEP     CB25243   2.834  -0.440  16.180 -0.1128 -0.1051 -0.0715
  724PEP     CB25244   2.674  -0.737  15.905  0.1493  0.2690 -0.3753
  724PEP     CB25245   2.423  -0.898  15.601  0.3991  0.1190 -0.1605
  724PEP     CB25246   2.084  -0.901  15.308 -0.1408  0.1765  0.1600
  724PEP     CB25247   1.967  -1.114  14.925 -0.0242  0.1250  0.0799
  724PEP     CB25248   2.046  -1.104  14.454 -0.1318  0.2194 -0.1493
  724PEP     CB25249   2.044  -0.782  14.112 -0.1347  0.1557 -0.0443
  724PEP     CB25250   1.942  -0.367  14.005 -0.1676 -0.2059 -0.1510
  724PEP     CB25251   1.510  -0.265  14.167 -0.3024 -0.5316 -0.2774
  724PEP     CB25252   1.077  -0.301  14.069 -0.0534 -0.2373  0.0654
  724PEP     CB25253   0.825  -0.019  13.821  0.0421  0.0003 -0.3230
  724PEP     CB25254   0.688  -0.001  13.367 -0.1307 -0.0922  0.0084
  724PEP     CB25255   0.553  -0.113  13.010  0.2367 -0.6443 -0.2280
  724PEP     CB25256   0.389  -0.266  12.600 -0.1687  0.0837  0.6058
  724PEP     CB25257   0.261  -0.591  12.295  0.2320  0.1751 -0.0154
  724PEP     CB25258   0.139  -0.956  11.990 -0.1166 -0.0324 -0.2736
  724PEP     CB25259   0.183  -1.374  11.776 -0.3192 -0.5178 -0.2739
  724PEP     CB25260  -0.046  -1.538  11.415 -0.1027 -0.2470 -0.0009
  724PEP     CB25261  -0.430  -1.842  11.409  0.3222 -0.4493  0.1616
  724PEP     CB25262  -0.849  -1.746  11.384  0.2743 -0.1241 -0.0052
  724PEP     CB25263  -1.213  -1.683  11.119 -0.3969  0.3080 -0.0126
  724PEP     CB25264  -1.324  -1.911  10.769 -0.1752 -0.2300 -0.0485
  724PEP     CB25265  -1.185  -2.306  10.733  0.3025 -0.1211 -0.0873
  724PEP     CB25266  -1.100  -2.736  10.545 -0.4189 -0.4949  0.1556
  724PEP     CB25267  -0.938  -3.022  10.477 -0.4966 -0.2948  0.2810
  724PEP     CB25268  -0.740  -3.158  10.122 -0.3944 -0.0340  0.0484
  724PEP     CB25269  -0.507  -2.959   9.822  0.3613  0.2916 -0.0885
  724PEP     CB25270  -0.480  -2.523   9.636  0.4119  0.0554  0.0992
  724PEP     CB25271  -0.846  -2.297   9.383  0.0718  0.0313 -0.0650
  724PEP     CB25272  -1.277  -2.425   9.119 -0.3188 -0.3681 -0.1653
  724PEP     CB25273  -1.736  -2.305   9.183  0.0944 -0.1217 -0.0431
  724PEP     CB25274  -2.191  -2.250   9.258 -0.0809  0.2378 -0.1002
  724PEP     CB25275  -2.584  -2.089   9.386 -0.3485 -0.1357  0.4597
  724PEP     CB25276  -2.847  -2.342   9.643  0.0481 -0.1935  0.0984
  724PEP     CB25277  -2.845  -2.285  10.115  0.1723 -0.1159 -0.0197
  724PEP     CB25278  -2.993  -2.210  10.496  0.0805 -0.3391  0.1088
  724PEP     CB25279  -2.903  -2.072  10.929 -0.1238 -0.0618  0.1579
  724PEP     CB25280  -2.738  -1.863  11.126 -0.1062 -0.3822  0.0247
  725PEP     CB25281   0.449   5.687   4.349 -0.1075 -0.1374  0.1764
  725PEP     CB25282   0.129   5.921   4.230 -0.2341  0.1136 -0.2750
  725PEP     CB25283  -0.045   6.259   4.349  0.0860 -0.4105  0.1593
  725PEP     CB25284  -0.198   6.620   4.518  0.0598  0.4914 -0.2886
  725PEP     CB25285  -0.224   7.013   4.705 -0.0968 -0.0913 -0.0779
  725PEP     CB25286  -0.236   7.419   4.759  0.0432 -0.0608 -0.2269
  725PEP     CB25287  -0.392   7.856   4.758  0.0568 -0.2861  0.2095
  725PEP     CB25288  -0.499   8.201   5.106  0.1784 -0.2674 -0.0349
  725PEP     CB25289  -0.496   8.285   5.536  0.4210  0.0458  0.1524
  725PEP     CB25290  -0.828   8.654   5.618  0.0411  0.1661 -0.3316
  725PEP     CB25291  -0.979   9.068   5.428  0.1390  0.3350  0.0047
  725PEP     CB25292  -1.208   9.459   5.480 -0.1413 -0.1874  0.0120
  725PEP     CB25293  -1.375   9.963   5.505  0.0639  0.4646  0.0504
  725PEP     CB25294  -1.513  10.362   5.414  0.5125 -0.0176  0.1278
  725PEP     CB25295  -1.562  10.599   5.033  0.1653  0.1232 -0.2901
  725PEP     CB25296  -1.571  10.340   4.664  0.3390  0.0857 -0.0630
  725PEP     CB25297  -1.517  10.181   4.264 -0.3562 -0.5376 -0.0812
  725PEP     CB25298  -1.151  10.114   3.910  0.2138 -0.0616  0.0848
  725PEP     CB25299  -1.206  10.267   3.514  0.1619  0.2342 -0.1980
  725PEP     CB25300  -1.564  10.450   3.257  0.3142  0.1973  0.0454
  725PEP     CB25301  -1.906  10.703   3.274 -0.2272  0.0996  0.1457
  725PEP     CB25302  -2.268  11.018   3.326 -0.1658 -0.0697  0.0056
  725PEP     CB25303  -2.725  11.010   3.326  0.1676  0.5239 -0.1458
  725PEP     CB25304  -2.961  10.752   3.182  0.0406  0.0325  0.3436
  725PEP     CB25305  -2.839  10.544   2.824  0.3714  0.1276  0.0950
  725PEP     CB25306  -2.420  10.654   2.718 -0.1031  0.0072 -0.0511
  725PEP     CB25307  -2.041  10.859   2.859 -0.0226  0.3552 -0.0124
  725PEP     CB25308  -1.608  10.939   2.870  0.3617 -0.2009  0.1098
  725PEP     CB25309  -1.351  10.990   3.223 -0.2108  0.2557  0.3996
  725PEP     CB25310  -1.086  11.179   3.474  0.1989 -0.1146  0.0424
  725PEP     CB25311  -0.684  11.293   3.506  0.0921  0.0150  0.3208
  725PEP     CB25312  -0.446  11.659   3.269 -0.0274  0.2009 -0.0777
  725PEP     CB25313  -0.081  11.761   2.915 -0.1152 -0.0329  0.0996
  725PEP     CB25314   0.198  11.513   2.793  0.1493 -0.1380 -0.3700
  725PEP     CB25315   0.430  11.234   3.092  0.2700 -0.2917  0.2059
  725PEP     CB25316   0.335  11.216   3.515 -0.1325  0.3329 -0.3600
  725PEP     CB25317   0.182  11.497   3.839  0.5372  0.1610  0.2155
  725PEP     CB25318  -0.133  11.800   3.757  0.0633  0.0195 -0.1028
  725PEP     CB25319  -0.547  12.000   3.900  0.2235 -0.0918  0.0812
  725PEP     CB25320  -0.983  12.047   4.067  0.6193  0.1330  0.1572
  726PEP     CB25321   0.800  11.921   4.166  0.1567 -0.1341  0.0706
  726PEP     CB25322   0.978  11.911   4.527  0.0284  0.3176  0.2711
  726PEP     CB25323   0.981  12.254   4.757 -0.2200 -0.0658 -0.0624
  726PEP     CB25324   1.045  12.734   4.775 -0.1736  0.0037 -0.1608
  726PEP     CB25325   0.859  13.158   4.845  0.2308  0.2111 -0.0137
  726PEP     CB25326   0.508  13.363   5.157  0.1535  0.1707  0.1515
  726PEP     CB25327   0.284  13.040   5.430  0.1311  0.0648  0.3391
  726PEP     CB25328  -0.049  12.828   5.304 -0.0157 -0.0229 -0.1846
  726PEP     CB25329  -0.339  13.056   5.012  0.0184  0.1178  0.0091
  726PEP     CB25330  -0.351  13.333   4.722  0.2714  0.1762  0.1503
  726PEP     CB25331  -0.291  13.456   4.327  0.1132  0.0185 -0.1965
  726PEP     CB25332  -0.348  13.795   4.051 -0.0676  0.0537 -0.3101
  726PEP     CB25333  -0.455  13.927   3.727  0.1333 -0.0220 -0.1454
  726PEP     CB25334  -0.593  13.986   3.328 -0.1577  0.1190  0.2329
  726PEP     CB25335  -0.748  13.711   2.997 -0.2355  0.1176 -0.1222
  726PEP     CB25336  -1.063  13.453   2.937  0.5328 -0.5394 -0.2171
  726PEP     CB25337  -1.494  13.460   2.933 -0.4370  0.0517  0.0706
  726PEP     CB25338  -1.820  13.455   3.044  0.0974  0.4020  0.1366
  726PEP     CB25339  -2.190  13.266   3.266  0.4396  0.0362 -0.3527
  726PEP     CB25340  -2.430  12.966   3.534  0.4155  0.1251 -0.3485
  726PEP     CB25341  -2.652  12.917   3.910 -0.1011 -0.0289 -0.2723
  726PEP     CB25342  -2.740  13.077   4.276  0.0839  0.3432 -0.0997
  726PEP     CB25343  -2.546  13.473   4.498 -0.2577  0.3803 -0.3116
  726PEP     CB25344  -2.134  13.541   4.645 -0.0987 -0.1269 -0.4513
  726PEP     CB25345  -1.814  13.350   4.591  0.3943  0.0040 -0.1431
  726PEP     CB25346  -1.497  13.492   4.356  0.1438 -0.1568  0.0070
  726PEP     CB25347  -1.216  13.791   4.569 -0.2802 -0.2357 -0.2984
  726PEP     CB25348  -1.016  14.105   4.711 -0.0878  0.2181  0.3027
  726PEP     CB25349  -0.891  14.506   4.544 -0.0988 -0.2253 -0.1651
  726PEP     CB25350  -0.731  14.807   4.281 -0.3043  0.0027  0.1938
  726PEP     CB25351  -0.344  14.845   4.072 -0.0620 -0.0152  0.5070
  726PEP     CB25352   0.032  14.610   4.186  0.0706  0.2232  0.0393
  726PEP     CB25353  -0.067  14.440   4.675  0.2386 -0.4117 -0.1992
  726PEP     CB25354  -0.501  14.478   4.783  0.2119 -0.2620 -0.1812
  726PEP     CB25355  -0.699  14.822   4.812  0.1098  0.0098 -0.1152
  726PEP     CB25356  -0.862  15.306   4.888  0.1070  0.3432  0.1819
  726PEP     CB25357  -1.271  15.480   4.856  0.0996 -0.0387  0.4291
  726PEP     CB25358  -1.609  15.146   4.975  0.1679  0.0564 -0.0796
  726PEP     CB25359  -1.709  14.735   5.040 -0.5717 -0.0494 -0.3340
  726PEP     CB25360  -1.934  14.393   5.076 -0.3593 -0.2907 -0.2347
  727PEP     CB25361  19.085   8.209   9.175 -0.0926  0.5222 -0.2040
  727PEP     CB25362  19.256   7.941   9.505 -0.2386 -0.0935 -0.4713
  727PEP     CB25363  19.373   7.861  10.022  0.4024 -0.1745 -0.0241
  727PEP     CB25364  19.518   7.975  10.393 -0.0512 -0.2404  0.0065
  727PEP     CB25365  19.308   7.938  10.869 -0.0546 -0.3834  0.1926
  727PEP     CB25366  18.901   7.835  11.198  0.0128  0.0398 -0.2572
  727PEP     CB25367  18.690   7.668  11.564  0.2938 -0.3112  0.1878
  727PEP     CB25368  18.611   7.228  11.634  0.3065  0.2945 -0.1922
  727PEP     CB25369  18.721   6.825  11.744  0.0712 -0.0826  0.1802
  727PEP     CB25370  18.558   6.492  12.102  0.2029  0.4439  0.2484
  727PEP     CB25371  18.326   6.409  12.532 -0.0100  0.1037 -0.2935
  727PEP     CB25372  18.297   6.015  12.735 -0.0933 -0.2962  0.4066
  727PEP     CB25373  18.303   5.667  13.020 -0.4138 -0.0658  0.1410
  727PEP     CB25374  18.378   5.271  13.155  0.1033 -0.0867  0.1964
  727PEP     CB25375  18.204   5.002  13.390  0.1035 -0.1982  0.1074
  727PEP     CB25376  18.109   4.645  13.096  0.0262  0.2341  0.0489
  727PEP     CB25377  18.201   4.552  12.701  0.0586 -0.0743 -0.0847
  727PEP     CB25378  18.444   4.554  12.312  0.1362 -0.2375 -0.3257
  727PEP     CB25379  18.288   4.479  11.940  0.2294 -0.2739  0.3412
  727PEP     CB25380  18.230   4.379  11.471  0.0651  0.0490  0.1074
  727PEP     CB25381  18.038   4.513  10.970 -0.0741  0.2140  0.3618
  727PEP     CB25382  17.818   4.581  10.571  0.1079  0.1799 -0.3660
  727PEP     CB25383  17.764   4.506  10.086  0.4972 -0.0523 -0.1229
  727PEP     CB25384  17.846   4.125   9.771 -0.1226  0.1881  0.2726
  727PEP     CB25385  17.934   3.732   9.787 -0.0761 -0.0765 -0.1776
  727PEP     CB25386  18.292   3.563  10.123  0.0499  0.0634 -0.0819
  727PEP     CB25387  18.468   3.847  10.479  0.4114 -0.3517  0.3329
  727PEP     CB25388  18.324   4.287  10.633  0.4844  0.0234 -0.2321
  727PEP     CB25389  18.358   4.837  10.614  0.0636 -0.0064  0.2801
  727PEP     CB25390  18.179   5.245  10.787 -0.0552  0.0616  0.2612
  727PEP     CB25391  18.213   5.625  10.745 -0.0235 -0.3088  0.2663
  727PEP     CB25392  18.624   5.823  10.611  0.0113  0.2243  0.1471
  727PEP     CB25393  19.032   5.829  10.423 -0.4041 -0.1386 -0.1339
  727PEP     CB25394  19.361   5.594  10.602 -0.1185 -0.1070 -0.0572
  727PEP     CB25395  19.384   5.287  10.843  0.1100  0.1296 -0.5722
  727PEP     CB25396  19.556   4.869  11.004  0.0769 -0.0059 -0.2735
  727PEP     CB25397  19.992   4.765  11.157 -0.0428 -0.0744  0.0423
  727PEP     CB25398  20.257   4.840  11.593 -0.2135  0.2045  0.2326
  727PEP     CB25399  20.363   5.185  11.991  0.2332  0.2580  0.1677
  727PEP     CB25400  20.362   5.352  12.387 -0.0827 -0.1783  0.2767
  728PEP     CB25401  18.708   1.773   8.492  0.0760  0.0995  0.4822
  728PEP     CB25402  19.043   1.673   8.727  0.0482  0.3526 -0.2658
  728PEP     CB25403  19.175   1.593   9.131 -0.0492  0.0974 -0.6394
  728PEP     CB25404  19.260   1.934   9.560 -0.1170  0.1521 -0.3084
  728PEP     CB25405  19.150   2.385   9.557  0.1606  0.0848 -0.1454
  728PEP     CB25406  18.727   2.459   9.374 -0.0816  0.0442 -0.1827
  728PEP     CB25407  18.502   2.652   8.937  0.0199  0.1444  0.1472
  728PEP     CB25408  18.418   2.567   8.449  0.1730  0.1360 -0.2954
  728PEP     CB25409  18.051   2.700   8.149 -0.1500 -0.2709 -0.0124
  728PEP     CB25410  17.696   2.816   8.365  0.1111 -0.0145  0.3105
  728PEP     CB25411  17.707   2.844   8.829  0.5647 -0.5143  0.0674
  728PEP     CB25412  17.558   2.678   9.222 -0.2209  0.3769  0.0770
  728PEP     CB25413  17.677   2.350   9.509 -0.0125 -0.2946  0.2708
  728PEP     CB25414  17.627   1.888   9.642 -0.4284  0.5738  0.2599
  728PEP     CB25415  17.566   1.446   9.813  0.1968  0.2065  0.0080
  728PEP     CB25416  17.273   1.152   9.898 -0.0418 -0.1464 -0.1257
  728PEP     CB25417  16.914   0.866  10.147  0.1056  0.2632 -0.2347
  728PEP     CB25418  16.770   0.542  10.200 -0.4161  0.0479 -0.6032
  728PEP     CB25419  16.799   0.212  10.467  0.0567 -0.2561  0.4637
  728PEP     CB25420  16.814  -0.150  10.688 -0.0564 -0.0057 -0.3896
  728PEP     CB25421  16.505  -0.294  10.951 -0.1832  0.0732 -0.1033
  728PEP     CB25422  16.117  -0.349  10.854  0.0131 -0.4188 -0.3717
  728PEP     CB25423  15.892  -0.270  10.496 -0.2581  0.1196  0.0276
  728PEP     CB25424  15.979   0.151  10.233 -0.0936  0.1437  0.2518
  728PEP     CB25425  16.169   0.590  10.446  0.0251  0.0152  0.1433
  728PEP     CB25426  16.565   0.707  10.649 -0.2517  0.1490  0.0591
  728PEP     CB25427  16.782   0.768  10.998  0.2686 -0.3314 -0.0390
  728PEP     CB25428  16.800   0.514  11.366  0.1761 -0.1333 -0.4289
  728PEP     CB25429  16.824   0.094  11.547 -0.2512 -0.3070  0.1892
  728PEP     CB25430  16.873  -0.371  11.417  0.1418  0.3365  0.4622
  728PEP     CB25431  17.174  -0.697  11.291  0.0643 -0.0418 -0.3462
  728PEP     CB25432  17.372  -0.789  10.922  0.1254 -0.0968  0.0240
  728PEP     CB25433  17.645  -0.611  10.657  0.1370 -0.1327 -0.1600
  728PEP     CB25434  17.672  -0.493  10.237 -0.2962  0.2073  0.1395
  728PEP     CB25435  17.522  -0.167   9.915  0.1584 -0.1898  0.3733
  728PEP     CB25436  17.578   0.217   9.800  0.1129  0.2279 -0.0801
  728PEP     CB25437  17.889   0.547   9.887 -0.1313 -0.2179  0.3784
  728PEP     CB25438  18.354   0.453  10.052  0.1368  0.2271 -0.0325
  728PEP     CB25439  18.701   0.337   9.881 -0.1510 -0.1728 -0.0799
  728PEP     CB25440  18.944   0.317   9.421 -0.2259  0.0347  0.4753
  729PEP     CB25441   7.951   7.750  15.465 -0.0826 -0.1000  0.1078
  729PEP     CB25442   8.004   7.405  15.578 -0.2939  0.2743 -0.2068
  729PEP     CB25443   7.960   7.077  15.901  0.4419  0.1177 -0.0342
  729PEP     CB25444   7.661   7.003  16.274  0.5017  0.2074  0.1033
  729PEP     CB25445   7.429   6.933  16.626 -0.0327 -0.1204 -0.1373
  729PEP     CB25446   7.528   6.869  17.038  0.1612  0.3625  0.0344
  729PEP     CB25447   7.533   6.732  17.441  0.1791  0.2217 -0.1584
  729PEP     CB25448   7.438   6.618  17.849  0.3983 -0.0314 -0.0138
  729PEP     CB25449   7.770   6.831  18.172 -0.2806  0.4901 -0.3039
  729PEP     CB25450   7.849   7.310  18.077 -0.0390 -0.4954  0.1740
  729PEP     CB25451   7.590   7.588  17.911  0.0524 -0.1587 -0.1504
  729PEP     CB25452   7.304   7.809  17.669  0.1678  0.1881 -0.0691
  729PEP     CB25453   6.933   8.043  17.553  0.0407  0.5987  0.2193
  729PEP     CB25454   6.626   8.285  17.210 -0.1142 -0.3664  0.0298
  729PEP     CB25455   6.599   8.621  16.868 -0.0088  0.1022 -0.3965
  729PEP     CB25456   6.732   8.620  16.417 -0.0002  0.1765 -0.1094
  729PEP     CB25457   6.861   8.982  16.207 -0.2293 -0.1831  0.1307
  729PEP     CB25458   6.871   9.399  16.493 -0.5269  0.2826  0.2136
  729PEP     CB25459   6.895   9.324  16.856  0.0579 -0.0363 -0.2174
  729PEP     CB25460   7.031   8.915  16.993  0.3496 -0.4463 -0.1130
  729PEP     CB25461   7.465   8.799  16.875 -0.1121  0.0977  0.1481
  729PEP     CB25462   7.595   8.968  16.602 -0.0339  0.1062  0.2411
  729PEP     CB25463   7.495   9.281  16.370  0.0289 -0.3718 -0.2516
  729PEP     CB25464   7.290   9.546  15.994 -0.0397  0.0691  0.0838
  729PEP     CB25465   7.098   9.418  15.531 -0.0140 -0.3497 -0.0271
  729PEP     CB25466   6.834   9.286  15.233  0.1257  0.0140  0.1058
  729PEP     CB25467   6.560   8.949  15.108 -0.2664  0.4513 -0.0351
  729PEP     CB25468   6.396   8.621  14.907  0.2894  0.0604  0.1647
  729PEP     CB25469   6.271   8.500  14.555 -0.0319  0.1830 -0.0095
  729PEP     CB25470   6.056   8.701  14.191  0.1092 -0.0571 -0.2029
  729PEP     CB25471   6.064   9.161  14.042 -0.2890  0.3056 -0.2536
  729PEP     CB25472   6.099   9.559  14.291 -0.1786 -0.0212 -0.3708
  729PEP     CB25473   6.168   9.874  14.146 -0.0471  0.1963 -0.0613
  729PEP     CB25474   6.036  10.081  13.812  0.0372 -0.4258 -0.0596
  729PEP     CB25475   5.604  10.229  13.705 -0.2018  0.0484  0.0360
  729PEP     CB25476   5.281  10.539  13.698  0.1869 -0.0076  0.4996
  729PEP     CB25477   5.468  10.987  13.780  0.1946 -0.1491  0.1989
  729PEP     CB25478   5.931  11.037  13.764  0.1762  0.3209  0.2002
  729PEP     CB25479   6.238  10.697  13.711 -0.2665 -0.6110  0.2036
  729PEP     CB25480   6.260  10.416  13.345  0.2502 -0.3212 -0.1843
  730PEP     CB25481  11.591   2.339   8.526 -0.1723  0.0213 -0.0891
  730PEP     CB25482  11.252   1.974   8.488  0.1433 -0.1753  0.4028
  730PEP     CB25483  11.044   1.735   8.181 -0.1383 -0.3357  0.2053
  730PEP     CB25484  10.730   1.750   7.922 -0.1509  0.1416  0.0587
  730PEP     CB25485  10.356   1.941   7.837  0.0600 -0.1614 -0.0399
  730PEP     CB25486   9.962   1.897   7.648 -0.0952 -0.1632 -0.2184
  730PEP     CB25487   9.595   1.673   7.658 -0.2157  0.1112  0.5089
  730PEP     CB25488   9.342   1.350   7.710 -0.1653  0.1773  0.0931
  730PEP     CB25489   8.987   1.018   7.726 -0.2041  0.0600 -0.0241
  730PEP     CB25490   8.583   1.039   7.887  0.1590 -0.0170  0.1539
  730PEP     CB25491   8.136   1.079   7.784  0.0822  0.0375  0.0773
  730PEP     CB25492   7.787   1.223   7.664 -0.0561  0.2232  0.2545
  730PEP     CB25493   7.640   1.533   7.560  0.0223 -0.1949  0.2731
  730PEP     CB25494   7.287   1.739   7.288 -0.4848 -0.1914 -0.0025
  730PEP     CB25495   6.862   1.771   7.355  0.1437 -0.2962  0.6925
  730PEP     CB25496   6.390   1.802   7.236  0.2347  0.0078  0.1186
  730PEP     CB25497   6.011   1.677   7.095 -0.0179 -0.0784  0.0492
  730PEP     CB25498   5.678   1.999   7.020 -0.0891 -0.2498  0.1364
  730PEP     CB25499   5.732   2.277   6.619 -0.0878  0.0682  0.3221
  730PEP     CB25500   6.138   2.295   6.415 -0.0330  0.6114  0.0684
  730PEP     CB25501   6.395   2.477   6.108 -0.1323 -0.2633 -0.1990
  730PEP     CB25502   6.255   2.698   5.909 -0.0430  0.1707 -0.1620
  730PEP     CB25503   5.878   2.997   6.152  0.2367 -0.2225 -0.1348
  730PEP     CB25504   5.802   2.907   6.632 -0.1711  0.0647  0.0276
  730PEP     CB25505   6.040   2.958   7.053 -0.3508 -0.1017  0.2568
  730PEP     CB25506   6.308   3.315   7.217 -0.1393 -0.3110  0.3155
  730PEP     CB25507   6.112   3.789   7.352  0.1403 -0.0212 -0.1546
  730PEP     CB25508   5.765   4.053   7.621  0.1553 -0.1714  0.4295
  730PEP     CB25509   5.387   4.144   7.906  0.1104 -0.1604 -0.3984
  730PEP     CB25510   5.036   4.028   8.246  0.0339 -0.1046 -0.0273
  730PEP     CB25511   4.844   4.203   8.494 -0.0677 -0.3116  0.0453
  730PEP     CB25512   4.447   4.480   8.576  0.0976 -0.2229 -0.0066
  730PEP     CB25513   4.086   4.516   8.781 -0.1383 -0.0811  0.0076
  730PEP     CB25514   3.823   4.727   9.046 -0.0890  0.0996 -0.1841
  730PEP     CB25515   3.400   4.787   9.064 -0.2853 -0.1368  0.1100
  730PEP     CB25516   3.239   5.052   9.484 -0.0319  0.0901  0.3492
  730PEP     CB25517   3.492   5.388   9.762 -0.1655  0.1642  0.1364
  730PEP     CB25518   3.653   5.638   9.504  0.1318  0.1800 -0.1263
  730PEP     CB25519   3.469   5.861   9.150  0.2978 -0.2493  0.2110
  730PEP     CB25520   3.375   6.095   8.834 -0.1093  0.2604 -0.0018
  731PEP     CB25521   1.716   6.504  13.332  0.1690  0.3685  0.0583
  731PEP     CB25522   2.153   6.240  13.262 -0.0669 -0.0947  0.1882
  731PEP     CB25523   2.534   5.970  13.128 -0.0936 -0.2587 -0.0373
  731PEP     CB25524   2.677   5.543  13.018  0.0452  0.1057 -0.5771
  731PEP     CB25525   2.633   5.112  12.896 -0.2625  0.4807 -0.3117
  731PEP     CB25526   2.479   4.784  12.648  0.0784 -0.0398  0.1244
  731PEP     CB25527   2.071   4.597  12.777  0.1340 -0.0665 -0.0864
  731PEP     CB25528   1.722   4.716  12.883  0.3521  0.1080  0.0486
  731PEP     CB25529   1.324   4.680  12.990 -0.1917 -0.1245 -0.5124
  731PEP     CB25530   0.940   4.761  13.398 -0.1201  0.1536 -0.3859
  731PEP     CB25531   0.750   4.911  13.770 -0.0707  0.0713 -0.0364
  731PEP     CB25532   0.892   5.198  13.972  0.0733 -0.2787 -0.1453
  731PEP     CB25533   0.983   5.562  13.887 -0.3474  0.0915 -0.4029
  731PEP     CB25534   0.927   5.933  13.759  0.2312 -0.1494  0.2282
  731PEP     CB25535   0.759   6.298  13.569 -0.1833  0.2667  0.2053
  731PEP     CB25536   0.612   6.608  13.378  0.0500  0.2892 -0.3159
  731PEP     CB25537   0.513   7.092  13.334  0.2185  0.3287  0.0601
  731PEP     CB25538   0.727   7.385  13.105  0.0542 -0.0624  0.3088
  731PEP     CB25539   1.048   7.733  13.011  0.2002  0.1769 -0.2170
  731PEP     CB25540   1.275   8.103  13.186 -0.1923 -0.1155  0.1557
  731PEP     CB25541   1.315   8.472  13.465 -0.1579  0.4238 -0.0389
  731PEP     CB25542   1.314   8.905  13.719  0.2749 -0.4010 -0.0146
  731PEP     CB25543   1.414   9.311  13.643 -0.0307 -0.0579  0.3568
  731PEP     CB25544   1.811   9.454  13.338 -0.2359 -0.2376  0.3671
  731PEP     CB25545   1.802   9.796  13.031  0.5858  0.2374 -0.7668
  731PEP     CB25546   1.566  10.214  12.944 -0.0403  0.0661  0.4014
  731PEP     CB25547   1.195  10.297  12.815 -0.0994 -0.3139  0.0073
  731PEP     CB25548   1.183  10.032  12.385 -0.6571 -0.0183 -0.0976
  731PEP     CB25549   1.484   9.884  12.047  0.1460  0.3954  0.1197
  731PEP     CB25550   1.566   9.923  11.564 -0.1236  0.3131 -0.0904
  731PEP     CB25551   1.915  10.099  11.394  0.2874 -0.0269 -0.4652
  731PEP     CB25552   2.290   9.997  11.589 -0.1868  0.0431 -0.4419
  731PEP     CB25553   2.552  10.018  11.918 -0.1733  0.1147 -0.0745
  731PEP     CB25554   2.677  10.144  12.326  0.2231  0.4786  0.1139
  731PEP     CB25555   2.673  10.344  12.771  0.3615 -0.1430 -0.2861
  731PEP     CB25556   2.671  10.875  12.887  0.1111 -0.3280  0.0151
  731PEP     CB25557   2.535  11.208  12.945  0.1700  0.6244 -0.0840
  731PEP     CB25558   2.079  11.450  12.998 -0.0534  0.4518 -0.0539
  731PEP     CB25559   1.628  11.512  13.035  0.4096 -0.2836 -0.1320
  731PEP     CB25560   1.281  11.584  13.240  0.2050  0.3248  0.0691
  732PEP     CB25561   5.562  20.408  12.905 -0.0151  0.1388 -0.0908
  732PEP     CB25562   5.956  20.574  12.889  0.4597  0.1712  0.0575
  732PEP     CB25563   6.427  20.506  12.840  0.1325  0.2749 -0.0136
  732PEP     CB25564   6.677  20.153  12.712 -0.2433 -0.1386  0.1673
  732PEP     CB25565   6.650  19.798  12.965 -0.5468 -0.0919 -0.3519
  732PEP     CB25566   6.275  19.653  13.047  0.0092  0.0771 -0.0766
  732PEP     CB25567   6.082  19.204  13.150  0.0821  0.1444 -0.1422
  732PEP     CB25568   5.908  18.804  13.148  0.1662  0.1456 -0.3750
  732PEP     CB25569   5.691  18.403  13.126  0.2211  0.2366 -0.0665
  732PEP     CB25570   5.699  18.090  12.839 -0.1761 -0.6522  0.2274
  732PEP     CB25571   5.451  17.714  12.753  0.4043 -0.3321  0.0224
  732PEP     CB25572   5.423  17.513  12.344  0.2503  0.2165 -0.0384
  732PEP     CB25573   5.636  17.349  12.040  0.2558  0.5193  0.0838
  732PEP     CB25574   5.754  17.435  11.635 -0.1376 -0.1686 -0.1942
  732PEP     CB25575   5.971  17.471  11.225  0.0288 -0.1578  0.0135
  732PEP     CB25576   6.137  17.914  11.066 -0.3619 -0.2784 -0.0473
  732PEP     CB25577   6.301  18.290  10.942 -0.1849  0.1253 -0.4134
  732PEP     CB25578   6.350  18.555  10.547  0.1102  0.0629  0.2719
  732PEP     CB25579   6.023  18.539  10.159  0.2462 -0.1818 -0.4523
  732PEP     CB25580   5.570  18.534  10.043  0.1079  0.4766  0.0324
  732PEP     CB25581   5.310  18.848   9.921 -0.2717  0.2249 -0.0336
  732PEP     CB25582   5.149  19.229  10.107  0.4764 -0.1275  0.2313
  732PEP     CB25583   5.020  19.202  10.518 -0.3095  0.1902  0.1603
  732PEP     CB25584   4.951  18.794  10.645  0.0067  0.1737 -0.1539
  732PEP     CB25585   5.179  18.538  10.370  0.0506  0.0438  0.4069
  732PEP     CB25586   5.000  18.473   9.971  0.1613  0.0167  0.2438
  732PEP     CB25587   4.828  18.792   9.775  0.0007  0.4704  0.0066
  732PEP     CB25588   4.948  19.151   9.681 -0.0971 -0.0849 -0.2168
  732PEP     CB25589   4.893  19.425   9.439  0.0693  0.2823  0.4095
  732PEP     CB25590   4.597  19.716   9.330 -0.4967  0.4998  0.5774
  732PEP     CB25591   4.183  19.797   9.133 -0.3936  0.1032  0.4927
  732PEP     CB25592   3.855  19.998   9.076 -0.1024  0.3942 -0.0043
  732PEP     CB25593   3.501  20.053   9.247 -0.3750  0.2579 -0.4405
  732PEP     CB25594   3.066  20.024   9.334 -0.1938  0.0273 -0.0145
  732PEP     CB25595   2.734  19.717   9.314 -0.0707  0.1547 -0.3165
  732PEP     CB25596   2.450  19.570   9.006 -0.3724  0.0473 -0.3756
  732PEP     CB25597   2.114  19.401   8.913  0.2531  0.5102  0.0403
  732PEP     CB25598   1.767  19.136   8.681  0.0606 -0.0521 -0.4011
  732PEP     CB25599   1.652  18.693   8.513  0.1309  0.2711  0.1316
  732PEP     CB25600   1.596  18.351   8.150 -0.0258 -0.2730 -0.1041
  733PEP     CB25601   0.263  18.508   7.602  0.1406  0.1407  0.3906
  733PEP     CB25602   0.677  18.364   7.251  0.7318  0.2508  0.3133
  733PEP     CB25603   1.039  18.550   7.091 -0.0077  0.0750 -0.2034
  733PEP     CB25604   1.418  18.621   7.205  0.3396 -0.0447 -0.4394
  733PEP     CB25605   1.712  18.923   7.144  0.1275  0.3915 -0.2178
  733PEP     CB25606   2.119  18.879   7.267  0.5860  0.0668  0.0192
  733PEP     CB25607   2.492  18.971   7.269 -0.0873 -0.0719  0.1268
  733PEP     CB25608   2.927  18.948   7.365  0.3885 -0.1391 -0.3858
  733PEP     CB25609   3.291  18.580   7.523 -0.1070  0.2626 -0.2850
  733PEP     CB25610   3.774  18.421   7.391  0.6088 -0.2389 -0.1968
  733PEP     CB25611   4.286  18.369   7.289  0.0805  0.3142 -0.1950
  733PEP     CB25612   4.482  18.219   6.921  0.0655  0.0597  0.3998
  733PEP     CB25613   4.639  18.080   6.552  0.3032 -0.0992 -0.4374
  733PEP     CB25614   4.636  17.831   6.199 -0.4269  0.1018 -0.0412
  733PEP     CB25615   4.510  17.649   5.830 -0.1012  0.0974 -0.5421
  733PEP     CB25616   4.364  17.217   5.674 -0.0913  0.0831 -0.0960
  733PEP     CB25617   4.361  16.853   5.548 -0.2846  0.2039 -0.1504
  733PEP     CB25618   4.322  16.504   5.865  0.0731  0.2188 -0.0465
  733PEP     CB25619   4.616  16.314   6.125  0.0978  0.1470  0.1352
  733PEP     CB25620   5.024  16.202   6.265  0.1054 -0.2066 -0.0206
  733PEP     CB25621   5.326  15.994   6.337 -0.6152 -0.2191  0.0356
  733PEP     CB25622   5.452  15.725   6.673 -0.3877 -0.2342 -0.2565
  733PEP     CB25623   5.788  15.634   6.992  0.1097 -0.2034 -0.1731
  733PEP     CB25624   6.068  15.927   7.197  0.0610  0.0200  0.1527
  733PEP     CB25625   6.503  16.069   7.379 -0.2150 -0.0595 -0.0609
  733PEP     CB25626   6.802  16.399   7.387 -0.1179 -0.3407 -0.1527
  733PEP     CB25627   7.049  16.815   7.442 -0.1304  0.0297 -0.2437
  733PEP     CB25628   7.444  16.898   7.238  0.0254 -0.2228 -0.2234
  733PEP     CB25629   7.863  17.041   7.220  0.0572 -0.1737  0.2933
  733PEP     CB25630   8.317  17.339   7.129 -0.4564  0.0607  0.1226
  733PEP     CB25631   8.780  17.272   7.269  0.0658  0.4787 -0.4466
  733PEP     CB25632   8.901  16.858   7.543  0.2949 -0.1225  0.0038
  733PEP     CB25633   9.189  16.841   7.809  0.2892 -0.1680  0.1072
  733PEP     CB25634   9.673  17.116   7.746  0.0339  0.2441 -0.5857
  733PEP     CB25635   9.936  17.139   7.343 -0.1261  0.0287  0.0893
  733PEP     CB25636   9.733  17.108   6.908 -0.0272 -0.3045  0.1843
  733PEP     CB25637   9.575  16.790   6.713 -0.1821  0.1743  0.0530
  733PEP     CB25638   9.459  16.366   6.671  0.1032 -0.0295 -0.1358
  733PEP     CB25639   9.336  15.939   6.777 -0.1321 -0.1233 -0.4467
  733PEP     CB25640   9.116  15.448   6.818  0.1025 -0.1393  0.2058
  734PEP     CB25641   0.656  17.881  17.961 -0.0942 -0.1382 -0.1695
  734PEP     CB25642   0.810  18.258  18.048  0.4628 -0.3718 -0.1336
  734PEP     CB25643   0.651  18.564  18.229 -0.0815 -0.2745  0.1031
  734PEP     CB25644   0.201  18.682  18.391  0.1428 -0.0466  0.1155
  734PEP     CB25645  -0.058  18.375  18.601 -0.1897 -0.0833  0.2523
  734PEP     CB25646   0.121  18.013  18.864 -0.0810  0.0524 -0.0994
  734PEP     CB25647   0.441  17.961  19.146  0.0737  0.6200  0.1882
  734PEP     CB25648   0.910  18.229  19.393 -0.0154  0.5770  0.3174
  734PEP     CB25649   1.346  18.203  19.311  0.1114 -0.3871 -0.0105
  734PEP     CB25650   1.486  18.486  19.070 -0.0840  0.1127  0.1281
  734PEP     CB25651   1.626  18.576  18.667 -0.4129  0.3601  0.2292
  734PEP     CB25652   1.599  18.824  18.469 -0.1238 -0.0516 -0.0719
  734PEP     CB25653   1.344  19.124  18.462  0.2151  0.1266 -0.1004
  734PEP     CB25654   1.093  19.288  18.852 -0.1346 -0.3298 -0.2633
  734PEP     CB25655   1.135  19.376  19.318 -0.2062  0.2289  0.3392
  734PEP     CB25656   1.331  19.726  19.662  0.0434 -0.3157  0.1932
  734PEP     CB25657   1.537  20.080  19.824 -0.2773 -0.5051 -0.2087
  734PEP     CB25658   1.820  20.466  19.680  0.1783  0.2004  0.1535
  734PEP     CB25659   1.875  20.741  19.282  0.2295  0.0975 -0.2546
  734PEP     CB25660   2.055  21.134  19.118 -0.0051  0.1298 -0.1213
  734PEP     CB25661   2.160  21.609  19.344 -0.2298 -0.0621  0.3796
  734PEP     CB25662   1.881  21.772  19.741 -0.1062 -0.0478  0.2284
  734PEP     CB25663   1.897  21.838  20.152 -0.0556 -0.0220  0.1283
  734PEP     CB25664   2.183  21.908  20.519 -0.1877 -0.1141 -0.1788
  734PEP     CB25665   2.572  21.934  20.451 -0.0489 -0.3575  0.1118
  734PEP     CB25666   3.072  22.040  20.405 -0.1262 -0.1932  0.1790
  734PEP     CB25667   3.408  22.220  20.699  0.3399  0.0900 -0.2217
  734PEP     CB25668   3.564  22.620  20.961  0.1676  0.1866 -0.1425
  734PEP     CB25669   3.911  22.796  20.948  0.0025 -0.0381  0.1955
  734PEP     CB25670   3.913  23.158  20.649  0.2625 -0.3992 -0.3006
  734PEP     CB25671   3.574  23.356  20.427  0.0494  0.1099  0.0386
  734PEP     CB25672   3.175  23.522  20.618 -0.2371  0.2547  0.0695
  734PEP     CB25673   3.153  23.531  21.084 -0.0832  0.1310 -0.0073
  734PEP     CB25674   3.244  23.264  21.420 -0.1927  0.6100 -0.2287
  734PEP     CB25675   3.135  22.980  21.688 -0.0868  0.0760  0.4173
  734PEP     CB25676   2.822  22.733  21.954  0.3341  0.0964  0.1212
  734PEP     CB25677   2.426  22.682  22.295  0.1471 -0.0567 -0.1382
  734PEP     CB25678   2.413  22.684  22.703  0.0241  0.2549  0.2744
  734PEP     CB25679   2.791  22.787  22.966  0.0308 -0.1677  0.0148
  734PEP     CB25680   3.290  22.798  22.890  0.3649 -0.0378 -0.2949
  735PEP     CB25681   0.328  12.458   5.239  0.0129  0.2350 -0.4306
  735PEP     CB25682   0.040  12.127   5.037  0.0406 -0.0404 -0.1857
  735PEP     CB25683   0.038  11.875   4.647 -0.0719 -0.2596  0.1083
  735PEP     CB25684   0.291  11.939   4.330  0.6364  0.0006 -0.2613
  735PEP     CB25685   0.588  12.335   4.450 -0.0687  0.1153 -0.0054
  735PEP     CB25686   0.581  12.538   4.861 -0.2241 -0.1092  0.3442
  735PEP     CB25687   0.683  12.783   5.201 -0.1404 -0.2144 -0.0577
  735PEP     CB25688   0.784  12.998   5.496  0.1705  0.2283  0.2807
  735PEP     CB25689   0.911  13.154   5.923 -0.0577 -0.0261  0.5695
  735PEP     CB25690   1.049  12.816   6.211  0.1604  0.4027 -0.1226
  735PEP     CB25691   1.083  12.326   6.116 -0.3721  0.0857  0.4501
  735PEP     CB25692   1.038  12.109   5.763  0.2924  0.2940  0.0714
  735PEP     CB25693   1.067  11.766   5.466 -0.1521 -0.0636  0.4424
  735PEP     CB25694   1.022  11.346   5.349  0.2071 -0.1378  0.0389
  735PEP     CB25695   1.166  10.883   5.461  0.0580 -0.2891  0.1540
  735PEP     CB25696   1.199  10.543   5.134  0.1439  0.1969 -0.0363
  735PEP     CB25697   1.329  10.250   4.802 -0.0063 -0.0281  0.3356
  735PEP     CB25698   1.525   9.917   4.751 -0.1015 -0.2275  0.1817
  735PEP     CB25699   1.569   9.528   4.874  0.1508 -0.4089  0.2283
  735PEP     CB25700   1.702   9.157   4.721  0.3278 -0.2714 -0.1446
  735PEP     CB25701   1.856   8.773   4.456 -0.3952  0.3217 -0.0246
  735PEP     CB25702   1.771   8.403   4.204 -0.2321 -0.5256  0.1475
  735PEP     CB25703   1.713   7.934   4.040 -0.4126 -0.2482 -0.5078
  735PEP     CB25704   2.041   7.608   4.124 -0.0040 -0.5260  0.2499
  735PEP     CB25705   2.405   7.706   4.447 -0.0255  0.3124 -0.4792
  735PEP     CB25706   2.422   8.070   4.848  0.4329 -0.0904  0.0697
  735PEP     CB25707   2.467   8.325   5.200  0.0532  0.1358 -0.1733
  735PEP     CB25708   2.534   8.472   5.633 -0.1195 -0.1093  0.5875
  735PEP     CB25709   2.419   8.746   5.874  0.3672  0.1827 -0.1781
  735PEP     CB25710   2.416   9.238   5.960  0.1285  0.2069  0.2898
  735PEP     CB25711   2.399   9.762   6.104  0.1675 -0.2571  0.1453
  735PEP     CB25712   2.425  10.118   6.268 -0.1365 -0.0456  0.0764
  735PEP     CB25713   2.653  10.422   6.303  0.4507  0.1761 -0.6866
  735PEP     CB25714   2.942  10.592   6.143  0.5601 -0.1573  0.3229
  735PEP     CB25715   3.157  10.421   5.894  0.3432 -0.2075 -0.1888
  735PEP     CB25716   3.585  10.239   5.923  0.0469  0.0881  0.0111
  735PEP     CB25717   3.967  10.528   6.189  0.1592  0.0758 -0.2002
  735PEP     CB25718   3.818  10.844   6.495  0.0450  0.0092 -0.0447
  735PEP     CB25719   3.511  10.940   6.767  0.0534  0.2765  0.3919
  735PEP     CB25720   3.197  10.953   7.017  0.2683 -0.1644  0.1720
  736PEP     CB25721   1.806  17.074  18.810 -0.5993  0.0987  0.0291
  736PEP     CB25722   2.115  16.807  19.026  0.2854  0.2912 -0.1658
  736PEP     CB25723   2.523  16.604  19.049 -0.1944  0.2585 -0.1114
  736PEP     CB25724   2.640  16.271  18.798 -0.1247 -0.1594 -0.1347
  736PEP     CB25725   2.558  16.233  18.404  0.4690  0.2963  0.1846
  736PEP     CB25726   2.312  16.116  17.990  0.0695 -0.2513  0.1912
  736PEP     CB25727   2.054  15.851  17.721  0.0900 -0.0962 -0.4979
  736PEP     CB25728   1.678  15.650  17.650  0.2057  0.1243 -0.3346
  736PEP     CB25729   1.417  15.598  17.311  0.1866  0.0769 -0.0130
  736PEP     CB25730   1.285  15.788  16.966  0.0420 -0.3570  0.0593
  736PEP     CB25731   1.348  15.977  16.564  0.2502  0.4363 -0.1133
  736PEP     CB25732   1.384  16.255  16.154 -0.3048 -0.3227 -0.1575
  736PEP     CB25733   1.596  16.687  16.138 -0.0249  0.1180 -0.2655
  736PEP     CB25734   2.095  16.718  16.132  0.4369  0.1817  0.4992
  736PEP     CB25735   2.316  16.505  16.436 -0.2389 -0.6990  0.1205
  736PEP     CB25736   2.609  16.395  16.646  0.0131  0.2222  0.1561
  736PEP     CB25737   2.974  16.295  16.806  0.0553 -0.1347 -0.2572
  736PEP     CB25738   3.349  16.551  16.917 -0.2917 -0.3551 -0.3255
  736PEP     CB25739   3.411  16.993  16.944 -0.1864  0.0184 -0.2923
  736PEP     CB25740   3.621  17.409  17.102 -0.1932 -0.0513 -0.0958
  736PEP     CB25741   3.772  17.753  16.828  0.2903 -0.2916  0.0079
  736PEP     CB25742   3.992  18.064  16.926  0.2201  0.0776  0.3126
  736PEP     CB25743   4.170  18.267  17.278  0.3052 -0.0069  0.0466
  736PEP     CB25744   4.606  18.221  17.482 -0.0637 -0.2114  0.1766
  736PEP     CB25745   4.767  17.758  17.508  0.0885 -0.0214  0.0792
  736PEP     CB25746   4.727  17.387  17.184  0.5059 -0.1074  0.0368
  736PEP     CB25747   4.562  17.297  16.745  0.3591 -0.2313 -0.0237
  736PEP     CB25748   4.496  17.414  16.338 -0.3343 -0.0024 -0.2672
  736PEP     CB25749   4.213  17.566  16.002 -0.1372 -0.1393  0.4256
  736PEP     CB25750   3.887  17.762  15.810 -0.2165  0.2283  0.0241
  736PEP     CB25751   3.539  18.080  15.908  0.0283 -0.1510 -0.2707
  736PEP     CB25752   3.301  18.249  16.226 -0.3133 -0.0654 -0.0905
  736PEP     CB25753   2.987  18.527  16.322 -0.0755 -0.0427 -0.1325
  736PEP     CB25754   2.902  19.001  16.118  0.5385 -0.0785  0.0393
  736PEP     CB25755   2.799  19.030  15.691  0.0913  0.0746 -0.1855
  736PEP     CB25756   3.096  18.778  15.486 -0.3401 -0.3536 -0.0642
  736PEP     CB25757   3.515  18.666  15.679  0.3772  0.2050 -0.0574
  736PEP     CB25758   3.575  18.766  16.095  0.1847 -0.7039  0.1169
  736PEP     CB25759   3.342  19.113  16.381 -0.1004 -0.0025  0.3440
  736PEP     CB25760   3.063  19.411  16.439 -0.1151 -0.2523  0.3271
  737PEP     CB25761   2.928  17.439   6.177 -0.0043 -0.3707  0.2508
  737PEP     CB25762   2.753  17.438   5.743  0.0927  0.1573 -0.5083
  737PEP     CB25763   2.809  17.193   5.282 -0.0977 -0.6370 -0.0586
  737PEP     CB25764   2.707  17.155   4.810 -0.1996 -0.0425 -0.2793
  737PEP     CB25765   2.309  16.911   4.637  0.0152  0.0150  0.1837
  737PEP     CB25766   1.971  16.726   4.837  0.1519  0.3512 -0.0803
  737PEP     CB25767   1.696  16.428   5.044 -0.1390 -0.1269  0.2641
  737PEP     CB25768   1.528  16.229   5.372 -0.1417  0.1124 -0.0556
  737PEP     CB25769   1.627  16.297   5.835 -0.0137 -0.1001  0.0197
  737PEP     CB25770   1.436  16.442   6.310  0.2893  0.3200 -0.4671
  737PEP     CB25771   1.395  16.385   6.804  0.3479  0.2881 -0.0911
  737PEP     CB25772   1.631  16.281   7.203 -0.1318 -0.0334  0.2498
  737PEP     CB25773   1.516  16.442   7.616 -0.2479 -0.0096  0.1003
  737PEP     CB25774   1.820  16.642   7.933 -0.2423  0.2151  0.4356
  737PEP     CB25775   2.237  16.553   7.910  0.1629 -0.3575 -0.1452
  737PEP     CB25776   2.549  16.652   7.667  0.3453  0.0204 -0.3171
  737PEP     CB25777   2.584  16.782   7.287  0.0776 -0.0121  0.1893
  737PEP     CB25778   2.330  16.916   7.056  0.1033 -0.1478 -0.2219
  737PEP     CB25779   2.206  17.387   6.789  0.0558  0.0457  0.3368
  737PEP     CB25780   2.031  17.673   6.490 -0.0948  0.2893 -0.3383
  737PEP     CB25781   1.625  17.860   6.198 -0.0695 -0.0834  0.1109
  737PEP     CB25782   1.309  18.060   6.416  0.1110 -0.1111 -0.5934
  737PEP     CB25783   1.253  18.390   6.686  0.2269  0.3861 -0.0831
  737PEP     CB25784   1.458  18.778   6.772  0.2458  0.1824 -0.0981
  737PEP     CB25785   1.661  19.040   6.422 -0.0307 -0.2578 -0.1690
  737PEP     CB25786   1.857  18.988   6.026 -0.1409  0.1103  0.0409
  737PEP     CB25787   2.084  18.735   5.780  0.1038 -0.2946  0.0239
  737PEP     CB25788   2.310  18.287   5.912 -0.1471 -0.1447 -0.1786
  737PEP     CB25789   2.115  17.915   6.029  0.0281  0.4009 -0.1088
  737PEP     CB25790   2.118  17.472   5.851 -0.2473 -0.1962  0.1589
  737PEP     CB25791   2.271  17.252   5.596  0.3819  0.2595 -0.0825
  737PEP     CB25792   2.423  16.934   5.384  0.4758 -0.2189 -0.6461
  737PEP     CB25793   2.421  16.553   5.006  0.1989 -0.0382 -0.0235
  737PEP     CB25794   2.794  16.317   4.885  0.2186 -0.1480  0.5284
  737PEP     CB25795   2.987  16.026   5.217  0.2192  0.0591 -0.4048
  737PEP     CB25796   3.004  15.979   5.639 -0.5210 -0.2424  0.1220
  737PEP     CB25797   2.992  15.874   6.009 -0.3389  0.0059  0.1195
  737PEP     CB25798   2.830  16.012   6.426  0.0612  0.3910  0.2170
  737PEP     CB25799   2.600  16.313   6.634 -0.0851  0.0151 -0.0241
  737PEP     CB25800   2.290  16.328   7.033 -0.3250  0.3733  0.1312
  738PEP     CB25801   6.385   8.346  19.710  0.0300  0.4776  0.2406
  738PEP     CB25802   6.468   8.033  19.322  0.1029  0.0536  0.1635
  738PEP     CB25803   6.322   7.620  19.091  0.3826 -0.1216  0.0864
  738PEP     CB25804   6.028   7.333  19.218  0.5830  0.0216  0.0784
  738PEP     CB25805   5.921   7.014  19.347 -0.2598  0.0159 -0.3541
  738PEP     CB25806   6.075   6.568  19.118 -0.1311 -0.2928  0.3546
  738PEP     CB25807   6.521   6.665  18.843 -0.0182  0.3281 -0.0574
  738PEP     CB25808   6.947   6.615  18.832 -0.0403 -0.0516 -0.3037
  738PEP     CB25809   7.304   6.918  18.553  0.0309  0.1192 -0.1571
  738PEP     CB25810   7.368   7.124  18.041 -0.9000  0.2339 -0.3343
  738PEP     CB25811   6.960   7.116  17.790 -0.0133 -0.1019 -0.2654
  738PEP     CB25812   6.661   7.302  17.972 -0.2589 -0.0266  0.1209
  738PEP     CB25813   6.293   7.510  17.951  0.0378  0.4279 -0.0491
  738PEP     CB25814   5.905   7.809  17.819  0.0236  0.3780  0.0781
  738PEP     CB25815   5.671   7.908  17.466  0.3846 -0.2252 -0.0479
  738PEP     CB25816   5.353   7.677  17.298 -0.1636 -0.0813 -0.2372
  738PEP     CB25817   5.397   7.289  17.213  0.4383  0.0839 -0.1200
  738PEP     CB25818   5.636   7.060  17.453  0.5239 -0.1229 -0.0189
  738PEP     CB25819   5.536   6.864  17.858  0.7000 -0.0255 -0.1653
  738PEP     CB25820   5.164   6.862  18.051 -0.0743  0.3819 -0.1914
  738PEP     CB25821   4.836   6.644  17.930 -0.2710  0.1817 -0.0434
  738PEP     CB25822   4.406   6.678  17.763  0.3799  0.1138 -0.1620
  738PEP     CB25823   3.988   6.654  18.105  0.0864  0.2066 -0.3040
  738PEP     CB25824   3.664   6.836  18.408 -0.1184 -0.3935 -0.0126
  738PEP     CB25825   3.483   7.289  18.433  0.2339  0.2804 -0.1596
  738PEP     CB25826   3.231   7.642  18.316 -0.4192 -0.3510  0.1016
  738PEP     CB25827   3.144   7.962  18.145  0.1518  0.1145  0.5452
  738PEP     CB25828   3.278   8.419  17.939 -0.2971  0.2456 -0.0879
  738PEP     CB25829   3.336   8.765  17.712 -0.1978 -0.0677  0.0736
  738PEP     CB25830   3.304   9.125  17.469  0.2498  0.1600 -0.3303
  738PEP     CB25831   3.378   9.308  17.141  0.3046  0.2908  0.2627
  738PEP     CB25832   3.665   9.598  17.023 -0.1927  0.4856 -0.0613
  738PEP     CB25833   4.014   9.802  16.902 -0.3158  0.0203  0.1720
  738PEP     CB25834   4.143   9.702  16.479  0.1490 -0.1112  0.1779
  738PEP     CB25835   3.862   9.470  16.238  0.2475  0.0849  0.1441
  738PEP     CB25836   3.392   9.489  16.148 -0.2148  0.0946  0.1808
  738PEP     CB25837   3.022   9.371  16.183 -0.1274 -0.1047 -0.1839
  738PEP     CB25838   2.733   9.076  16.333 -0.0121 -0.3311  0.1917
  738PEP     CB25839   2.572   8.552  16.218  0.1759 -0.0227  0.2150
  738PEP     CB25840   2.560   8.199  15.980 -0.2589  0.3247  0.6126
  739PEP     CB25841  16.230  13.271  12.465 -0.2277 -0.1438  0.4605
  739PEP     CB25842  16.461  13.032  12.124 -0.2823  0.0814 -0.2406
  739PEP     CB25843  16.603  12.971  11.677  0.1794  0.1109  0.0139
  739PEP     CB25844  16.688  13.104  11.274  0.2109 -0.1246 -0.2205
  739PEP     CB25845  16.736  13.294  10.885  0.0957 -0.1290 -0.1743
  739PEP     CB25846  16.999  13.513  10.543  0.3334  0.0239  0.5748
  739PEP     CB25847  16.916  13.771  10.245 -0.1230  0.2231 -0.2151
  739PEP     CB25848  16.829  14.189  10.025 -0.1043  0.0432 -0.1434
  739PEP     CB25849  16.967  14.533   9.892 -0.1994  0.2498  0.0075
  739PEP     CB25850  17.076  14.933   9.739  0.0997 -0.0924  0.2412
  739PEP     CB25851  17.317  15.249   9.570  0.0233 -0.3166  0.0931
  739PEP     CB25852  17.673  15.457   9.410  0.1372 -0.2545  0.2466
  739PEP     CB25853  17.634  15.708   9.116 -0.1304 -0.2193  0.2043
  739PEP     CB25854  17.377  16.048   9.042  0.3066 -0.2773  0.2551
  739PEP     CB25855  17.217  16.465   8.971  0.6091  0.0543 -0.1181
  739PEP     CB25856  16.826  16.730   8.885 -0.0026 -0.1241 -0.0117
  739PEP     CB25857  16.403  16.984   8.975 -0.2268 -0.3679 -0.0751
  739PEP     CB25858  15.923  17.175   9.268  0.5853 -0.1042  0.0072
  739PEP     CB25859  15.745  17.428   9.632 -0.0500 -0.1110  0.3760
  739PEP     CB25860  15.622  17.530  10.091  0.1608  0.2216 -0.1187
  739PEP     CB25861  15.304  17.457  10.410  0.1253  0.2589 -0.3953
  739PEP     CB25862  15.010  17.234  10.698 -0.0910 -0.0046 -0.2507
  739PEP     CB25863  14.555  17.046  10.655 -0.0899  0.2327  0.0008
  739PEP     CB25864  14.178  16.840  10.542 -0.0266 -0.1615 -0.2688
  739PEP     CB25865  13.897  16.640  10.254  0.0632 -0.3241  0.0070
  739PEP     CB25866  13.661  16.706   9.899  0.1500  0.1305  0.0167
  739PEP     CB25867  13.509  17.041   9.699 -0.0346  0.2286 -0.1219
  739PEP     CB25868  13.494  17.174   9.268  0.0999  0.0070  0.1991
  739PEP     CB25869  13.534  17.026   8.899 -0.3464  0.2195 -0.5096
  739PEP     CB25870  13.337  17.088   8.522  0.4632 -0.1094  0.1293
  739PEP     CB25871  13.013  17.200   8.277 -0.0422 -0.1064  0.1468
  739PEP     CB25872  13.022  17.210   7.809 -0.0491 -0.6072 -0.4602
  739PEP     CB25873  13.129  16.880   7.525  0.1328  0.2252  0.1521
  739PEP     CB25874  13.327  16.613   7.436  0.1503  0.1527  0.0401
  739PEP     CB25875  13.395  16.196   7.472  0.2102 -0.0746 -0.3255
  739PEP     CB25876  13.278  15.805   7.269  0.1295 -0.1726  0.2103
  739PEP     CB25877  13.311  15.332   7.218  0.0150  0.1767 -0.0787
  739PEP     CB25878  13.093  15.033   7.004  0.0857  0.2452 -0.1955
  739PEP     CB25879  12.970  14.694   6.687  0.2512 -0.3150 -0.0440
  739PEP     CB25880  13.171  14.600   6.250  0.4175  0.2833 -0.3879
  740PEP     CB25881  12.759  12.999  21.027 -0.1292  0.1947 -0.1188
  740PEP     CB25882  12.842  13.242  20.687  0.0781  0.1267 -0.2354
  740PEP     CB25883  13.225  13.432  20.524  0.1560  0.2637  0.2812
  740PEP     CB25884  13.622  13.206  20.573 -0.1711  0.1355  0.2571
  740PEP     CB25885  13.667  12.773  20.518  0.0827 -0.3022 -0.0447
  740PEP     CB25886  13.482  12.570  20.206 -0.1670 -0.1797 -0.1159
  740PEP     CB25887  13.577  12.417  19.837 -0.3436 -0.0132  0.0105
  740PEP     CB25888  13.340  12.400  19.503 -0.1943 -0.1113  0.1639
  740PEP     CB25889  13.135  12.085  19.208 -0.1265  0.0096 -0.0820
  740PEP     CB25890  12.791  11.888  19.123 -0.0851  0.1636  0.0663
  740PEP     CB25891  12.443  11.811  19.271  0.1230 -0.0939  0.1438
  740PEP     CB25892  12.196  12.074  19.525  0.0437  0.0763  0.0305
  740PEP     CB25893  12.284  12.545  19.578 -0.1382  0.4022 -0.0926
  740PEP     CB25894  12.543  12.864  19.839 -0.0556  0.4911  0.0793
  740PEP     CB25895  12.735  13.183  20.028 -0.2246 -0.2494 -0.2398
  740PEP     CB25896  12.828  13.606  20.055  0.0754  0.3581  0.0421
  740PEP     CB25897  12.478  13.883  20.209 -0.3498  0.1082 -0.2657
  740PEP     CB25898  12.192  13.602  20.321 -0.1929  0.1775  0.2558
  740PEP     CB25899  12.099  13.202  20.118 -0.3264  0.0995 -0.0028
  740PEP     CB25900  11.968  12.949  19.749  0.4251 -0.1240 -0.0108
  740PEP     CB25901  11.933  12.775  19.309 -0.3089 -0.2019  0.5466
  740PEP     CB25902  11.948  12.441  19.015 -0.0304  0.0848 -0.1265
  740PEP     CB25903  11.870  12.156  18.670  0.1474 -0.0830  0.7026
  740PEP     CB25904  11.940  11.804  18.379 -0.2978 -0.2730 -0.1675
  740PEP     CB25905  12.351  11.540  18.295  0.1232 -0.1248 -0.3792
  740PEP     CB25906  12.760  11.629  18.444  0.1161 -0.2628 -0.2014
  740PEP     CB25907  13.008  12.014  18.512 -0.0089 -0.4531  0.6229
  740PEP     CB25908  13.329  12.230  18.696  0.2680 -0.1663 -0.1481
  740PEP     CB25909  13.563  12.317  19.075  0.2833 -0.0726 -0.3887
  740PEP     CB25910  13.969  12.348  19.262 -0.2547 -0.1339 -0.1361
  740PEP     CB25911  14.289  12.734  19.109 -0.1322 -0.4654 -0.0118
  740PEP     CB25912  14.050  12.864  18.709  0.0203 -0.0316  0.1011
  740PEP     CB25913  13.568  12.772  18.679  0.3301  0.1503  0.0657
  740PEP     CB25914  13.240  12.702  19.010  0.0840  0.0476 -0.1759
  740PEP     CB25915  13.095  12.764  19.290  0.2245 -0.2113  0.0353
  740PEP     CB25916  12.890  12.947  19.532  0.2281  0.0091 -0.1450
  740PEP     CB25917  12.520  13.322  19.576  0.0139  0.2810  0.1992
  740PEP     CB25918  12.149  13.539  19.755  0.0685 -0.5893 -0.1845
  740PEP     CB25919  12.021  13.822  19.926 -0.2730 -0.1053  0.3078
  740PEP     CB25920  11.710  13.799  20.208 -0.1837  0.2756  0.3086
  741PEP     CB25921  15.635  13.382   9.070  0.3293  0.2153  0.1010
  741PEP     CB25922  15.963  13.509   9.252 -0.3214  0.0496  0.2621
  741PEP     CB25923  16.238  13.856   9.304 -0.1118  0.0473  0.3429
  741PEP     CB25924  16.513  14.170   9.456  0.3467 -0.0559  0.1942
  741PEP     CB25925  16.960  14.167   9.532 -0.0238 -0.1719 -0.0519
  741PEP     CB25926  17.402  14.303   9.583  0.2550 -0.1303  0.4261
  741PEP     CB25927  17.942  14.483   9.623  0.0055  0.0709  0.1427
  741PEP     CB25928  18.358  14.778   9.513 -0.3588  0.2110 -0.1662
  741PEP     CB25929  18.398  15.185   9.479  0.2229 -0.4157  0.0482
  741PEP     CB25930  18.095  15.463   9.220 -0.1235 -0.2145  0.2482
  741PEP     CB25931  17.848  15.326   8.851  0.1116  0.1504 -0.3894
  741PEP     CB25932  17.931  14.953   8.576 -0.0036 -0.3465  0.0645
  741PEP     CB25933  17.849  14.609   8.222 -0.0542 -0.1352  0.4157
  741PEP     CB25934  17.755  14.188   8.434 -0.0296  0.0049  0.1389
  741PEP     CB25935  17.787  14.003   8.883  0.0734  0.1597 -0.2417
  741PEP     CB25936  17.970  14.143   9.245  0.0625  0.1769 -0.3832
  741PEP     CB25937  18.373  14.350   9.304  0.1851 -0.1104 -0.0368
  741PEP     CB25938  18.838  14.269   9.302  0.0188 -0.1940  0.3276
  741PEP     CB25939  19.231  14.371   9.469  0.3633  0.0351  0.1850
  741PEP     CB25940  19.283  14.453   9.933  0.1014 -0.2589 -0.6053
  741PEP     CB25941  18.936  14.691  10.107  0.0651 -0.0143  0.0928
  741PEP     CB25942  18.421  14.839  10.215 -0.0818  0.3180 -0.0367
  741PEP     CB25943  17.995  14.963  10.357  0.2119  0.0442 -0.2265
  741PEP     CB25944  17.782  14.875  10.809  0.2553 -0.0579  0.1862
  741PEP     CB25945  17.868  14.550  11.057  0.3721 -0.0701 -0.2149
  741PEP     CB25946  18.170  14.249  11.274  0.2838 -0.1507 -0.0952
  741PEP     CB25947  18.315  13.883  11.482 -0.1874 -0.3134  0.3981
  741PEP     CB25948  18.836  13.775  11.579  0.1353 -0.1159  0.0264
  741PEP     CB25949  19.069  13.390  11.691  0.1161  0.0674  0.0036
  741PEP     CB25950  19.302  13.038  11.594  0.3042  0.0938  0.0314
  741PEP     CB25951  19.519  12.658  11.866  0.4653  0.0423  0.1540
  741PEP     CB25952  19.736  12.544  12.177  0.1896 -0.3093  0.0567
  741PEP     CB25953  19.928  12.667  12.670 -0.0061 -0.3838 -0.0127
  741PEP     CB25954  20.038  12.961  12.894 -0.1548  0.0098 -0.1487
  741PEP     CB25955  20.352  13.289  12.770  0.2149  0.0450 -0.2196
  741PEP     CB25956  20.440  13.400  12.280 -0.2700 -0.0406  0.0263
  741PEP     CB25957  20.205  13.347  11.973  0.1107 -0.0735 -0.0748
  741PEP     CB25958  20.019  13.090  11.651 -0.4487 -0.1427 -0.0761
  741PEP     CB25959  20.057  12.809  11.387  0.1494 -0.2924 -0.1360
  741PEP     CB25960  20.265  12.567  11.094  0.0487 -0.0173 -0.1382
  742PEP     CB25961   5.155   8.149  17.950  0.2101 -0.1018 -0.2430
  742PEP     CB25962   5.435   8.319  17.626  0.0143 -0.0617  0.4165
  742PEP     CB25963   5.682   8.623  17.562  0.0125  0.2121 -0.2747
  742PEP     CB25964   5.966   8.960  17.510  0.2539  0.1477 -0.1746
  742PEP     CB25965   6.462   8.983  17.621 -0.0204 -0.0861 -0.0148
  742PEP     CB25966   6.782   8.747  17.486 -0.1883  0.1766 -0.3039
  742PEP     CB25967   7.088   8.497  17.441 -0.4246 -0.2438 -0.1017
  742PEP     CB25968   7.265   8.334  17.797 -0.1785  0.0433  0.1017
  742PEP     CB25969   7.426   8.100  18.159 -0.1432  0.2593 -0.1062
  742PEP     CB25970   7.425   8.082  18.622  0.1085  0.2781  0.0272
  742PEP     CB25971   7.496   8.340  18.954  0.2968  0.0695  0.2342
  742PEP     CB25972   7.577   8.775  18.914  0.0574 -0.1094 -0.1385
  742PEP     CB25973   7.946   8.926  18.813 -0.3132 -0.4337 -0.1399
  742PEP     CB25974   8.121   8.998  18.450 -0.1312 -0.2215  0.0840
  742PEP     CB25975   8.228   8.916  18.065 -0.0494  0.1981 -0.0097
  742PEP     CB25976   8.216   8.905  17.660  0.1723  0.0438 -0.3414
  742PEP     CB25977   8.390   8.525  17.389  0.0980 -0.1435  0.2374
  742PEP     CB25978   8.411   8.095  17.498 -0.1674  0.1589 -0.1183
  742PEP     CB25979   8.627   7.956  17.907 -0.2853 -0.0982  0.0363
  742PEP     CB25980   8.404   7.892  18.268  0.1489 -0.3751  0.0808
  742PEP     CB25981   8.038   8.160  18.440  0.0030  0.3069  0.0565
  742PEP     CB25982   7.884   8.463  18.717 -0.4690  0.4848  0.1603
  742PEP     CB25983   7.997   8.598  19.154  0.4208 -0.0458  0.1463
  742PEP     CB25984   7.998   9.036  19.281 -0.3898 -0.0370  0.0546
  742PEP     CB25985   7.795   9.359  19.515  0.2637  0.1727 -0.0149
  742PEP     CB25986   7.811   9.709  19.677 -0.1366  0.1042 -0.1136
  742PEP     CB25987   7.718  10.099  19.397  0.1405 -0.1255  0.0816
  742PEP     CB25988   7.790  10.210  19.020 -0.0806 -0.0545 -0.1651
  742PEP     CB25989   7.834  10.521  18.764  0.1455 -0.1079 -0.1193
  742PEP     CB25990   7.919  10.297  18.284 -0.0744  0.1428  0.1903
  742PEP     CB25991   7.933  10.079  17.999 -0.2621 -0.2602 -0.0900
  742PEP     CB25992   7.853   9.660  17.813  0.2864 -0.0216 -0.1709
  742PEP     CB25993   7.791   9.363  17.494  0.1646 -0.0883  0.1729
  742PEP     CB25994   7.822   8.955  17.295  0.0064  0.0170  0.0790
  742PEP     CB25995   8.008   8.536  17.077  0.0132 -0.5771  0.0813
  742PEP     CB25996   7.974   8.028  17.169  0.2926  0.1745  0.2229
  742PEP     CB25997   8.084   7.701  17.083 -0.2759 -0.1403  0.0008
  742PEP     CB25998   8.563   7.755  16.813  0.0278 -0.0731 -0.2065
  742PEP     CB25999   8.869   8.005  16.447  0.1141  0.3193 -0.0192
  742PEP     CB26000   9.117   8.081  16.178 -0.1679  0.2541 -0.4663
  743PEP     CB26001   1.742   5.525  19.378  0.1970  0.2604 -0.0435
  743PEP     CB26002   1.225   5.471  19.350 -0.2064  0.1552 -0.0244
  743PEP     CB26003   0.825   5.542  19.668  0.0954 -0.4799  0.4367
  743PEP     CB26004   0.499   5.655  19.906 -0.5879 -0.1194 -0.0210
  743PEP     CB26005   0.385   5.483  20.316 -0.2816 -0.2875  0.0503
  743PEP     CB26006   0.586   5.462  20.625  0.1733 -0.0585  0.0466
  743PEP     CB26007   0.660   5.598  20.982  0.3027 -0.3755 -0.3495
  743PEP     CB26008   0.749   5.832  21.249 -0.2236 -0.3505  0.0816
  743PEP     CB26009   0.764   5.807  21.630 -0.0433  0.2044  0.1102
  743PEP     CB26010   0.998   5.735  22.026 -0.0757 -0.3812 -0.1919
  743PEP     CB26011   1.160   5.385  22.350 -0.2740  0.1260 -0.0901
  743PEP     CB26012   1.155   4.884  22.163 -0.1757 -0.1078  0.2330
  743PEP     CB26013   0.713   4.761  21.934  0.0387  0.0251  0.1886
  743PEP     CB26014   0.336   4.955  21.758  0.2635 -0.0733 -0.2621
  743PEP     CB26015  -0.053   5.292  21.683  0.1916 -0.0828  0.0254
  743PEP     CB26016  -0.126   5.408  21.264  0.0855 -0.1560 -0.1916
  743PEP     CB26017  -0.176   5.552  20.907 -0.1276  0.1911 -0.2240
  743PEP     CB26018  -0.378   5.883  20.750  0.1619  0.0188  0.0665
  743PEP     CB26019  -0.683   5.957  20.459  0.1839 -0.2169 -0.0260
  743PEP     CB26020  -0.753   6.305  20.148 -0.3706  0.1219 -0.2629
  743PEP     CB26021  -1.080   6.478  20.067  0.3453 -0.1743 -0.1199
  743PEP     CB26022  -1.276   6.751  20.334  0.2243  0.4455  0.0652
  743PEP     CB26023  -1.611   6.700  20.620 -0.1797 -0.0025 -0.0503
  743PEP     CB26024  -1.668   6.625  21.023 -0.0296  0.1465 -0.2630
  743PEP     CB26025  -1.457   6.833  21.379 -0.0501  0.0872  0.2780
  743PEP     CB26026  -1.175   7.030  21.549 -0.1504  0.1726 -0.0731
  743PEP     CB26027  -0.866   6.943  21.865 -0.6805  0.1190  0.2973
  743PEP     CB26028  -0.519   6.473  21.878 -0.1720  0.2454  0.0864
  743PEP     CB26029  -0.626   6.086  21.652  0.0612 -0.3710  0.1077
  743PEP     CB26030  -0.950   6.053  21.336  0.0475  0.1626 -0.1893
  743PEP     CB26031  -0.834   6.197  21.038 -0.3894 -0.1428 -0.1341
  743PEP     CB26032  -0.460   6.380  21.012  0.1777  0.0180 -0.0163
  743PEP     CB26033  -0.384   6.596  21.379  0.1684  0.2610  0.0927
  743PEP     CB26034  -0.392   6.892  21.646 -0.1301 -0.2431 -0.2459
  743PEP     CB26035  -0.566   7.342  21.526  0.3748 -0.3251  0.0372
  743PEP     CB26036  -0.705   7.693  21.708  0.2011  0.0734 -0.1367
  743PEP     CB26037  -0.888   8.017  21.815 -0.1976  0.3321  0.2203
  743PEP     CB26038  -0.860   8.494  21.832  0.0920 -0.3352 -0.0151
  743PEP     CB26039  -0.981   8.959  21.670 -0.1009 -0.0976 -0.0420
  743PEP     CB26040  -1.130   9.346  21.556  0.0898 -0.0896  0.1956
  744PEP     CB26041   5.461  14.294  17.900  0.2139 -0.3626 -0.3982
  744PEP     CB26042   5.591  14.269  17.452 -0.4009 -0.5209 -0.0071
  744PEP     CB26043   5.815  14.395  17.077  0.0964  0.1533  0.3817
  744PEP     CB26044   5.699  14.572  16.684 -0.0126  0.3868 -0.4527
  744PEP     CB26045   5.583  14.738  16.289 -0.2928  0.4539  0.1910
  744PEP     CB26046   5.473  15.109  15.989 -0.0885 -0.0657  0.0627
  744PEP     CB26047   5.377  15.305  15.673 -0.3418 -0.0748  0.1473
  744PEP     CB26048   5.017  15.213  15.423 -0.5399 -0.1504  0.0301
  744PEP     CB26049   4.775  14.795  15.157  0.1546 -0.2196  0.0913
  744PEP     CB26050   4.459  14.680  15.026 -0.1043 -0.1397  0.2027
  744PEP     CB26051   4.029  14.542  15.163 -0.0502 -0.3741  0.4454
  744PEP     CB26052   3.630  14.657  15.322 -0.3958  0.1153 -0.0731
  744PEP     CB26053   3.210  14.778  15.491 -0.0520 -0.1005 -0.1824
  744PEP     CB26054   2.839  14.568  15.679 -0.0441  0.3359  0.3497
  744PEP     CB26055   2.488  14.430  15.720  0.1595  0.0122  0.0688
  744PEP     CB26056   2.175  14.092  15.602 -0.3356 -0.0846 -0.2454
  744PEP     CB26057   1.805  14.043  15.283 -0.1576 -0.3505 -0.0613
  744PEP     CB26058   1.597  13.984  14.976  0.1273  0.0795  0.0050
  744PEP     CB26059   1.264  13.792  14.688 -0.0236 -0.3651 -0.4828
  744PEP     CB26060   0.914  13.695  14.454  0.0408 -0.1200  0.3072
  744PEP     CB26061   0.522  13.656  14.175 -0.1128  0.2412  0.0376
  744PEP     CB26062   0.413  13.402  13.988  0.2101 -0.2102 -0.1994
  744PEP     CB26063   0.503  13.070  13.824  0.0774  0.5163 -0.0547
  744PEP     CB26064   0.276  12.730  13.724 -0.1602 -0.0992 -0.0327
  744PEP     CB26065   0.039  12.619  13.342  0.0470 -0.0879 -0.4429
  744PEP     CB26066   0.233  12.524  12.920 -0.1593 -0.2511  0.1996
  744PEP     CB26067   0.663  12.414  12.879 -0.3306  0.0943  0.4497
  744PEP     CB26068   1.021  12.714  13.012  0.0333 -0.3337  0.0698
  744PEP     CB26069   1.178  13.127  13.218  0.4054  0.0818  0.2945
  744PEP     CB26070   1.200  13.354  13.702 -0.5720 -0.0703 -0.0497
  744PEP     CB26071   1.014  13.355  14.040 -0.1054 -0.0697  0.0079
  744PEP     CB26072   0.750  13.181  14.299 -0.0064  0.1351  0.3750
  744PEP     CB26073   0.666  12.732  14.558  0.2185  0.1946 -0.2520
  744PEP     CB26074   0.776  12.551  14.848 -0.1467  0.0844  0.3366
  744PEP     CB26075   1.081  12.620  15.105 -0.1691 -0.2766  0.3689
  744PEP     CB26076   1.473  12.874  14.999  0.1299 -0.2055  0.2171
  744PEP     CB26077   1.706  13.151  14.614  0.0838 -0.2531 -0.1759
  744PEP     CB26078   1.650  13.335  14.096  0.0209  0.2209 -0.0183
  744PEP     CB26079   1.765  13.567  13.769 -0.1859  0.1939  0.4911
  744PEP     CB26080   1.647  13.714  13.470  0.2940 -0.1036 -0.0778
  745PEP     CB26081   0.441   5.870  14.824  0.0307 -0.2907 -0.2239
  745PEP     CB26082   0.147   5.606  14.921  0.1864  0.1777  0.0476
  745PEP     CB26083  -0.340   5.535  15.047  0.0725 -0.2508  0.3564
  745PEP     CB26084  -0.790   5.398  15.127  0.4160 -0.5583  0.2697
  745PEP     CB26085  -1.250   5.323  15.259 -0.2077 -0.1690  0.2786
  745PEP     CB26086  -1.531   5.327  15.629 -0.1445  0.3286 -0.1112
  745PEP     CB26087  -1.941   5.131  15.804  0.0227 -0.0239  0.0218
  745PEP     CB26088  -2.359   5.296  15.941  0.0625 -0.1679 -0.0087
  745PEP     CB26089  -2.675   5.149  16.191  0.1596  0.1233 -0.1814
  745PEP     CB26090  -2.792   4.711  16.476  0.2150 -0.2552 -0.0844
  745PEP     CB26091  -2.803   4.331  16.637  0.2765 -0.1054 -0.0206
  745PEP     CB26092  -2.870   3.953  16.518 -0.0703  0.1217  0.2456
  745PEP     CB26093  -2.697   3.757  16.200  0.1344 -0.2022  0.3389
  745PEP     CB26094  -2.485   3.620  15.814 -0.0213 -0.1893  0.1460
  745PEP     CB26095  -2.187   3.233  15.588 -0.2692  0.1347  0.1084
  745PEP     CB26096  -1.828   3.035  15.765  0.4065 -0.2100 -0.3880
  745PEP     CB26097  -1.770   2.869  16.106  0.2339  0.0354  0.1555
  745PEP     CB26098  -1.790   2.884  16.654  0.1314  0.0741  0.0953
  745PEP     CB26099  -1.983   3.126  16.971 -0.0861  0.5142  0.0091
  745PEP     CB26100  -2.364   3.256  17.168  0.4113 -0.3808 -0.0568
  745PEP     CB26101  -2.760   3.325  17.040  0.2546  0.4331  0.0124
  745PEP     CB26102  -3.026   3.468  16.685  0.1666 -0.0076  0.1425
  745PEP     CB26103  -3.140   3.643  16.250  0.1125  0.3197  0.1232
  745PEP     CB26104  -3.407   3.645  15.977 -0.0044 -0.4003  0.0476
  745PEP     CB26105  -3.514   3.786  15.580 -0.2332 -0.0084 -0.2190
  745PEP     CB26106  -3.450   4.156  15.280  0.3176  0.0151 -0.1572
  745PEP     CB26107  -3.310   4.518  15.004  0.3792  0.1640 -0.5680
  745PEP     CB26108  -3.192   4.943  15.184 -0.1572  0.1833  0.2127
  745PEP     CB26109  -3.287   5.078  15.690  0.2125 -0.0082 -0.0357
  745PEP     CB26110  -2.944   4.835  15.947  0.2597  0.5936 -0.3267
  745PEP     CB26111  -2.551   4.761  15.872 -0.0149 -0.0497  0.0555
  745PEP     CB26112  -2.297   4.936  15.549  0.1213 -0.1420 -0.1203
  745PEP     CB26113  -2.295   5.122  15.115 -0.0568  0.1346 -0.2997
  745PEP     CB26114  -2.387   4.972  14.762  0.3355 -0.0087 -0.2983
  745PEP     CB26115  -2.590   4.650  14.506 -0.3645  0.0880 -0.1824
  745PEP     CB26116  -2.472   4.274  14.212  0.2089 -0.1274  0.0276
  745PEP     CB26117  -2.113   4.022  14.181 -0.0499 -0.1323  0.2017
  745PEP     CB26118  -1.797   3.690  14.279  0.1944 -0.0015  0.0618
  745PEP     CB26119  -1.398   3.389  14.533  0.0632  0.0453 -0.0642
  745PEP     CB26120  -1.344   3.218  14.880  0.0884 -0.2378 -0.0566
  746PEP     CB26121  21.732  13.758   5.112 -0.1353 -0.1663  0.3417
  746PEP     CB26122  21.418  13.732   5.460  0.4610  0.1052 -0.0544
  746PEP     CB26123  21.322  13.724   5.998  0.4311  0.1134 -0.1459
  746PEP     CB26124  21.571  13.421   6.253  0.0511 -0.2067 -0.0907
  746PEP     CB26125  22.058  13.445   6.351  0.0125 -0.0328 -0.3250
  746PEP     CB26126  22.344  13.880   6.281  0.1012  0.0682 -0.2812
  746PEP     CB26127  22.154  14.286   6.201 -0.2607  0.0904 -0.0971
  746PEP     CB26128  21.958  14.468   5.925 -0.4627 -0.1915  0.4122
  746PEP     CB26129  21.630  14.714   5.682  0.1978  0.0667 -0.0987
  746PEP     CB26130  21.226  14.840   5.687 -0.1171  0.0458 -0.2230
  746PEP     CB26131  20.830  14.951   5.722 -0.3157  0.3311 -0.2139
  746PEP     CB26132  20.493  14.992   5.987  0.0422  0.0906 -0.0810
  746PEP     CB26133  20.170  15.016   6.195  0.1197 -0.3614  0.4701
  746PEP     CB26134  20.052  15.042   6.582 -0.5063 -0.2977  0.1149
  746PEP     CB26135  19.919  15.003   7.088  0.0741  0.0933  0.1383
  746PEP     CB26136  20.249  14.978   7.445  0.1586  0.2411  0.1250
  746PEP     CB26137  20.680  15.038   7.251 -0.1758 -0.4022  0.2800
  746PEP     CB26138  20.777  15.312   6.902  0.0045  0.1005 -0.3529
  746PEP     CB26139  21.056  15.664   6.868  0.1756  0.3534 -0.0642
  746PEP     CB26140  21.108  16.043   7.071 -0.0253  0.0639  0.5051
  746PEP     CB26141  21.489  16.208   7.098  0.2513 -0.1248  0.1822
  746PEP     CB26142  21.957  16.202   7.233 -0.0608 -0.0495  0.2491
  746PEP     CB26143  22.299  16.390   7.077  0.0122 -0.2215  0.0753
  746PEP     CB26144  22.647  16.503   6.864 -0.3012  0.1781  0.0195
  746PEP     CB26145  22.987  16.669   6.767 -0.0291 -0.0845  0.0440
  746PEP     CB26146  23.324  16.842   7.017  0.0250  0.1760  0.1858
  746PEP     CB26147  23.409  17.227   7.273  0.3069  0.0299  0.3807
  746PEP     CB26148  23.507  17.670   7.354 -0.1780 -0.0813  0.1495
  746PEP     CB26149  23.575  18.033   7.589 -0.0608  0.0273  0.1934
  746PEP     CB26150  23.791  18.417   7.727 -0.1920  0.0540 -0.3485
  746PEP     CB26151  23.849  18.800   7.657  0.0495  0.1757  0.0010
  746PEP     CB26152  23.786  19.252   7.649  0.3315  0.0085  0.3254
  746PEP     CB26153  23.859  19.541   7.298 -0.0581  0.0376  0.2128
  746PEP     CB26154  24.160  19.911   7.196  0.0766 -0.2117  0.4913
  746PEP     CB26155  24.565  19.949   7.233  0.0149 -0.3924  0.2953
  746PEP     CB26156  24.931  20.246   7.272  0.2306 -0.3494  0.2730
  746PEP     CB26157  25.170  20.557   7.499 -0.2378  0.1235 -0.1094
  746PEP     CB26158  25.394  20.723   7.881 -0.1332  0.0774  0.0304
  746PEP     CB26159  25.264  21.153   8.151  0.1045  0.2668  0.0468
  746PEP     CB26160  25.210  21.483   8.484  0.3780  0.2335 -0.1575
  747PEP     CB26161  18.685  13.686  16.167  0.4145  0.1675 -0.3110
  747PEP     CB26162  18.626  13.913  16.655  0.0189 -0.3087  0.0721
  747PEP     CB26163  18.553  13.713  17.037  0.0731  0.6493 -0.1074
  747PEP     CB26164  18.261  13.331  17.208  0.1744  0.2617 -0.0772
  747PEP     CB26165  18.345  12.958  16.985 -0.1850 -0.0814  0.0618
  747PEP     CB26166  18.478  12.890  16.493 -0.2308 -0.2785 -0.1600
  747PEP     CB26167  18.837  13.097  16.328 -0.0046  0.1185 -0.0979
  747PEP     CB26168  19.054  13.486  16.470 -0.0291  0.1400 -0.0354
  747PEP     CB26169  19.031  13.960  16.364 -0.0207  0.0913 -0.0855
  747PEP     CB26170  18.942  14.204  15.941  0.2038 -0.1931 -0.2996
  747PEP     CB26171  19.075  14.274  15.549  0.0679  0.1449  0.4904
  747PEP     CB26172  18.949  14.453  15.117  0.1629 -0.2272  0.2411
  747PEP     CB26173  19.146  14.307  14.774  0.0509 -0.1547 -0.0239
  747PEP     CB26174  18.915  14.012  14.481 -0.2907  0.2545  0.0819
  747PEP     CB26175  18.536  13.850  14.363 -0.2487  0.1914  0.0987
  747PEP     CB26176  18.264  13.658  14.659 -0.0927 -0.1070  0.0602
  747PEP     CB26177  18.344  13.380  14.947  0.0455  0.0445 -0.0392
  747PEP     CB26178  18.508  13.467  15.313  0.0878  0.3147 -0.1500
  747PEP     CB26179  18.583  13.411  15.764  0.3893 -0.1588 -0.4427
  747PEP     CB26180  18.371  13.114  15.961 -0.0131  0.2024  0.1396
  747PEP     CB26181  18.150  12.800  15.775 -0.1452  0.1511 -0.0317
  747PEP     CB26182  17.947  12.630  15.327  0.5374 -0.2312  0.3527
  747PEP     CB26183  17.798  12.439  15.059  0.6610 -0.2297  0.2841
  747PEP     CB26184  17.505  12.459  14.708  0.1014 -0.5051 -0.1996
  747PEP     CB26185  17.460  12.474  14.241 -0.0919  0.0905  0.0770
  747PEP     CB26186  17.667  12.533  13.888  0.5221  0.2673 -0.2105
  747PEP     CB26187  18.131  12.607  13.698 -0.1546  0.2741 -0.5882
  747PEP     CB26188  18.249  13.030  13.619  0.2153  0.1733 -0.0771
  747PEP     CB26189  18.104  13.360  13.921 -0.1210 -0.0005  0.1075
  747PEP     CB26190  18.111  13.216  14.365  0.0924 -0.3406 -0.3106
  747PEP     CB26191  18.503  13.043  14.582  0.3084  0.0626 -0.1107
  747PEP     CB26192  18.860  12.985  14.367 -0.2756  0.1075 -0.0140
  747PEP     CB26193  19.112  12.704  13.965  0.1415  0.1346  0.0630
  747PEP     CB26194  19.225  12.347  13.729  0.0300 -0.2132  0.1765
  747PEP     CB26195  19.463  12.121  13.443  0.1167  0.2743  0.0951
  747PEP     CB26196  19.414  11.993  12.990 -0.1627  0.0067  0.1584
  747PEP     CB26197  19.066  12.107  12.708 -0.1876 -0.0848 -0.4931
  747PEP     CB26198  18.790  12.186  12.515  0.0387  0.0061  0.0113
  747PEP     CB26199  18.695  12.364  12.118 -0.0828  0.3527 -0.1619
  747PEP     CB26200  18.501  12.746  11.821  0.2096  0.1092  0.1786
  748PEP     CB26201  12.290   0.241   5.309 -0.1096 -0.1650  0.2030
  748PEP     CB26202  12.019   0.437   4.917 -0.0031  0.2764 -0.1790
  748PEP     CB26203  12.049   0.734   4.527 -0.0047  0.0521 -0.1103
  748PEP     CB26204  12.161   0.770   3.993  0.0263 -0.0195 -0.0167
  748PEP     CB26205  12.228   0.465   3.576  0.0999 -0.2055  0.1036
  748PEP     CB26206  12.079   0.509   3.170 -0.0824  0.4034 -0.0001
  748PEP     CB26207  12.018   0.938   3.076 -0.1971 -0.2734  0.0945
  748PEP     CB26208  11.789   1.233   2.958  0.0405 -0.0436 -0.0871
  748PEP     CB26209  11.491   1.201   2.634  0.2890 -0.3594  0.1458
  748PEP     CB26210  11.169   0.942   2.565 -0.1547 -0.0994  0.1297
  748PEP     CB26211  10.920   0.808   2.317 -0.1767  0.0220 -0.2732
  748PEP     CB26212  10.699   0.861   1.852 -0.2351 -0.1375 -0.1183
  748PEP     CB26213  10.596   1.013   1.462  0.4001 -0.0969  0.1950
  748PEP     CB26214  10.543   1.300   1.278 -0.0519 -0.1609 -0.0729
  748PEP     CB26215  10.333   1.646   1.463  0.1767  0.2838  0.4158
  748PEP     CB26216  10.284   1.772   1.848 -0.3447  0.0744  0.0394
  748PEP     CB26217  10.256   1.675   2.297  0.2996 -0.0292 -0.0653
  748PEP     CB26218   9.896   1.389   2.370 -0.3132 -0.3193 -0.2047
  748PEP     CB26219   9.658   1.147   2.116 -0.2038  0.3819 -0.3834
  748PEP     CB26220   9.369   1.183   1.758  0.3582  0.1702  0.4312
  748PEP     CB26221   9.086   1.114   1.465  0.2979 -0.1747 -0.2285
  748PEP     CB26222   8.806   0.940   1.131 -0.0526  0.3241 -0.0969
  748PEP     CB26223   8.654   0.787   0.808 -0.0408 -0.0240 -0.0493
  748PEP     CB26224   8.222   0.739   0.653 -0.1517 -0.1382 -0.0446
  748PEP     CB26225   7.846   0.598   0.758 -0.3001 -0.0702  0.1842
  748PEP     CB26226   7.366   0.456   0.812 -0.3168 -0.3290 -0.0668
  748PEP     CB26227   6.976   0.119   0.973 -0.0692 -0.0917 -0.1284
  748PEP     CB26228   6.642   0.007   1.090  0.0320 -0.2011  0.0365
  748PEP     CB26229   6.333   0.256   1.144 -0.1302 -0.2958  0.1774
  748PEP     CB26230   6.026   0.490   0.986  0.0170  0.1872 -0.0269
  748PEP     CB26231   5.684   0.788   1.084  0.3693 -0.3380  0.4516
  748PEP     CB26232   5.456   1.000   1.347  0.1782 -0.1732  0.2171
  748PEP     CB26233   5.192   0.846   1.697 -0.0060  0.4149 -0.3351
  748PEP     CB26234   5.352   0.435   1.919  0.4787  0.2682  0.1847
  748PEP     CB26235   5.748   0.241   1.810 -0.0229 -0.2206  0.0022
  748PEP     CB26236   5.948   0.166   1.384 -0.1944 -0.2533 -0.0688
  748PEP     CB26237   6.103  -0.218   1.165 -0.2645 -0.1965 -0.2211
  748PEP     CB26238   6.441  -0.354   0.822 -0.1177 -0.0960 -0.1988
  748PEP     CB26239   6.416  -0.293   0.459 -0.1219 -0.0534  0.3292
  748PEP     CB26240   6.248  -0.322   0.030 -0.1376 -0.1753 -0.0571
  749PEP     CB26241  20.929   5.383  11.265  0.2596  0.0146 -0.0880
  749PEP     CB26242  20.792   5.729  11.376 -0.1664 -0.0474  0.1331
  749PEP     CB26243  20.700   6.005  11.644 -0.1440 -0.1393 -0.3343
  749PEP     CB26244  20.623   6.261  12.004 -0.0989  0.1494  0.1188
  749PEP     CB26245  20.506   6.395  12.458  0.3610  0.1721 -0.0413
  749PEP     CB26246  20.725   6.656  12.730  0.2652  0.3143  0.4020
  749PEP     CB26247  20.827   7.049  12.617 -0.1418 -0.1772  0.0695
  749PEP     CB26248  21.282   7.121  12.519  0.0882 -0.4351  0.1810
  749PEP     CB26249  21.613   6.758  12.537 -0.3132 -0.1865 -0.2665
  749PEP     CB26250  21.620   6.279  12.624  0.0075  0.1495  0.0757
  749PEP     CB26251  21.439   5.885  12.444  0.4623 -0.1215 -0.0361
  749PEP     CB26252  21.292   5.434  12.316 -0.3502 -0.0003 -0.0417
  749PEP     CB26253  21.164   5.018  12.128 -0.1340  0.0676  0.0310
  749PEP     CB26254  21.389   4.655  12.436 -0.0503  0.0028  0.2579
  749PEP     CB26255  21.797   4.815  12.576  0.0400 -0.0406 -0.0366
  749PEP     CB26256  22.167   5.125  12.320  0.5386 -0.0514  0.4249
  749PEP     CB26257  22.366   5.510  12.001 -0.1132 -0.3418 -0.0174
  749PEP     CB26258  22.778   5.615  11.863  0.2505  0.1924 -0.1256
  749PEP     CB26259  23.022   5.645  11.474 -0.3551 -0.2002 -0.1051
  749PEP     CB26260  23.420   5.720  11.221 -0.2033 -0.0118 -0.2642
  749PEP     CB26261  23.833   5.712  11.099  0.0342 -0.0152  0.3673
  749PEP     CB26262  24.059   5.825  10.688 -0.2241  0.7512 -0.1438
  749PEP     CB26263  24.436   5.948  10.457 -0.2857 -0.1647 -0.1098
  749PEP     CB26264  24.910   6.070  10.490 -0.0140 -0.1470 -0.1886
  749PEP     CB26265  25.243   6.349  10.293  0.0628  0.2698  0.0951
  749PEP     CB26266  25.266   6.578   9.902 -0.2015  0.1396 -0.1914
  749PEP     CB26267  25.357   6.744   9.528 -0.0518  0.1397 -0.0688
  749PEP     CB26268  25.306   6.756   9.123 -0.2562  0.2168 -0.0900
  749PEP     CB26269  25.605   6.668   8.810  0.2071 -0.2911  0.3913
  749PEP     CB26270  25.521   6.404   8.464 -0.2719  0.0213 -0.2135
  749PEP     CB26271  25.432   6.259   8.026  0.1403  0.0240  0.2654
  749PEP     CB26272  25.246   6.014   7.819  0.2862 -0.2089 -0.1686
  749PEP     CB26273  25.149   5.934   7.346 -0.2915  0.2051 -0.1079
  749PEP     CB26274  25.152   6.085   6.894 -0.2831 -0.2455  0.1863
  749PEP     CB26275  25.167   6.497   6.730  0.0514 -0.2860 -0.1138
  749PEP     CB26276  24.994   6.779   6.494  0.1605 -0.1294  0.1805
  749PEP     CB26277  24.860   7.172   6.507  0.1219  0.1466 -0.0067
  749PEP     CB26278  24.644   7.334   6.824 -0.0593  0.3558 -0.2291
  749PEP     CB26279  24.780   7.511   7.183  0.0452 -0.1243  0.1519
  749PEP     CB26280  24.763   7.645   7.611 -0.0952 -0.3349 -0.2207
  750PEP     CB26281  18.236  17.432  15.655 -0.0518  0.0410  0.2621
  750PEP     CB26282  18.136  17.595  16.054 -0.3826 -0.2954  0.0759
  750PEP     CB26283  17.796  17.398  16.401  0.1958 -0.2532 -0.0605
  750PEP     CB26284  17.748  17.060  16.676  0.1003  0.2253  0.1331
  750PEP     CB26285  17.598  16.925  17.018 -0.1075 -0.0991 -0.0858
  750PEP     CB26286  17.714  16.660  17.322 -0.3331  0.2572  0.2594
  750PEP     CB26287  17.538  16.461  17.735  0.3530  0.1099 -0.1495
  750PEP     CB26288  17.299  16.204  18.017  0.1044 -0.4058 -0.2397
  750PEP     CB26289  16.911  16.058  17.988 -0.1315 -0.1440  0.3712
  750PEP     CB26290  16.564  16.291  18.079 -0.3772  0.1638  0.0207
  750PEP     CB26291  16.471  16.729  18.065 -0.1525  0.2742  0.1420
  750PEP     CB26292  16.743  17.127  18.194  0.0243  0.4800  0.1290
  750PEP     CB26293  17.080  17.310  18.112  0.1197 -0.0256 -0.1426
  750PEP     CB26294  17.155  17.584  17.810  0.2291 -0.2715 -0.3062
  750PEP     CB26295  16.972  17.586  17.429  0.0066  0.0539  0.0178
  750PEP     CB26296  16.604  17.417  17.378 -0.4239 -0.3760  0.1169
  750PEP     CB26297  16.285  17.237  17.532 -0.4098  0.1595 -0.0171
  750PEP     CB26298  15.865  17.389  17.623 -0.2108  0.3586  0.0242
  750PEP     CB26299  15.557  17.416  17.235 -0.0967 -0.6146  0.2457
  750PEP     CB26300  15.664  17.415  16.797  0.0380  0.3978 -0.0033
  750PEP     CB26301  16.003  17.440  16.559 -0.2069 -0.3988  0.0818
  750PEP     CB26302  16.358  17.446  16.225  0.2826  0.5915 -0.0991
  750PEP     CB26303  16.710  17.606  15.945  0.1617  0.3255  0.0033
  750PEP     CB26304  16.884  17.749  15.575 -0.1055 -0.1015 -0.1354
  750PEP     CB26305  17.135  17.656  15.215  0.2595  0.0569  0.7124
  750PEP     CB26306  17.316  17.873  14.876 -0.2753  0.0739 -0.1131
  750PEP     CB26307  17.650  18.024  14.668  0.5372  0.1428 -0.0444
  750PEP     CB26308  17.906  18.371  14.601 -0.2384 -0.2804  0.3453
  750PEP     CB26309  18.271  18.507  14.571  0.2162 -0.1721 -0.2172
  750PEP     CB26310  18.325  18.862  14.276 -0.0273  0.1902  0.3450
  750PEP     CB26311  17.942  18.956  14.160 -0.1333  0.0672  0.2861
  750PEP     CB26312  17.490  18.739  14.238  0.2701  0.2086  0.0792
  750PEP     CB26313  17.388  18.487  14.643  0.1720 -0.0735  0.0493
  750PEP     CB26314  17.627  18.472  15.075 -0.0289  0.5789 -0.1819
  750PEP     CB26315  17.850  18.804  15.262 -0.3018 -0.2585  0.1731
  750PEP     CB26316  18.222  19.068  15.149 -0.2503  0.2491  0.0332
  750PEP     CB26317  18.693  19.093  15.197 -0.0525  0.5145  0.2373
  750PEP     CB26318  19.110  19.205  14.947  0.1464 -0.3371 -0.4386
  750PEP     CB26319  19.290  19.093  14.574  0.2755  0.1813 -0.1172
  750PEP     CB26320  19.250  19.123  14.060 -0.3310 -0.0360  0.0204
  751PEP     CB26321   9.317  20.568   3.780 -0.1523  0.1482  0.1548
  751PEP     CB26322   9.653  20.727   3.907  0.0323  0.0200  0.2248
  751PEP     CB26323   9.892  20.701   4.266 -0.1376  0.4599  0.2793
  751PEP     CB26324   9.984  20.750   4.741  0.0386  0.1376 -0.1696
  751PEP     CB26325   9.785  20.413   4.929 -0.2356 -0.1688 -0.0389
  751PEP     CB26326   9.814  20.008   4.724 -0.0769  0.1770  0.4317
  751PEP     CB26327  10.183  19.880   4.605 -0.0009 -0.1762 -0.3306
  751PEP     CB26328  10.605  19.831   4.887  0.0286 -0.0837  0.0754
  751PEP     CB26329  10.604  19.585   5.228  0.0579  0.1455  0.0077
  751PEP     CB26330  10.528  19.295   5.548 -0.2140 -0.0473 -0.1271
  751PEP     CB26331  10.251  18.945   5.737  0.5717 -0.1587 -0.2353
  751PEP     CB26332  10.184  18.786   6.137  0.1718  0.0162  0.0376
  751PEP     CB26333  10.195  18.760   6.567  0.0631 -0.2591 -0.2891
  751PEP     CB26334  10.365  18.633   7.023  0.2719  0.1653  0.1844
  751PEP     CB26335  10.752  18.626   7.286  0.2472 -0.3157 -0.1377
  751PEP     CB26336  11.139  18.616   7.415 -0.0107  0.3772  0.5254
  751PEP     CB26337  11.524  18.888   7.496 -0.1314 -0.1885 -0.2274
  751PEP     CB26338  11.875  18.900   7.272  0.0912  0.0735 -0.2710
  751PEP     CB26339  12.167  18.555   6.997 -0.1072  0.0650  0.0982
  751PEP     CB26340  12.213  18.128   7.025  0.1950 -0.3945  0.2968
  751PEP     CB26341  11.886  17.816   6.850 -0.1144  0.1825  0.3368
  751PEP     CB26342  11.586  17.613   6.871  0.2159 -0.1529 -0.1879
  751PEP     CB26343  11.183  17.348   6.845 -0.0696 -0.2563 -0.2212
  751PEP     CB26344  10.753  17.438   6.838  0.1629  0.3612 -0.0157
  751PEP     CB26345  10.483  17.518   7.077  0.0908  0.0214 -0.1359
  751PEP     CB26346  10.645  17.651   7.458 -0.2180 -0.2437 -0.1778
  751PEP     CB26347  10.514  17.865   7.934 -0.1394  0.0078 -0.0025
  751PEP     CB26348  10.314  17.696   8.349  0.1099  0.0331 -0.1711
  751PEP     CB26349  10.159  17.647   8.656  0.1713 -0.0867  0.0236
  751PEP     CB26350   9.834  17.331   8.997 -0.0578 -0.1077 -0.1220
  751PEP     CB26351   9.462  17.099   8.867  0.0010 -0.0118  0.4180
  751PEP     CB26352   9.151  17.103   8.527  0.2644 -0.1740 -0.1632
  751PEP     CB26353   8.786  17.110   8.259 -0.2222  0.0250 -0.0480
  751PEP     CB26354   8.422  17.213   8.025  0.0432 -0.2213 -0.1085
  751PEP     CB26355   8.293  17.183   7.608  0.1241 -0.1798  0.3137
  751PEP     CB26356   8.292  16.831   7.363 -0.1110 -0.2341 -0.0297
  751PEP     CB26357   8.631  16.722   7.044  0.0412 -0.4660 -0.1518
  751PEP     CB26358   9.021  16.866   6.941  0.1436 -0.2515  0.1425
  751PEP     CB26359   9.179  17.247   6.958 -0.0744  0.0239 -0.1975
  751PEP     CB26360   9.102  17.636   7.275  0.4599 -0.1801 -0.0442
  752PEP     CB26361  13.536  18.693  10.925 -0.1715  0.0020 -0.0453
  752PEP     CB26362  13.339  19.008  10.700 -0.3164 -0.0460 -0.2087
  752PEP     CB26363  13.303  19.524  10.593  0.0569  0.3207  0.2513
  752PEP     CB26364  13.389  19.830  10.391  0.2248 -0.0040  0.1604
  752PEP     CB26365  13.614  20.188  10.579  0.1855  0.2068  0.2764
  752PEP     CB26366  14.000  20.336  10.507  0.1998  0.4067 -0.1616
  752PEP     CB26367  14.194  20.147  10.211 -0.0601 -0.2234  0.0807
  752PEP     CB26368  14.207  19.723  10.223  0.1355 -0.0091  0.2741
  752PEP     CB26369  14.376  19.566  10.613  0.4195 -0.1774 -0.0939
  752PEP     CB26370  14.623  19.499  10.984  0.2322 -0.2080 -0.2186
  752PEP     CB26371  14.611  19.721  11.266 -0.1399  0.4467 -0.0238
  752PEP     CB26372  14.722  20.146  11.265 -0.5289 -0.2915 -0.0021
  752PEP     CB26373  15.114  20.337  11.296 -0.0090  0.2705  0.0649
  752PEP     CB26374  15.568  20.290  11.200 -0.0244 -0.1792 -0.1090
  752PEP     CB26375  15.967  20.320  11.088  0.0219  0.1426 -0.0490
  752PEP     CB26376  16.121  20.559  10.654  0.0693  0.0393  0.4546
  752PEP     CB26377  15.931  20.577  10.266 -0.1490  0.0974  0.3460
  752PEP     CB26378  15.946  20.206  10.082  0.0128  0.3387 -0.1701
  752PEP     CB26379  16.163  19.765  10.183 -0.0569  0.3467  0.1904
  752PEP     CB26380  16.159  19.387  10.315  0.2945  0.0973  0.1393
  752PEP     CB26381  16.047  19.218  10.763 -0.5418 -0.0320  0.1956
  752PEP     CB26382  15.876  19.498  11.065 -0.0605 -0.2215 -0.1219
  752PEP     CB26383  15.580  19.843  11.131  0.0491 -0.2113 -0.2515
  752PEP     CB26384  15.272  20.141  10.855 -0.1577 -0.0320  0.0058
  752PEP     CB26385  15.031  20.420  10.626 -0.1528  0.0621  0.2161
  752PEP     CB26386  14.743  20.700  10.391  0.0906  0.4909 -0.4407
  752PEP     CB26387  14.754  21.141  10.236  0.0213 -0.3815 -0.3083
  752PEP     CB26388  14.650  21.510  10.143 -0.3335  0.1957 -0.4087
  752PEP     CB26389  14.646  21.845  10.269 -0.1544 -0.2497  0.0557
  752PEP     CB26390  14.346  21.990  10.559 -0.3735 -0.0212 -0.0062
  752PEP     CB26391  14.022  22.320  10.694 -0.0501  0.1205  0.0655
  752PEP     CB26392  13.940  22.748  10.799  0.1427  0.1836 -0.0698
  752PEP     CB26393  13.938  22.865  11.139 -0.0845  0.1735 -0.1399
  752PEP     CB26394  14.284  23.129  11.275 -0.4236  0.0499  0.0772
  752PEP     CB26395  14.625  23.148  10.908 -0.3370 -0.0302 -0.1020
  752PEP     CB26396  15.001  22.868  10.780 -0.0528 -0.2925  0.1324
  752PEP     CB26397  15.234  22.462  10.639  0.2126 -0.0288  0.3293
  752PEP     CB26398  15.544  22.133  10.381 -0.0351  0.0479  0.0452
  752PEP     CB26399  15.626  21.796  10.071 -0.2144 -0.0832 -0.2769
  752PEP     CB26400  15.725  21.369   9.958  0.3666  0.0455  0.3040
  753PEP     CB26401  14.057  16.607   0.724 -0.1671 -0.2829  0.6505
  753PEP     CB26402  14.300  16.940   0.797  0.2288 -0.2795 -0.0174
  753PEP     CB26403  14.345  17.363   0.890  0.1279  0.3531  0.2292
  753PEP     CB26404  14.084  17.684   0.999 -0.0106  0.2425  0.2162
  753PEP     CB26405  13.835  18.079   1.003  0.0200 -0.1955 -0.0111
  753PEP     CB26406  13.745  18.520   0.869  0.1088 -0.0683  0.1616
  753PEP     CB26407  13.631  18.872   0.581 -0.1384  0.0368  0.3074
  753PEP     CB26408  13.601  19.192   0.296 -0.0052  0.1432  0.1909
  753PEP     CB26409  13.686  19.536  -0.028  0.2013  0.1211 -0.0386
  753PEP     CB26410  13.652  19.963  -0.180  0.2944  0.1569  0.0867
  753PEP     CB26411  13.437  20.307  -0.098  0.0523  0.0108  0.3439
  753PEP     CB26412  13.092  20.604   0.012 -0.3396 -0.2623 -0.1640
  753PEP     CB26413  12.685  20.660   0.224  0.0660 -0.1480  0.2759
  753PEP     CB26414  12.318  20.871   0.565 -0.4212 -0.1955  0.3044
  753PEP     CB26415  11.978  21.072   0.639 -0.0751 -0.1666 -0.2620
  753PEP     CB26416  11.546  21.063   0.434 -0.4660 -0.0697 -0.1707
  753PEP     CB26417  11.044  21.068   0.372  0.1083 -0.0395 -0.3375
  753PEP     CB26418  10.731  20.972   0.164 -0.1768 -0.3167  0.2517
  753PEP     CB26419  10.392  20.977   0.105 -0.0276  0.0018 -0.2012
  753PEP     CB26420  10.050  20.698   0.282  0.1393 -0.0065  0.1908
  753PEP     CB26421   9.587  20.650   0.227  0.3000  0.1592  0.0227
  753PEP     CB26422   9.336  20.437   0.015 -0.1565  0.3218  0.0009
  753PEP     CB26423   9.134  20.120  -0.317 -0.0020 -0.0885 -0.2471
  753PEP     CB26424   8.983  19.932  -0.744 -0.1577  0.3971  0.0605
  753PEP     CB26425   9.014  19.737  -1.126  0.0199 -0.1649  0.1312
  753PEP     CB26426   8.879  19.785  -1.584  0.2014  0.2544  0.0497
  753PEP     CB26427   8.683  20.205  -1.669 -0.3311  0.5167  0.3007
  753PEP     CB26428   8.655  20.620  -1.612 -0.3719 -0.4947  0.1765
  753PEP     CB26429   8.812  21.035  -1.727  0.1970 -0.0784  0.3382
  753PEP     CB26430   9.146  21.159  -2.079  0.0834 -0.1669 -0.3551
  753PEP     CB26431   9.371  21.464  -2.400  0.0717 -0.2735 -0.2882
  753PEP     CB26432   9.606  21.827  -2.583  0.2635 -0.0184 -0.2008
  753PEP     CB26433   9.918  21.884  -2.864 -0.1115 -0.1608  0.2176
  753PEP     CB26434  10.186  21.749  -3.208 -0.2884 -0.2040 -0.2932
  753PEP     CB26435  10.276  21.435  -3.503 -0.1858 -0.1855  0.2286
  753PEP     CB26436  10.393  20.957  -3.520 -0.0313 -0.4650  0.1774
  753PEP     CB26437  10.121  20.590  -3.683 -0.1873  0.2279  0.1490
  753PEP     CB26438  10.139  20.207  -3.923 -0.2382 -0.0097  0.0710
  753PEP     CB26439   9.864  19.779  -4.106 -0.2652  0.0071  0.4266
  753PEP     CB26440   9.635  19.553  -4.470 -0.0059 -0.2232  0.0939
  754PEP     CB26441  17.679   3.816   1.121  0.2891 -0.4049  0.0585
  754PEP     CB26442  17.954   4.030   0.866  0.1957 -0.0946  0.0462
  754PEP     CB26443  18.330   4.170   0.649  0.2969 -0.6379  0.0045
  754PEP     CB26444  18.404   4.469   0.383  0.3282 -0.3420 -0.0166
  754PEP     CB26445  18.102   4.695   0.083 -0.1538  0.0693  0.1399
  754PEP     CB26446  18.129   4.912  -0.208  0.1444  0.1450 -0.0210
  754PEP     CB26447  18.451   5.212  -0.123  0.0608 -0.1037 -0.1685
  754PEP     CB26448  18.466   5.354   0.287  0.0050 -0.2054 -0.2463
  754PEP     CB26449  18.178   5.327   0.534  0.2729  0.0595  0.0218
  754PEP     CB26450  17.794   5.578   0.591  0.1819 -0.2329  0.0077
  754PEP     CB26451  17.557   5.735   0.226 -0.2050 -0.3336  0.0673
  754PEP     CB26452  17.726   5.984  -0.139  0.1521  0.1110  0.2059
  754PEP     CB26453  18.218   6.174  -0.134  0.2433 -0.0389  0.0319
  754PEP     CB26454  18.504   6.124   0.213 -0.2632  0.3148 -0.0307
  754PEP     CB26455  18.775   5.855   0.448 -0.0076  0.3560 -0.3233
  754PEP     CB26456  18.750   5.648   0.769 -0.2076  0.1015  0.3195
  754PEP     CB26457  18.589   5.909   1.162  0.3285 -0.1783  0.1504
  754PEP     CB26458  18.605   5.853   1.607  0.0128  0.1094  0.1006
  754PEP     CB26459  18.531   5.850   2.042 -0.1824  0.0479 -0.3356
  754PEP     CB26460  18.706   5.990   2.386  0.2548 -0.0153  0.5176
  754PEP     CB26461  19.028   6.113   2.603 -0.3853  0.4695 -0.0674
  754PEP     CB26462  19.321   6.296   2.885  0.4021  0.4538  0.2019
  754PEP     CB26463  19.432   6.671   3.292  0.6486  0.0171  0.1535
  754PEP     CB26464  19.393   6.873   3.665  0.0338  0.3334  0.2648
  754PEP     CB26465  19.260   7.014   4.081  0.2739  0.2699 -0.1970
  754PEP     CB26466  19.362   6.988   4.483  0.0214 -0.1390  0.1532
  754PEP     CB26467  19.176   6.964   4.961  0.1164  0.0588  0.2613
  754PEP     CB26468  19.345   7.057   5.322 -0.2685  0.1052 -0.0482
  754PEP     CB26469  19.523   6.988   5.683 -0.3582  0.3910 -0.0813
  754PEP     CB26470  19.574   6.897   6.135  0.0688  0.0042 -0.3516
  754PEP     CB26471  19.413   6.786   6.562  0.1103 -0.0456 -0.2727
  754PEP     CB26472  19.225   6.881   6.956  0.0502 -0.0595 -0.1344
  754PEP     CB26473  19.278   6.870   7.458  0.3996  0.0652 -0.4679
  754PEP     CB26474  19.233   6.941   7.849  0.3968  0.3307  0.2270
  754PEP     CB26475  19.461   6.964   8.141 -0.1298 -0.2006  0.1811
  754PEP     CB26476  19.711   7.320   8.301  0.1750 -0.1122  0.2045
  754PEP     CB26477  19.817   7.713   8.160 -0.1714  0.0279 -0.3725
  754PEP     CB26478  19.767   8.070   7.904 -0.1573 -0.0336  0.1158
  754PEP     CB26479  19.681   8.396   7.889  0.0888 -0.1513  0.2278
  754PEP     CB26480  19.563   8.673   8.125  0.0780  0.2078  0.0310
  755PEP     CB26481  15.034   1.002  21.848 -0.1458 -0.3488 -0.1162
  755PEP     CB26482  14.715   1.204  21.640  0.3562 -0.1712  0.5656
  755PEP     CB26483  14.299   1.212  21.467 -0.2680  0.1899  0.0190
  755PEP     CB26484  14.054   1.250  21.132  0.0225  0.0409  0.2656
  755PEP     CB26485  13.670   1.358  20.904 -0.1850  0.4665 -0.2784
  755PEP     CB26486  13.521   1.719  20.742  0.1253 -0.0495  0.0891
  755PEP     CB26487  13.426   1.869  20.330  0.2422 -0.0619 -0.1355
  755PEP     CB26488  13.285   1.857  19.893  0.1307 -0.0552  0.0209
  755PEP     CB26489  13.168   1.588  19.572  0.1135  0.1315 -0.2767
  755PEP     CB26490  13.117   1.625  19.125 -0.0342 -0.0327 -0.0452
  755PEP     CB26491  12.768   1.822  18.779 -0.3621 -0.0136 -0.1255
  755PEP     CB26492  12.379   1.760  18.609 -0.1085 -0.1462 -0.0267
  755PEP     CB26493  11.955   1.631  18.475 -0.2735  0.3208  0.2100
  755PEP     CB26494  11.692   1.271  18.587 -0.1518 -0.2465 -0.0317
  755PEP     CB26495  11.663   0.867  18.776  0.0409 -0.0342  0.1277
  755PEP     CB26496  11.292   0.753  18.938  0.0461  0.0299  0.5329
  755PEP     CB26497  10.968   0.938  18.762 -0.0242 -0.2307  0.1919
  755PEP     CB26498  10.870   1.171  18.402  0.3129  0.0500 -0.0747
  755PEP     CB26499  10.771   1.550  18.141 -0.1429  0.1770  0.2021
  755PEP     CB26500  10.605   1.877  17.978 -0.3038 -0.0021  0.3978
  755PEP     CB26501  10.255   2.093  17.933  0.2423  0.1612  0.5080
  755PEP     CB26502  10.005   2.454  17.900 -0.0521  0.0141  0.2515
  755PEP     CB26503   9.907   2.874  18.000  0.3296  0.0030 -0.2169
  755PEP     CB26504  10.063   3.027  18.353  0.3391 -0.1886 -0.3321
  755PEP     CB26505  10.192   2.970  18.728 -0.2683  0.0637 -0.1524
  755PEP     CB26506  10.395   2.615  19.016 -0.1512  0.3097  0.2816
  755PEP     CB26507  10.458   2.178  19.033 -0.1928  0.3925  0.1184
  755PEP     CB26508  10.380   1.783  19.223  0.1131  0.0217  0.4437
  755PEP     CB26509  10.713   1.503  19.496  0.2090 -0.4809 -0.0895
  755PEP     CB26510  10.990   1.414  19.800  0.0377 -0.1223  0.0870
  755PEP     CB26511  11.375   1.684  20.025 -0.1139 -0.2187 -0.3577
  755PEP     CB26512  11.471   2.174  19.980 -0.2233 -0.0744  0.1234
  755PEP     CB26513  11.414   2.645  20.046 -0.3114 -0.1046  0.0237
  755PEP     CB26514  11.213   2.982  20.159 -0.1223  0.4265 -0.0584
  755PEP     CB26515  10.780   3.039  20.430  0.3271  0.2932  0.0820
  755PEP     CB26516  10.543   3.008  20.861 -0.1640  0.1009  0.1199
  755PEP     CB26517  10.696   2.798  21.194 -0.2199 -0.1833 -0.3163
  755PEP     CB26518  11.149   2.681  21.372 -0.1454 -0.0308 -0.2347
  755PEP     CB26519  11.572   2.780  21.196 -0.2411  0.0431 -0.0064
  755PEP     CB26520  11.909   3.043  20.999  0.0660 -0.0127 -0.0859
  756PEP     CB26521  13.860  16.580  15.381  0.1870  0.0101  0.6393
  756PEP     CB26522  13.580  16.498  15.054  0.3319  0.4113  0.0081
  756PEP     CB26523  13.416  16.164  14.838 -0.1572  0.3030  0.2899
  756PEP     CB26524  12.992  15.994  14.947 -0.0507  0.0402 -0.2356
  756PEP     CB26525  12.680  16.204  15.012  0.0614  0.3517  0.0175
  756PEP     CB26526  12.659  16.572  15.098  0.2632  0.0008 -0.3849
  756PEP     CB26527  12.387  16.935  15.342 -0.1711 -0.3946 -0.0627
  756PEP     CB26528  12.373  16.988  15.848 -0.0127  0.1644 -0.3081
  756PEP     CB26529  12.296  16.822  16.155  0.5204 -0.2487 -0.1952
  756PEP     CB26530  12.149  16.739  16.543  0.0856 -0.3740 -0.2449
  756PEP     CB26531  11.826  16.840  16.787  0.1362  0.2068 -0.0922
  756PEP     CB26532  11.508  17.039  16.731  0.0923  0.1233  0.2030
  756PEP     CB26533  11.047  16.881  16.773 -0.2765  0.0519 -0.4121
  756PEP     CB26534  10.969  16.529  17.001  0.0545  0.0579 -0.4550
  756PEP     CB26535  11.247  16.226  17.099  0.0016 -0.0289 -0.1588
  756PEP     CB26536  11.716  16.261  17.061 -0.0727  0.0964  0.0121
  756PEP     CB26537  12.062  16.254  17.211  0.1678  0.0874 -0.0445
  756PEP     CB26538  12.230  16.661  17.376 -0.0058  0.0773  0.2466
  756PEP     CB26539  12.058  17.083  17.158 -0.0048  0.0661 -0.1053
  756PEP     CB26540  12.095  17.286  16.746 -0.0387  0.4323 -0.4279
  756PEP     CB26541  12.136  17.251  16.360  0.0740 -0.1725 -0.1366
  756PEP     CB26542  12.125  17.509  15.916 -0.0366  0.0590  0.0859
  756PEP     CB26543  12.438  17.591  15.671  0.2648 -0.1033  0.1241
  756PEP     CB26544  12.910  17.391  15.629 -0.2087  0.0436  0.4669
  756PEP     CB26545  13.202  17.024  15.745 -0.2803 -0.0455  0.3296
  756PEP     CB26546  13.560  16.946  15.408 -0.1508  0.1041 -0.2325
  756PEP     CB26547  13.384  16.958  14.930  0.5360 -0.4186  0.3603
  756PEP     CB26548  13.083  16.640  14.899  0.2456  0.2185 -0.0689
  756PEP     CB26549  13.085  16.382  15.274  0.1723  0.4460  0.0411
  756PEP     CB26550  13.314  16.458  15.666 -0.0601  0.0379 -0.1454
  756PEP     CB26551  13.430  16.772  16.085 -0.0484 -0.1687 -0.2390
  756PEP     CB26552  13.867  16.870  16.196 -0.2523  0.0901 -0.0049
  756PEP     CB26553  14.369  16.792  16.181 -0.1255  0.2064  0.1500
  756PEP     CB26554  14.694  16.601  16.036  0.2789 -0.0344  0.1318
  756PEP     CB26555  15.018  16.538  15.698 -0.0082  0.0439  0.0349
  756PEP     CB26556  15.124  16.345  15.269 -0.1679 -0.1128 -0.1062
  756PEP     CB26557  15.073  16.031  15.015  0.1420 -0.1453  0.2870
  756PEP     CB26558  14.890  15.676  15.070 -0.3330  0.2221  0.1546
  756PEP     CB26559  14.614  15.418  15.343 -0.0689  0.3804  0.3473
  756PEP     CB26560  14.340  15.223  15.631 -0.1221  0.0429 -0.0242
  757PEP     CB26561  16.742  10.096  20.018 -0.4420 -0.1757 -0.0902
  757PEP     CB26562  16.275  10.198  19.904  0.0763  0.2949 -0.0802
  757PEP     CB26563  15.927  10.199  20.144 -0.0848 -0.4785 -0.0678
  757PEP     CB26564  15.502  10.417  20.215  0.0083 -0.1542  0.0701
  757PEP     CB26565  15.128  10.420  20.420  0.0718 -0.4567 -0.3114
  757PEP     CB26566  14.800  10.666  20.542  0.2164  0.1452 -0.0424
  757PEP     CB26567  14.429  10.981  20.278  0.3543  0.1941 -0.0478
  757PEP     CB26568  14.591  11.120  19.928 -0.2122 -0.0951 -0.3343
  757PEP     CB26569  14.971  11.171  19.531  0.2206  0.0604  0.1938
  757PEP     CB26570  15.182  11.292  19.151 -0.0069 -0.2279  0.0753
  757PEP     CB26571  15.532  11.298  18.834 -0.2149  0.0090 -0.2487
  757PEP     CB26572  15.900  11.373  18.660  0.2414  0.1359 -0.1751
  757PEP     CB26573  16.296  11.116  18.688  0.0957  0.0231  0.0590
  757PEP     CB26574  16.539  10.875  19.003  0.2649  0.1680  0.1161
  757PEP     CB26575  16.464  10.749  19.433 -0.2952  0.0280 -0.0482
  757PEP     CB26576  16.225  10.495  19.496  0.1480 -0.2474 -0.3667
  757PEP     CB26577  15.840  10.526  19.229  0.1489 -0.3113 -0.0230
  757PEP     CB26578  15.885  10.898  18.931  0.2024  0.1715  0.2685
  757PEP     CB26579  15.852  10.912  18.469 -0.0493  0.1852  0.0502
  757PEP     CB26580  16.180  10.880  18.172 -0.0777  0.2530 -0.1100
  757PEP     CB26581  16.577  10.911  17.929 -0.0672  0.5187  0.4442
  757PEP     CB26582  16.623  11.119  17.510  0.1712 -0.4371  0.1541
  757PEP     CB26583  16.712  11.140  17.031  0.4456  0.0502  0.0159
  757PEP     CB26584  16.937  11.445  16.702 -0.2194 -0.0207  0.1784
  757PEP     CB26585  17.257  11.556  16.533  0.0531 -0.3144  0.2190
  757PEP     CB26586  17.417  11.546  16.189  0.1236  0.0520  0.0451
  757PEP     CB26587  17.716  11.272  16.013  0.2633 -0.2799 -0.2807
  757PEP     CB26588  17.982  10.984  16.107  0.0247  0.0077 -0.3832
  757PEP     CB26589  17.827  10.570  16.325  0.2299 -0.2362 -0.1104
  757PEP     CB26590  17.478  10.490  16.632 -0.3784  0.2405 -0.7212
  757PEP     CB26591  17.224  10.157  16.742  0.1429  0.0419  0.0884
  757PEP     CB26592  16.858   9.983  16.902 -0.4103 -0.3426  0.0279
  757PEP     CB26593  16.524  10.152  17.027 -0.0584  0.2528  0.2126
  757PEP     CB26594  16.475  10.649  16.952 -0.3405  0.2149  0.1668
  757PEP     CB26595  16.245  10.818  16.562 -0.2824  0.2635 -0.1865
  757PEP     CB26596  15.774  10.910  16.316 -0.0322 -0.3446 -0.3203
  757PEP     CB26597  15.409  10.786  16.064 -0.2678 -0.0867 -0.2648
  757PEP     CB26598  15.165  10.444  16.181 -0.0606  0.4125  0.2387
  757PEP     CB26599  14.809  10.360  16.300  0.0158  0.0078 -0.3945
  757PEP     CB26600  14.696  10.346  16.723  0.0533 -0.1953  0.5684
  758PEP     CB26601  16.780  10.648  20.662 -0.0631 -0.2134 -0.2012
  758PEP     CB26602  17.155  10.559  20.939  0.0793  0.3180 -0.1959
  758PEP     CB26603  17.601  10.609  21.023 -0.1110  0.3455  0.0280
  758PEP     CB26604  18.029  10.748  20.946  0.7604 -0.4168 -0.3706
  758PEP     CB26605  18.382  11.022  21.050 -0.1072 -0.1869 -0.0595
  758PEP     CB26606  18.755  11.254  21.178 -0.0911  0.4750  0.1163
  758PEP     CB26607  19.211  11.240  21.142  0.2949  0.0458 -0.1088
  758PEP     CB26608  19.658  11.060  21.139 -0.0264  0.0256  0.0768
  758PEP     CB26609  19.930  10.760  21.350 -0.3260  0.2606  0.1299
  758PEP     CB26610  20.119  10.388  21.363 -0.1372  0.6488  0.1391
  758PEP     CB26611  20.473  10.163  21.207 -0.1400 -0.1627 -0.2223
  758PEP     CB26612  20.834  10.166  20.922  0.0047  0.3101 -0.0012
  758PEP     CB26613  21.110   9.851  20.715 -0.3002  0.3003  0.3356
  758PEP     CB26614  21.392   9.627  20.468  0.2142  0.1045  0.2451
  758PEP     CB26615  21.644   9.257  20.576 -0.0151 -0.0229 -0.2145
  758PEP     CB26616  21.615   8.858  20.666  0.0087  0.1125 -0.2156
  758PEP     CB26617  21.395   8.581  20.677 -0.1015 -0.3220 -0.0243
  758PEP     CB26618  21.190   8.153  20.545  0.0241  0.0176  0.1866
  758PEP     CB26619  21.038   7.838  20.813  0.1436  0.0487  0.1193
  758PEP     CB26620  20.821   7.516  20.957 -0.1404 -0.4840 -0.4298
  758PEP     CB26621  20.436   7.418  21.195 -0.2064  0.5526  0.0351
  758PEP     CB26622  20.123   7.120  21.179  0.0137 -0.3990  0.2817
  758PEP     CB26623  19.655   6.948  21.222  0.1083 -0.3232 -0.7135
  758PEP     CB26624  19.272   7.106  21.206  0.3401  0.0330  0.0044
  758PEP     CB26625  18.829   7.130  21.358  0.0953 -0.1559 -0.0486
  758PEP     CB26626  18.445   7.247  21.229  0.2630  0.4445  0.2170
  758PEP     CB26627  18.239   7.257  20.855  0.4239  0.0938 -0.0740
  758PEP     CB26628  17.846   7.449  20.797  0.0727  0.1558 -0.3215
  758PEP     CB26629  17.770   7.911  20.932 -0.1669  0.0243  0.0717
  758PEP     CB26630  17.968   8.164  21.230  0.0831 -0.0890 -0.0461
  758PEP     CB26631  18.063   8.171  21.630 -0.2991  0.0349 -0.1952
  758PEP     CB26632  18.158   8.407  22.005  0.1274  0.0807  0.0683
  758PEP     CB26633  18.518   8.534  22.064  0.1808  0.0722 -0.2538
  758PEP     CB26634  18.798   8.743  21.852  0.0397 -0.1376  0.0774
  758PEP     CB26635  18.833   9.145  21.710  0.1599 -0.1816 -0.2711
  758PEP     CB26636  18.942   9.494  21.916  0.0504  0.3418 -0.1880
  758PEP     CB26637  19.265   9.457  22.335 -0.0345  0.1152  0.2552
  758PEP     CB26638  19.534   9.101  22.446  0.2094  0.0878 -0.0776
  758PEP     CB26639  19.770   8.630  22.511 -0.1211 -0.4622 -0.0913
  758PEP     CB26640  19.952   8.338  22.369  0.1042  0.3784 -0.4858
  759PEP     CB26641  10.451   7.320  21.614  0.1800 -0.2538  0.1623
  759PEP     CB26642  10.706   7.206  21.316 -0.7667  0.0704  0.3821
  759PEP     CB26643  10.802   6.964  21.005 -0.1565  0.2290  0.1562
  759PEP     CB26644  10.989   6.563  20.801 -0.0411  0.2281  0.0461
  759PEP     CB26645  11.004   6.160  20.822  0.2984 -0.0420  0.1662
  759PEP     CB26646  11.164   5.709  20.772 -0.4773 -0.2228  0.0771
  759PEP     CB26647  11.514   5.357  20.901 -0.0185  0.0357 -0.0920
  759PEP     CB26648  11.811   5.024  20.836  0.5994  0.1048 -0.1642
  759PEP     CB26649  12.123   4.853  20.567  0.0014  0.3908  0.0432
  759PEP     CB26650  12.009   4.720  20.174 -0.1470  0.2667 -0.1199
  759PEP     CB26651  11.674   4.938  19.905 -0.0454  0.0204 -0.1157
  759PEP     CB26652  11.567   5.446  19.819 -0.0469  0.0210  0.2718
  759PEP     CB26653  11.598   5.866  20.023  0.1520  0.2584 -0.2352
  759PEP     CB26654  11.744   6.187  19.771  0.0750  0.2634 -0.0025
  759PEP     CB26655  11.619   6.308  19.349  0.4309 -0.1961 -0.1698
  759PEP     CB26656  11.541   6.324  18.886 -0.2768 -0.2267  0.1563
  759PEP     CB26657  11.498   6.372  18.452  0.4059  0.0649 -0.0596
  759PEP     CB26658  11.665   6.691  18.257  0.3814  0.1864  0.1202
  759PEP     CB26659  11.924   7.027  18.449  0.0437 -0.1466  0.1362
  759PEP     CB26660  12.223   7.409  18.361 -0.0843  0.0660 -0.2952
  759PEP     CB26661  12.515   7.710  18.490 -0.2802 -0.3009  0.1940
  759PEP     CB26662  12.662   8.172  18.465 -0.0060 -0.2267  0.2870
  759PEP     CB26663  12.433   8.582  18.313  0.0479  0.0428  0.0570
  759PEP     CB26664  12.181   8.947  18.437 -0.1998  0.3060  0.2551
  759PEP     CB26665  12.125   9.199  18.781 -0.1173 -0.1819  0.0581
  759PEP     CB26666  12.271   9.521  18.985 -0.4720  0.4996  0.0765
  759PEP     CB26667  12.327   9.835  18.755  0.2568 -0.0225  0.3784
  759PEP     CB26668  12.819   9.965  18.635  0.0432 -0.5908 -0.1700
  759PEP     CB26669  13.093   9.679  18.507  0.2027 -0.0801  0.0666
  759PEP     CB26670  13.196   9.604  18.038 -0.0764  0.5600  0.0279
  759PEP     CB26671  13.034   9.618  17.599 -0.0338  0.3178 -0.2975
  759PEP     CB26672  12.622   9.794  17.430 -0.4242 -0.0309  0.2272
  759PEP     CB26673  12.201   9.817  17.702  0.2404 -0.0875  0.0573
  759PEP     CB26674  12.006   9.963  18.016  0.1591  0.3435  0.1195
  759PEP     CB26675  11.706  10.052  18.376  0.1624  0.0318  0.3728
  759PEP     CB26676  11.180  10.159  18.330 -0.3539 -0.3493 -0.1338
  759PEP     CB26677  10.887   9.904  18.115  0.3624  0.2171 -0.2385
  759PEP     CB26678  10.945   9.537  17.918  0.0256 -0.1056  0.1827
  759PEP     CB26679  11.260   9.346  17.779  0.0892  0.3252  0.2768
  759PEP     CB26680  11.436   8.977  17.629 -0.4331  0.1635 -0.4396
  760PEP     CB26681   8.910   4.648  21.396 -0.3501  0.0248 -0.2597
  760PEP     CB26682   9.238   4.813  21.690 -0.1047  0.0120 -0.1413
  760PEP     CB26683   9.584   4.996  21.992  0.1674  0.2959  0.1808
  760PEP     CB26684   9.879   4.765  22.262  0.1490 -0.1504 -0.1169
  760PEP     CB26685  10.190   4.520  22.201 -0.1053 -0.1153 -0.1424
  760PEP     CB26686  10.208   4.412  21.738  0.2576 -0.5064  0.1203
  760PEP     CB26687  10.053   4.586  21.372 -0.2937 -0.0315 -0.3828
  760PEP     CB26688  10.246   4.896  21.131 -0.0222 -0.0569  0.1566
  760PEP     CB26689  10.293   5.173  20.801 -0.0935 -0.0989  0.2547
  760PEP     CB26690  10.267   5.591  20.702  0.0762  0.0447 -0.0545
  760PEP     CB26691  10.110   5.772  20.356  0.3236  0.4559 -0.2638
  760PEP     CB26692   9.996   5.993  19.991  0.4825 -0.0397 -0.0319
  760PEP     CB26693   9.916   6.412  19.780 -0.3876  0.0652  0.2355
  760PEP     CB26694   9.772   6.541  19.398 -0.1454  0.0778  0.1241
  760PEP     CB26695   9.524   6.834  19.267 -0.1012  0.0356 -0.3479
  760PEP     CB26696   9.411   7.206  19.311  0.0430 -0.0259 -0.0266
  760PEP     CB26697   9.323   7.621  19.496 -0.0834  0.0681  0.2357
  760PEP     CB26698   8.934   7.815  19.610  0.0774 -0.1315  0.0504
  760PEP     CB26699   8.849   8.159  19.771  0.5155 -0.3944  0.3100
  760PEP     CB26700   8.454   8.382  19.946  0.0060 -0.0909  0.0888
  760PEP     CB26701   8.122   8.674  19.992  0.1356  0.0502  0.0457
  760PEP     CB26702   7.728   8.592  19.767  0.0077 -0.0889  0.1342
  760PEP     CB26703   7.301   8.768  19.731 -0.2453  0.1264 -0.1224
  760PEP     CB26704   6.873   8.716  19.651  0.3155  0.2938 -0.2034
  760PEP     CB26705   6.464   8.877  19.570 -0.0435  0.1746 -0.1431
  760PEP     CB26706   6.240   9.294  19.454  0.0441 -0.1562 -0.2442
  760PEP     CB26707   6.312   9.680  19.296  0.1568 -0.3154  0.0816
  760PEP     CB26708   6.241  10.143  19.205  0.5791  0.2512 -0.0587
  760PEP     CB26709   6.161  10.539  19.179  0.0744  0.1372  0.2699
  760PEP     CB26710   5.993  10.928  19.368 -0.1408 -0.2046  0.0507
  760PEP     CB26711   5.886  11.345  19.309  0.0686  0.0774  0.0292
  760PEP     CB26712   5.646  11.722  19.107  0.0395  0.0416 -0.0733
  760PEP     CB26713   5.450  11.812  18.765 -0.2497 -0.0536 -0.3455
  760PEP     CB26714   5.466  11.962  18.367  0.0900  0.1657 -0.0847
  760PEP     CB26715   5.607  12.173  17.925  0.1209  0.2495  0.0744
  760PEP     CB26716   5.741  12.197  17.463 -0.1747  0.1548  0.3749
  760PEP     CB26717   5.903  12.514  17.239  0.3910 -0.0460  0.2921
  760PEP     CB26718   5.990  12.891  17.439  0.1091 -0.0825 -0.1204
  760PEP     CB26719   5.885  12.927  17.905 -0.4515 -0.0803 -0.3137
  760PEP     CB26720   5.884  12.558  18.137  0.0484  0.1669  0.1245
  761PEP     CB26721   5.164   7.110   5.819 -0.0105 -0.1262  0.2135
  761PEP     CB26722   4.787   7.033   5.545  0.0232  0.0459  0.1238
  761PEP     CB26723   4.498   7.244   5.346  0.2035 -0.1564  0.0478
  761PEP     CB26724   4.049   7.264   5.128 -0.2856 -0.1031  0.0454
  761PEP     CB26725   3.689   7.108   4.926  0.5074  0.0110  0.5138
  761PEP     CB26726   3.635   6.793   4.650  0.0484 -0.6714  0.1245
  761PEP     CB26727   3.792   6.569   4.385  0.0043 -0.2375 -0.3033
  761PEP     CB26728   3.959   6.691   3.998 -0.4185 -0.1399 -0.0061
  761PEP     CB26729   3.996   7.017   3.708  0.1021 -0.1519 -0.2946
  761PEP     CB26730   3.871   7.441   3.863 -0.3134 -0.5513 -0.0955
  761PEP     CB26731   3.764   7.469   4.354  0.2183 -0.1913 -0.1572
  761PEP     CB26732   4.100   7.367   4.637  0.3119 -0.1113 -0.3414
  761PEP     CB26733   4.300   7.651   5.010  0.2458 -0.3295  0.1575
  761PEP     CB26734   4.264   8.039   5.076 -0.3195 -0.0975  0.2143
  761PEP     CB26735   4.081   8.463   4.907 -0.0621 -0.0266  0.2142
  761PEP     CB26736   3.868   8.782   4.973 -0.0986  0.1493  0.1728
  761PEP     CB26737   3.840   9.138   5.050  0.0327  0.0677  0.0979
  761PEP     CB26738   3.686   9.563   5.116  0.4430  0.0689 -0.6148
  761PEP     CB26739   3.378   9.739   4.858  0.0609  0.0820  0.1721
  761PEP     CB26740   3.069   9.605   4.613  0.3206  0.2209  0.0078
  761PEP     CB26741   2.871   9.463   4.220  0.2126 -0.0057 -0.3994
  761PEP     CB26742   2.489   9.191   3.981  0.1486 -0.4972  0.0878
  761PEP     CB26743   2.635   8.882   3.689 -0.1179  0.0744  0.4164
  761PEP     CB26744   2.946   9.001   3.538  0.2196 -0.0823  0.1649
  761PEP     CB26745   3.077   9.377   3.592  0.0086  0.0694 -0.0730
  761PEP     CB26746   3.037   9.729   3.736  0.1723  0.0913 -0.3077
  761PEP     CB26747   2.894   9.953   3.907 -0.3371  0.0813  0.0820
  761PEP     CB26748   2.858  10.378   3.835 -0.0557 -0.2944  0.3004
  761PEP     CB26749   2.853  10.678   3.517 -0.0870  0.2865  0.0413
  761PEP     CB26750   2.863  11.096   3.454 -0.3456 -0.4736  0.1629
  761PEP     CB26751   2.508  11.468   3.359  0.2571  0.0235  0.0023
  761PEP     CB26752   2.040  11.375   3.312  0.0769  0.3196  0.1895
  761PEP     CB26753   1.648  11.547   3.311 -0.2246 -0.1240 -0.3031
  761PEP     CB26754   1.280  11.456   3.545  0.0234 -0.1859 -0.3594
  761PEP     CB26755   1.307  11.215   3.935 -0.0502  0.0145  0.0083
  761PEP     CB26756   1.720  10.985   4.038  0.0641  0.1596 -0.0348
  761PEP     CB26757   1.978  10.768   3.745 -0.2887 -0.1263  0.0933
  761PEP     CB26758   1.791  10.417   3.435  0.0246 -0.2229 -0.0577
  761PEP     CB26759   1.507  10.554   3.100  0.2692 -0.0129  0.0164
  761PEP     CB26760   1.190  10.771   3.161 -0.0827  0.2100 -0.1995
  762PEP     CB26761  17.063  19.054  19.229 -0.2532  0.1243 -0.3288
  762PEP     CB26762  17.158  19.279  19.526 -0.2522  0.1762 -0.2082
  762PEP     CB26763  17.098  19.531  19.878  0.1444 -0.2953 -0.1809
  762PEP     CB26764  17.333  19.673  20.299  0.1144  0.1235  0.2455
  762PEP     CB26765  17.725  19.794  20.381 -0.2170 -0.2394 -0.0712
  762PEP     CB26766  18.101  19.797  20.184  0.1268 -0.0767  0.0428
  762PEP     CB26767  18.444  19.902  19.888 -0.3041  0.5441 -0.0498
  762PEP     CB26768  18.670  19.807  19.482  0.1029 -0.0889  0.2257
  762PEP     CB26769  18.609  19.525  19.221  0.0493 -0.0835 -0.0831
  762PEP     CB26770  18.731  19.150  18.917 -0.1305  0.1343  0.2381
  762PEP     CB26771  18.685  18.743  18.961  0.2886  0.0075  0.2331
  762PEP     CB26772  18.348  18.496  19.042 -0.0070 -0.2107 -0.0229
  762PEP     CB26773  18.084  18.384  19.355  0.3121  0.1872 -0.1407
  762PEP     CB26774  17.888  18.026  19.530 -0.0156  0.0945 -0.3538
  762PEP     CB26775  17.708  17.781  19.847 -0.0573  0.1424 -0.2587
  762PEP     CB26776  17.758  17.429  20.146  0.1564 -0.0171  0.0491
  762PEP     CB26777  17.764  17.354  20.598 -0.3667  0.0933 -0.0007
  762PEP     CB26778  18.062  17.312  20.893 -0.3248  0.3914  0.3837
  762PEP     CB26779  18.480  17.278  21.113 -0.0930  0.3606  0.1097
  762PEP     CB26780  18.660  17.372  21.573  0.3270 -0.1113  0.4118
  762PEP     CB26781  18.415  17.108  21.864 -0.0468 -0.2133  0.1047
  762PEP     CB26782  18.050  17.168  22.151 -0.3765 -0.0697  0.0223
  762PEP     CB26783  17.607  16.992  22.309 -0.3047 -0.2020 -0.0251
  762PEP     CB26784  17.314  16.924  22.654  0.0591  0.0426  0.5904
  762PEP     CB26785  16.987  16.741  22.739  0.4614  0.0346  0.1602
  762PEP     CB26786  16.778  16.347  22.640 -0.0868 -0.2488  0.3960
  762PEP     CB26787  16.537  16.093  22.434 -0.0991 -0.0664  0.1241
  762PEP     CB26788  16.300  15.784  22.153 -0.3688 -0.0206 -0.2882
  762PEP     CB26789  16.087  15.705  21.773  0.2384 -0.0387 -0.1721
  762PEP     CB26790  15.804  15.759  21.402  0.3163  0.1045  0.4994
  762PEP     CB26791  15.650  15.463  21.035 -0.0632  0.0071  0.3446
  762PEP     CB26792  15.741  14.939  20.976 -0.3956  0.2789  0.2339
  762PEP     CB26793  15.528  14.670  21.335  0.0422 -0.1184  0.1595
  762PEP     CB26794  15.091  14.723  21.423 -0.2057  0.1686 -0.1940
  762PEP     CB26795  14.709  14.799  21.337 -0.1125  0.0860  0.0430
  762PEP     CB26796  14.470  14.690  20.989 -0.1025 -0.2988 -0.1211
  762PEP     CB26797  14.552  14.997  20.637  0.1216  0.0133 -0.2094
  762PEP     CB26798  14.893  15.196  20.572  0.0712 -0.1016  0.4116
  762PEP     CB26799  15.149  15.460  20.742  0.2437  0.5259  0.2820
  762PEP     CB26800  15.002  15.891  20.977 -0.4195  0.1965 -0.5710
  763PEP     CB26801   2.742  11.222  16.811  0.1228  0.0493  0.1912
  763PEP     CB26802   3.033  11.522  16.741 -0.4209  0.0021 -0.1323
  763PEP     CB26803   3.386  11.653  16.820 -0.1027  0.2137  0.1320
  763PEP     CB26804   3.741  11.456  16.669  0.1139  0.0598 -0.0101
  763PEP     CB26805   3.745  11.208  16.260  0.1075  0.1379 -0.3060
  763PEP     CB26806   3.403  11.409  15.959 -0.3076  0.1003  0.1397
  763PEP     CB26807   2.988  11.544  16.117 -0.0889 -0.0331 -0.1588
  763PEP     CB26808   2.677  11.375  16.281 -0.3350 -0.3073 -0.2209
  763PEP     CB26809   2.426  11.543  16.589  0.1044 -0.1135 -0.4012
  763PEP     CB26810   1.986  11.731  16.776  0.2953 -0.1680  0.0665
  763PEP     CB26811   1.847  12.054  17.073  0.0575  0.2962 -0.3606
  763PEP     CB26812   1.985  12.246  17.451 -0.6335  0.0573  0.0414
  763PEP     CB26813   2.116  12.585  17.611 -0.2295  0.0799  0.0080
  763PEP     CB26814   2.300  13.028  17.557 -0.0381  0.1042  0.1714
  763PEP     CB26815   2.522  13.222  17.831 -0.0095  0.2054 -0.2319
  763PEP     CB26816   2.753  13.339  18.221 -0.2882  0.2343  0.1343
  763PEP     CB26817   2.986  13.261  18.586 -0.8303  0.3137  0.0238
  763PEP     CB26818   3.225  13.498  18.910 -0.1048  0.0651 -0.0718
  763PEP     CB26819   3.509  13.625  19.313 -0.2594  0.1016 -0.4679
  763PEP     CB26820   3.876  13.548  19.521  0.0563 -0.1354 -0.3197
  763PEP     CB26821   4.261  13.597  19.496  0.1408  0.3621 -0.0485
  763PEP     CB26822   4.498  13.978  19.325  0.2777  0.3095  0.3302
  763PEP     CB26823   4.606  14.282  19.008  0.1289 -0.0982  0.2311
  763PEP     CB26824   4.413  14.455  18.738  0.4912 -0.1575  0.1537
  763PEP     CB26825   4.097  14.619  18.504  0.0043  0.0049  0.0550
  763PEP     CB26826   3.787  14.884  18.687 -0.0032  0.2040  0.3498
  763PEP     CB26827   3.808  14.958  19.174  0.0844 -0.2632  0.4616
  763PEP     CB26828   4.211  14.974  19.394 -0.1675 -0.0606  0.2743
  763PEP     CB26829   4.602  15.028  19.556  0.0950  0.1083  0.0156
  763PEP     CB26830   4.707  15.399  19.805 -0.0293  0.1468 -0.1593
  763PEP     CB26831   4.732  15.806  19.889  0.2287  0.0040  0.1351
  763PEP     CB26832   4.849  16.236  19.730  0.1754  0.1622  0.1640
  763PEP     CB26833   4.715  16.412  19.285 -0.2054 -0.0805  0.1246
  763PEP     CB26834   4.394  16.145  19.125  0.3457  0.0065  0.1341
  763PEP     CB26835   4.023  15.964  19.338 -0.0422  0.1179 -0.4336
  763PEP     CB26836   3.593  15.976  19.356 -0.2105 -0.1844 -0.0135
  763PEP     CB26837   3.323  16.244  19.527  0.3434  0.1030 -0.0136
  763PEP     CB26838   3.287  16.673  19.564  0.1264  0.2132  0.5470
  763PEP     CB26839   3.588  16.982  19.588  0.0647 -0.3110 -0.0862
  763PEP     CB26840   4.074  16.880  19.541 -0.1120  0.0277 -0.0362
  764PEP     CB26841  21.227  15.694   5.395 -0.1885 -0.1508  0.0910
  764PEP     CB26842  21.542  15.784   5.685  0.0599 -0.2685 -0.2692
  764PEP     CB26843  21.870  16.053   5.662 -0.2836  0.1445  0.3579
  764PEP     CB26844  22.185  16.191   5.518 -0.2912 -0.1555  0.1564
  764PEP     CB26845  22.453  16.447   5.217  0.2481  0.0740  0.1373
  764PEP     CB26846  22.751  16.414   4.926  0.2885  0.1807 -0.0776
  764PEP     CB26847  23.228  16.464   5.147 -0.2217 -0.2048  0.1161
  764PEP     CB26848  23.320  16.815   5.538 -0.1305  0.0114  0.2713
  764PEP     CB26849  23.211  17.290   5.494 -0.2705  0.2255 -0.2554
  764PEP     CB26850  22.854  17.647   5.387  0.3247  0.0534 -0.1491
  764PEP     CB26851  22.637  17.918   5.605 -0.1065 -0.0341  0.3957
  764PEP     CB26852  22.294  18.074   5.892 -0.5089  0.1358 -0.1611
  764PEP     CB26853  22.157  18.481   5.834  0.0295 -0.2428  0.7442
  764PEP     CB26854  22.275  18.899   5.680  0.2426  0.3442 -0.1984
  764PEP     CB26855  22.535  19.105   5.424  0.0062  0.1996  0.0533
  764PEP     CB26856  22.887  18.881   5.258  0.4867 -0.2101  0.4156
  764PEP     CB26857  23.020  18.448   5.292 -0.3297 -0.3641  0.1037
  764PEP     CB26858  23.110  18.147   5.660  0.1870  0.1228  0.0462
  764PEP     CB26859  22.927  18.195   6.081  0.5479  0.3056 -0.1780
  764PEP     CB26860  22.659  18.426   6.426  0.3015 -0.0402  0.0706
  764PEP     CB26861  22.732  18.708   6.772  0.3247 -0.1939  0.2127
  764PEP     CB26862  23.150  19.075   6.887  0.1757 -0.2394 -0.1252
  764PEP     CB26863  23.547  19.334   6.861 -0.2203  0.2912 -0.3638
  764PEP     CB26864  23.976  19.325   6.677 -0.3654 -0.1099 -0.3037
  764PEP     CB26865  24.370  19.087   6.645 -0.0279  0.2566  0.2580
  764PEP     CB26866  24.458  18.618   6.494  0.1700  0.0624 -0.2359
  764PEP     CB26867  24.272  18.250   6.551  0.0421  0.0582  0.1315
  764PEP     CB26868  23.867  18.138   6.591 -0.2217 -0.0749  0.1616
  764PEP     CB26869  23.608  18.136   6.971  0.0363 -0.1045 -0.4280
  764PEP     CB26870  23.106  18.088   7.074 -0.1143 -0.1245 -0.0682
  764PEP     CB26871  22.852  17.772   7.203  0.0766 -0.4600  0.1503
  764PEP     CB26872  22.782  17.377   7.276 -0.0155  0.2395  0.2088
  764PEP     CB26873  22.866  16.942   7.231  0.2433 -0.1278 -0.0207
  764PEP     CB26874  22.603  16.676   7.534 -0.0489 -0.1873 -0.1005
  764PEP     CB26875  22.213  16.450   7.558  0.0678  0.1463  0.1186
  764PEP     CB26876  21.806  16.261   7.678 -0.1145 -0.0826 -0.0907
  764PEP     CB26877  21.346  16.194   7.913 -0.2649  0.1810  0.1046
  764PEP     CB26878  21.044  16.266   8.249  0.1253  0.2008 -0.1570
  764PEP     CB26879  20.920  16.488   8.610 -0.3656 -0.2550  0.0672
  764PEP     CB26880  20.731  16.527   9.028  0.2539 -0.0658  0.0349
  765PEP     CB26881  17.054  14.762  11.537 -0.1587  0.4862 -0.1547
  765PEP     CB26882  16.777  15.019  11.154  0.0214  0.0214 -0.0005
  765PEP     CB26883  16.576  15.344  10.922  0.2252 -0.0197 -0.0930
  765PEP     CB26884  16.496  15.557  10.632  0.4028 -0.0009  0.0002
  765PEP     CB26885  16.052  15.803  10.522  0.2091 -0.2373 -0.2520
  765PEP     CB26886  15.679  15.860  10.190 -0.2901 -0.0549  0.3441
  765PEP     CB26887  15.191  15.849  10.155 -0.2930 -0.1089  0.0729
  765PEP     CB26888  14.781  15.842  10.060  0.0237 -0.0277 -0.0954
  765PEP     CB26889  14.399  15.810  10.048  0.2346 -0.1317 -0.1364
  765PEP     CB26890  13.976  16.094  10.188  0.0130 -0.0512 -0.3224
  765PEP     CB26891  13.811  16.222   9.847 -0.2726 -0.0527 -0.4039
  765PEP     CB26892  13.397  16.151   9.560 -0.0167 -0.1019  0.0921
  765PEP     CB26893  12.927  16.222   9.533 -0.0236  0.0869  0.0575
  765PEP     CB26894  12.524  15.980   9.585 -0.3112  0.2246  0.1254
  765PEP     CB26895  12.495  15.620   9.212  0.1151 -0.3874  0.0520
  765PEP     CB26896  12.609  15.705   8.813 -0.3852  0.2234 -0.0541
  765PEP     CB26897  12.848  15.818   8.460 -0.0815  0.0085 -0.2172
  765PEP     CB26898  13.131  16.188   8.262  0.3179  0.0933  0.0897
  765PEP     CB26899  13.125  16.383   7.848 -0.0540  0.0107 -0.3386
  765PEP     CB26900  12.826  16.354   7.511 -0.0943 -0.1514  0.3926
  765PEP     CB26901  12.439  16.109   7.476  0.2032 -0.1328  0.1384
  765PEP     CB26902  12.284  16.075   7.898 -0.1172 -0.2030 -0.2911
  765PEP     CB26903  12.594  16.373   8.191  0.0259 -0.2197  0.1213
  765PEP     CB26904  12.763  16.690   7.834  0.0286 -0.0407 -0.1830
  765PEP     CB26905  12.716  16.804   7.308  0.2542  0.3188  0.1588
  765PEP     CB26906  12.538  16.449   6.978  0.1367 -0.0544 -0.0127
  765PEP     CB26907  12.504  15.993   6.836 -0.1033  0.5003  0.3061
  765PEP     CB26908  12.875  15.673   6.814  0.1346  0.2364  0.0494
  765PEP     CB26909  13.301  15.628   6.776 -0.1390 -0.2726 -0.1595
  765PEP     CB26910  13.778  15.318   6.799  0.1001 -0.2231  0.3723
  765PEP     CB26911  14.075  15.018   6.728 -0.3400  0.0554 -0.0078
  765PEP     CB26912  14.298  14.932   6.387  0.0932 -0.2402  0.1308
  765PEP     CB26913  14.743  15.200   6.304 -0.2430  0.0772 -0.0287
  765PEP     CB26914  15.148  15.168   6.473 -0.0781 -0.2103  0.0377
  765PEP     CB26915  15.573  15.190   6.606 -0.1415 -0.1444  0.3813
  765PEP     CB26916  15.785  14.964   6.880  0.1204  0.0931  0.1325
  765PEP     CB26917  15.988  14.662   7.104 -0.4392 -0.0080  0.0026
  765PEP     CB26918  16.258  14.287   7.028  0.3091 -0.3765 -0.0059
  765PEP     CB26919  16.752  14.296   7.002  0.0337  0.6203 -0.1688
  765PEP     CB26920  17.070  14.636   6.913  0.3011 -0.4007 -0.0201
  766PEP     CB26921  18.390   6.983   1.047 -0.0442  0.1830  0.0597
  766PEP     CB26922  18.599   6.908   0.712 -0.0538 -0.2965  0.7049
  766PEP     CB26923  18.898   7.058   0.374  0.1499  0.0130 -0.2466
  766PEP     CB26924  19.003   7.241  -0.134  0.2333  0.0108  0.5467
  766PEP     CB26925  19.288   7.317  -0.418 -0.0722 -0.0619  0.1653
  766PEP     CB26926  19.592   7.483  -0.809  0.1137 -0.0696 -0.0960
  766PEP     CB26927  19.962   7.719  -1.009  0.0426  0.0908  0.0336
  766PEP     CB26928  20.321   7.912  -0.964  0.0738  0.3041  0.1844
  766PEP     CB26929  20.692   8.010  -0.813  0.0316 -0.0224  0.0852
  766PEP     CB26930  21.103   8.221  -0.709 -0.4969 -0.0951 -0.0598
  766PEP     CB26931  21.513   8.215  -0.545  0.3900 -0.0607  0.0086
  766PEP     CB26932  21.873   7.998  -0.494 -0.2329 -0.1321  0.3839
  766PEP     CB26933  22.308   7.926  -0.579 -0.1847  0.2417  0.0619
  766PEP     CB26934  22.631   8.105  -0.673  0.1818  0.0654 -0.0075
  766PEP     CB26935  23.130   8.169  -0.752  0.0195  0.1868  0.1264
  766PEP     CB26936  23.502   7.955  -0.441 -0.1942  0.0296  0.0231
  766PEP     CB26937  23.496   7.819  -0.101 -0.1373 -0.0119  0.2705
  766PEP     CB26938  23.444   7.448   0.226 -0.0378 -0.0686 -0.4549
  766PEP     CB26939  23.026   7.239   0.523 -0.4223 -0.0859  0.2633
  766PEP     CB26940  22.679   6.982   0.414  0.0213  0.2276  0.3272
  766PEP     CB26941  22.268   6.912   0.602  0.1331  0.1278 -0.3211
  766PEP     CB26942  21.835   6.866   0.510  0.2776  0.1497 -0.2982
  766PEP     CB26943  21.640   7.036   0.173  0.1246 -0.3270  0.2908
  766PEP     CB26944  21.275   7.354   0.052  0.2363 -0.3019  0.0271
  766PEP     CB26945  20.948   7.597  -0.020 -0.1993  0.2157 -0.0951
  766PEP     CB26946  20.651   7.889  -0.187 -0.0140 -0.0954 -0.0704
  766PEP     CB26947  20.353   7.987  -0.460 -0.3154  0.0043 -0.3447
  766PEP     CB26948  20.004   8.176  -0.720 -0.0328  0.0863  0.0544
  766PEP     CB26949  19.952   8.266  -1.134  0.0671 -0.0145  0.2191
  766PEP     CB26950  20.137   8.453  -1.475 -0.1883 -0.3508 -0.0515
  766PEP     CB26951  20.413   8.829  -1.461 -0.0192  0.1387 -0.0627
  766PEP     CB26952  20.747   9.092  -1.564 -0.1414  0.0072 -0.1548
  766PEP     CB26953  20.775   9.505  -1.658 -0.0129  0.0200 -0.0124
  766PEP     CB26954  20.527   9.847  -1.940  0.2775 -0.0318  0.0003
  766PEP     CB26955  20.112   9.712  -1.983  0.2250 -0.2936  0.1610
  766PEP     CB26956  19.655   9.692  -1.819 -0.1191  0.0501  0.0561
  766PEP     CB26957  19.269   9.350  -1.969 -0.0542  0.2160  0.0236
  766PEP     CB26958  19.015   9.464  -2.306  0.3253 -0.2999  0.0223
  766PEP     CB26959  19.062   9.679  -2.740 -0.0908 -0.0196  0.2794
  766PEP     CB26960  19.201  10.043  -3.075  0.2913  0.2630  0.3343
  767PEP     CB26961   6.946   5.834   1.382  0.2832  0.0742 -0.0537
  767PEP     CB26962   7.224   5.808   1.053  0.0614 -0.0455 -0.1798
  767PEP     CB26963   7.365   5.939   0.618  0.2930  0.4075 -0.1558
  767PEP     CB26964   7.529   6.046   0.203 -0.4907  0.1457 -0.0084
  767PEP     CB26965   7.614   6.176  -0.212 -0.0316  0.1369  0.0100
  767PEP     CB26966   7.446   6.263  -0.558  0.0954 -0.1665  0.0900
  767PEP     CB26967   7.553   6.169  -1.038  0.0255  0.2288 -0.1201
  767PEP     CB26968   7.912   6.082  -1.372 -0.0611  0.0680  0.4513
  767PEP     CB26969   8.276   6.073  -1.605 -0.1137 -0.0442 -0.2618
  767PEP     CB26970   8.597   5.832  -1.718 -0.2445 -0.3549 -0.2201
  767PEP     CB26971   8.617   5.412  -1.746 -0.1471 -0.1613  0.0502
  767PEP     CB26972   8.467   5.159  -1.434 -0.0082 -0.1252  0.1584
  767PEP     CB26973   8.169   4.922  -1.199  0.0345  0.1456 -0.0953
  767PEP     CB26974   8.003   4.507  -1.041  0.3859  0.1133  0.0559
  767PEP     CB26975   7.548   4.421  -0.924  0.3862  0.0616 -0.3281
  767PEP     CB26976   7.185   4.215  -0.905 -0.3695 -0.0991 -0.0397
  767PEP     CB26977   6.761   4.193  -1.055 -0.1429  0.3530  0.2200
  767PEP     CB26978   6.362   4.140  -0.846 -0.0369  0.4728  0.3658
  767PEP     CB26979   6.022   3.903  -0.721  0.0905 -0.3664  0.3739
  767PEP     CB26980   5.781   3.473  -0.794  0.1877 -0.1161 -0.0407
  767PEP     CB26981   5.860   3.040  -0.806 -0.2246 -0.3620 -0.2525
  767PEP     CB26982   6.126   2.722  -0.820  0.0367  0.3589 -0.1186
  767PEP     CB26983   6.091   2.350  -1.059  0.0553 -0.1006 -0.3144
  767PEP     CB26984   5.914   2.016  -1.325  0.4020  0.1420 -0.3021
  767PEP     CB26985   5.635   1.706  -1.343  0.0810  0.0602 -0.2346
  767PEP     CB26986   5.521   1.245  -1.433  0.0977 -0.1085 -0.0281
  767PEP     CB26987   5.178   0.898  -1.558 -0.2557  0.1304  0.0092
  767PEP     CB26988   4.777   0.975  -1.824  0.2077  0.2380  0.1944
  767PEP     CB26989   4.733   1.478  -1.938 -0.1104 -0.2739 -0.0897
  767PEP     CB26990   4.846   1.899  -1.903 -0.1134 -0.2162  0.0266
  767PEP     CB26991   5.134   2.205  -1.880 -0.1791  0.3892 -0.0870
  767PEP     CB26992   5.483   2.539  -1.677 -0.0021  0.0969 -0.3900
  767PEP     CB26993   5.877   2.493  -1.599  0.1478 -0.1625  0.0910
  767PEP     CB26994   6.089   2.160  -1.780  0.3152 -0.0288  0.3431
  767PEP     CB26995   6.055   1.751  -1.868 -0.3124  0.0775  0.2725
  767PEP     CB26996   5.895   1.332  -1.869  0.0478  0.0273 -0.0340
  767PEP     CB26997   5.882   0.998  -2.121 -0.1897 -0.2693  0.0970
  767PEP     CB26998   5.795   0.524  -2.104  0.0130  0.2575  0.2065
  767PEP     CB26999   5.539   0.260  -1.833 -0.0148  0.1318  0.1639
  767PEP     CB27000   5.402   0.187  -1.430  0.2649  0.3485  0.2365
  768PEP     CB27001  20.513  18.434  13.871 -0.0584 -0.1871 -0.1397
  768PEP     CB27002  20.539  18.657  13.476  0.4121 -0.0725 -0.2767
  768PEP     CB27003  20.405  18.589  13.152  0.2018 -0.1198  0.2313
  768PEP     CB27004  20.193  18.832  12.722  0.2091  0.3681 -0.1215
  768PEP     CB27005  20.401  19.058  12.513  0.1039 -0.1863  0.4645
  768PEP     CB27006  20.744  19.156  12.376 -0.1617  0.1962 -0.1597
  768PEP     CB27007  21.207  19.106  12.226  0.3343 -0.2291  0.0296
  768PEP     CB27008  21.420  19.110  11.809  0.3213  0.0059 -0.1471
  768PEP     CB27009  21.799  19.339  11.578 -0.0617  0.0189  0.0698
  768PEP     CB27010  22.197  19.287  11.495 -0.5226  0.0813 -0.1598
  768PEP     CB27011  22.486  18.994  11.719 -0.1677  0.2268  0.0302
  768PEP     CB27012  22.807  19.068  12.064  0.2124 -0.1053 -0.2831
  768PEP     CB27013  22.887  19.150  12.448 -0.2156  0.1564 -0.2213
  768PEP     CB27014  23.229  19.050  12.717  0.2776  0.1774 -0.2716
  768PEP     CB27015  23.393  18.620  12.771 -0.1325  0.2190 -0.0316
  768PEP     CB27016  23.128  18.300  12.732 -0.5145 -0.3116  0.0295
  768PEP     CB27017  22.707  18.241  12.563  0.2317 -0.2169 -0.2468
  768PEP     CB27018  22.446  18.443  12.350 -0.2280  0.0550  0.2229
  768PEP     CB27019  22.412  18.820  12.306 -0.1772 -0.1828 -0.2633
  768PEP     CB27020  22.435  19.250  12.381 -0.4823 -0.0389  0.0849
  768PEP     CB27021  22.532  19.489  12.770 -0.1316 -0.4438 -0.4175
  768PEP     CB27022  22.370  19.463  13.211  0.0576  0.1556  0.2447
  768PEP     CB27023  22.392  18.989  13.359 -0.0004 -0.2647 -0.5447
  768PEP     CB27024  22.617  18.560  13.379  0.4547 -0.1162  0.1831
  768PEP     CB27025  22.874  18.307  13.707 -0.5095 -0.1648 -0.0155
  768PEP     CB27026  23.322  18.367  13.857 -0.3451  0.0528  0.0170
  768PEP     CB27027  23.733  18.567  13.644  0.3156  0.0814  0.3918
  768PEP     CB27028  24.112  18.355  13.396 -0.0804 -0.3937  0.3876
  768PEP     CB27029  24.196  18.249  12.955 -0.1261  0.0330  0.1656
  768PEP     CB27030  23.972  18.009  12.621  0.2283  0.1866  0.0774
  768PEP     CB27031  23.534  17.695  12.626  0.2711  0.0687 -0.0312
  768PEP     CB27032  23.079  17.807  12.465  0.2377  0.1287  0.3457
  768PEP     CB27033  22.902  17.992  12.168 -0.1218  0.2414  0.0977
  768PEP     CB27034  22.975  17.973  11.704  0.2448 -0.1465  0.1498
  768PEP     CB27035  23.037  18.022  11.191 -0.1389 -0.0772  0.1245
  768PEP     CB27036  23.151  18.307  10.788  0.1497  0.1015 -0.0851
  768PEP     CB27037  23.153  18.714  10.713 -0.0030 -0.1475 -0.2859
  768PEP     CB27038  22.866  18.959  10.877 -0.2181  0.1619 -0.0525
  768PEP     CB27039  22.471  19.152  10.727 -0.0336  0.4257 -0.3183
  768PEP     CB27040  22.102  19.320  10.629  0.4699  0.1576 -0.3715
  769PEP     CB27041  16.467   3.528  20.221  0.0369  0.0836 -0.1976
  769PEP     CB27042  16.060   3.398  20.089  0.3306 -0.3083  0.0836
  769PEP     CB27043  15.750   3.368  19.766  0.3570  0.1833 -0.5047
  769PEP     CB27044  15.456   3.497  19.455 -0.4203 -0.1770 -0.2142
  769PEP     CB27045  15.294   3.871  19.217 -0.2199  0.1257  0.2159
  769PEP     CB27046  15.414   4.124  18.934  0.1320 -0.0750 -0.0662
  769PEP     CB27047  15.623   4.420  18.705  0.3336  0.3642 -0.0369
  769PEP     CB27048  15.704   4.853  18.603 -0.3003  0.3799  0.3480
  769PEP     CB27049  15.624   5.265  18.682 -0.0345 -0.6652  0.4218
  769PEP     CB27050  15.390   5.619  18.970  0.1185 -0.4412 -0.0796
  769PEP     CB27051  15.133   5.925  19.160  0.0598 -0.3780 -0.0003
  769PEP     CB27052  14.930   6.301  19.264 -0.1467  0.1530 -0.1830
  769PEP     CB27053  14.783   6.658  19.450 -0.0678  0.3614  0.1003
  769PEP     CB27054  14.745   7.054  19.659  0.1010  0.3153  0.2325
  769PEP     CB27055  14.438   7.249  20.033 -0.3262 -0.0164  0.5249
  769PEP     CB27056  13.978   7.469  19.977 -0.3213  0.3132  0.2965
  769PEP     CB27057  13.745   7.346  19.698  0.3564 -0.1193  0.2383
  769PEP     CB27058  13.511   7.005  19.581  0.1842  0.0282  0.3112
  769PEP     CB27059  13.437   6.616  19.849  0.2400  0.3082 -0.1518
  769PEP     CB27060  13.532   6.686  20.274  0.0184 -0.1732  0.1449
  769PEP     CB27061  13.528   7.115  20.508 -0.1324 -0.2803 -0.0784
  769PEP     CB27062  13.657   7.553  20.347  0.1577 -0.0518  0.4167
  769PEP     CB27063  13.531   7.739  19.953  0.1116 -0.0742  0.0931
  769PEP     CB27064  13.172   8.007  19.739  0.4703 -0.1698  0.1406
  769PEP     CB27065  13.078   8.305  19.738  0.4644 -0.1349  0.0145
  769PEP     CB27066  13.009   8.526  20.107  0.0353 -0.1242 -0.1532
  769PEP     CB27067  13.044   8.277  20.510 -0.4439 -0.1684 -0.0340
  769PEP     CB27068  13.420   8.042  20.660  0.1520 -0.0914 -0.2241
  769PEP     CB27069  13.904   8.027  20.515  0.0033 -0.1252  0.2279
  769PEP     CB27070  14.118   7.914  20.196 -0.1403  0.0164 -0.2019
  769PEP     CB27071  14.367   7.795  19.876  0.1276  0.2857  0.1429
  769PEP     CB27072  14.330   7.473  19.534  0.1896  0.1844  0.0428
  769PEP     CB27073  14.372   7.003  19.404 -0.2491 -0.1604 -0.3832
  769PEP     CB27074  14.353   6.586  19.279  0.2937  0.2867  0.1450
  769PEP     CB27075  14.490   6.292  19.071  0.3312  0.1469  0.3264
  769PEP     CB27076  14.507   5.859  18.943 -0.0169 -0.1768 -0.3137
  769PEP     CB27077  14.504   5.567  18.591 -0.1728 -0.4141  0.2995
  769PEP     CB27078  14.499   5.121  18.357 -0.0064  0.4026  0.0448
  769PEP     CB27079  14.738   4.850  18.140 -0.5511  0.2607  0.0881
  769PEP     CB27080  15.140   4.723  17.836 -0.0531 -0.0762 -0.4083
  770PEP     CB27081  12.816   4.071   8.164  0.0927 -0.2490  0.2279
  770PEP     CB27082  13.095   4.371   8.261  0.1995  0.0399 -0.2743
  770PEP     CB27083  13.228   4.733   8.426 -0.0344  0.0008  0.1467
  770PEP     CB27084  13.172   5.165   8.304  0.0257 -0.0289 -0.0666
  770PEP     CB27085  12.814   5.372   8.092 -0.1319  0.3113 -0.2920
  770PEP     CB27086  12.522   5.285   7.744 -0.2825  0.2695 -0.0066
  770PEP     CB27087  12.480   4.953   7.399  0.5610 -0.1569  0.3986
  770PEP     CB27088  12.766   4.839   7.021  0.1646  0.4229 -0.3642
  770PEP     CB27089  13.198   4.908   6.994 -0.0275  0.0283  0.2587
  770PEP     CB27090  13.427   5.008   7.335  0.1378  0.1721 -0.1191
  770PEP     CB27091  13.267   4.841   7.789  0.1546  0.2530 -0.0117
  770PEP     CB27092  12.869   4.532   7.805  0.0686  0.0345 -0.2029
  770PEP     CB27093  12.431   4.297   7.836  0.1986 -0.1654 -0.1764
  770PEP     CB27094  11.995   4.058   7.676 -0.3925 -0.2236  0.0055
  770PEP     CB27095  11.750   4.260   7.283  0.1383  0.3498 -0.0544
  770PEP     CB27096  11.639   4.565   7.003  0.0964  0.0528 -0.1584
  770PEP     CB27097  11.490   4.614   6.644  0.0922 -0.1973  0.0845
  770PEP     CB27098  11.170   4.935   6.484 -0.3369  0.0714 -0.4275
  770PEP     CB27099  11.054   5.333   6.676 -0.0281  0.0384  0.3611
  770PEP     CB27100  11.106   5.594   7.027  0.2127  0.0207  0.0212
  770PEP     CB27101  11.189   5.850   7.355  0.3941 -0.2226  0.1553
  770PEP     CB27102  11.367   6.139   7.568  0.0189  0.3518  0.1263
  770PEP     CB27103  11.281   6.468   7.879 -0.0212 -0.0841  0.0128
  770PEP     CB27104  11.224   6.910   7.992  0.3093  0.3314  0.0477
  770PEP     CB27105  11.372   7.220   8.077  0.3414 -0.0252 -0.5023
  770PEP     CB27106  11.846   7.346   7.966  0.2458  0.0441 -0.1921
  770PEP     CB27107  12.333   7.414   7.972  0.2208 -0.3086 -0.0748
  770PEP     CB27108  12.691   7.258   7.975  0.1912 -0.0097 -0.0602
  770PEP     CB27109  12.943   7.188   7.528  0.1173  0.0535  0.1729
  770PEP     CB27110  12.929   7.089   6.955  0.1078  0.2455 -0.2678
  770PEP     CB27111  12.907   6.915   6.465  0.0102 -0.0720  0.2126
  770PEP     CB27112  12.691   6.743   6.110 -0.0214  0.1847  0.0716
  770PEP     CB27113  12.658   6.817   5.677 -0.0332 -0.1562  0.0103
  770PEP     CB27114  12.760   6.870   5.229  0.1443 -0.0866  0.2100
  770PEP     CB27115  12.840   6.827   4.808 -0.0867  0.0983  0.4927
  770PEP     CB27116  12.697   6.838   4.421 -0.1246 -0.3045  0.0778
  770PEP     CB27117  12.814   6.949   3.963 -0.2335 -0.1974  0.2906
  770PEP     CB27118  12.984   7.076   3.631 -0.3449  0.3689 -0.1637
  770PEP     CB27119  13.152   7.266   3.176  0.1975 -0.2760  0.0631
  770PEP     CB27120  13.021   7.376   2.739 -0.4268  0.1927  0.3731
  771PEP     CB27121  12.517  19.462  18.266  0.1111  0.0243  0.0078
  771PEP     CB27122  12.149  19.600  18.125 -0.1989 -0.0728 -0.3522
  771PEP     CB27123  11.904  19.690  17.714 -0.2242 -0.0549 -0.2836
  771PEP     CB27124  11.561  19.489  17.366 -0.2980 -0.0975  0.1553
  771PEP     CB27125  11.124  19.323  17.315 -0.4093  0.1949  0.0174
  771PEP     CB27126  10.723  19.041  17.451  0.0635  0.1760 -0.4113
  771PEP     CB27127  10.274  18.873  17.292 -0.1429 -0.0342 -0.2699
  771PEP     CB27128   9.982  18.926  17.005 -0.1692 -0.0608  0.1324
  771PEP     CB27129   9.871  19.311  16.660  0.0189  0.3606  0.0454
  771PEP     CB27130   9.735  19.449  16.109  0.5648  0.1888 -0.0026
  771PEP     CB27131   9.954  19.453  15.718 -0.1953  0.0049  0.4223
  771PEP     CB27132   9.942  19.689  15.413 -0.2486 -0.0603 -0.1086
  771PEP     CB27133   9.804  20.016  15.168  0.1984 -0.3060 -0.0984
  771PEP     CB27134   9.405  20.333  14.980  0.3166  0.1271  0.1216
  771PEP     CB27135   8.955  20.451  14.906 -0.1220 -0.1087 -0.1163
  771PEP     CB27136   8.636  20.348  15.153 -0.3555  0.1483 -0.1226
  771PEP     CB27137   8.601  20.044  15.389 -0.0104 -0.0117 -0.2089
  771PEP     CB27138   8.563  19.678  15.590  0.4675 -0.0458 -0.2710
  771PEP     CB27139   8.619  19.255  15.645  0.0919  0.0053 -0.0755
  771PEP     CB27140   8.472  18.885  15.670  0.0977 -0.1567  0.1651
  771PEP     CB27141   8.382  18.450  15.532 -0.2586 -0.2616  0.2352
  771PEP     CB27142   8.340  18.102  15.278 -0.1910  0.0705 -0.3090
  771PEP     CB27143   8.489  17.782  15.074 -0.3999 -0.1288  0.0228
  771PEP     CB27144   8.699  17.433  14.948 -0.0952  0.3740  0.3172
  771PEP     CB27145   9.106  17.362  15.033 -0.0433  0.1560 -0.1002
  771PEP     CB27146   9.260  17.200  15.320  0.1426 -0.4596 -0.0843
  771PEP     CB27147   9.561  17.143  15.633  0.2689  0.4965 -0.2926
  771PEP     CB27148   9.755  16.915  16.112 -0.0794  0.4559 -0.1360
  771PEP     CB27149   9.477  16.611  16.436  0.1185  0.0701  0.0098
  771PEP     CB27150   9.268  16.229  16.302  0.2875  0.1243 -0.0664
  771PEP     CB27151   9.204  15.890  15.940 -0.1657  0.2816  0.3050
  771PEP     CB27152   8.988  15.567  15.917  0.0362  0.0910  0.0851
  771PEP     CB27153   8.919  15.308  16.233 -0.0851 -0.0696 -0.1359
  771PEP     CB27154   8.682  14.970  16.347 -0.0589 -0.1497  0.1804
  771PEP     CB27155   8.322  14.767  16.109  0.0758  0.0036  0.0685
  771PEP     CB27156   7.980  14.442  16.056 -0.4237 -0.0694 -0.1186
  771PEP     CB27157   7.594  14.376  15.917 -0.0571  0.0938  0.1103
  771PEP     CB27158   7.176  14.482  15.855 -0.0196  0.1066 -0.4328
  771PEP     CB27159   6.717  14.690  15.848  0.2099  0.0855 -0.0367
  771PEP     CB27160   6.365  15.053  15.727  0.0954 -0.2372  0.3372
  772PEP     CB27161   8.642  18.607   7.820 -0.4722  0.0168  0.0952
  772PEP     CB27162   8.363  18.873   7.573 -0.5719  0.0478  0.1110
  772PEP     CB27163   8.257  19.094   7.218  0.0255 -0.0242 -0.1522
  772PEP     CB27164   8.048  19.092   6.827 -0.3527  0.2651  0.2468
  772PEP     CB27165   8.217  18.858   6.534  0.0282 -0.2365 -0.1597
  772PEP     CB27166   8.500  18.569   6.714 -0.1941 -0.0070  0.0989
  772PEP     CB27167   8.812  18.214   6.705 -0.0753  0.0495 -0.0797
  772PEP     CB27168   8.960  17.761   6.700  0.0528  0.2265  0.1309
  772PEP     CB27169   8.742  17.374   6.715 -0.1185 -0.2424 -0.0473
  772PEP     CB27170   8.466  17.025   6.522 -0.0528  0.5045 -0.1616
  772PEP     CB27171   8.183  17.042   6.262  0.0314  0.1170  0.3616
  772PEP     CB27172   7.916  16.982   5.862 -0.1114 -0.3151 -0.2195
  772PEP     CB27173   8.063  17.077   5.468  0.0399  0.3539 -0.0314
  772PEP     CB27174   8.157  17.531   5.363  0.2506 -0.2327  0.1335
  772PEP     CB27175   8.292  17.907   5.514  0.0346  0.0217 -0.3028
  772PEP     CB27176   8.321  18.327   5.691 -0.0335  0.3271 -0.1647
  772PEP     CB27177   8.102  18.694   5.639 -0.0420  0.1617 -0.1984
  772PEP     CB27178   7.839  19.010   5.963  0.3938  0.2541 -0.0198
  772PEP     CB27179   7.558  19.338   6.195 -0.0260  0.0233 -0.0261
  772PEP     CB27180   7.502  19.414   6.613  0.3061  0.4793 -0.2613
  772PEP     CB27181   7.572  18.961   6.913  0.1495  0.1241 -0.0360
  772PEP     CB27182   7.282  18.602   6.870  0.1524  0.1846  0.1156
  772PEP     CB27183   6.864  18.745   6.695  0.0586 -0.0937  0.0246
  772PEP     CB27184   6.724  19.151   6.808  0.1150  0.2688 -0.0835
  772PEP     CB27185   6.751  19.354   7.198  0.0104  0.2717  0.0882
  772PEP     CB27186   7.140  19.408   7.456  0.2163 -0.0838 -0.2037
  772PEP     CB27187   7.602  19.335   7.358 -0.2493  0.0690 -0.1073
  772PEP     CB27188   7.827  18.892   7.301 -0.0726  0.0871 -0.1286
  772PEP     CB27189   7.943  18.645   6.933 -0.1998 -0.0866 -0.3064
  772PEP     CB27190   7.763  18.483   6.569  0.0711 -0.1830  0.3487
  772PEP     CB27191   7.476  18.684   6.385 -0.0955  0.1568 -0.2703
  772PEP     CB27192   7.111  19.073   6.343 -0.3269  0.0916  0.3921
  772PEP     CB27193   6.880  19.416   6.376 -0.2025 -0.1411 -0.1354
  772PEP     CB27194   6.617  19.736   6.224  0.2197 -0.4570  0.0002
  772PEP     CB27195   6.434  20.127   6.392  0.0718 -0.1489  0.2384
  772PEP     CB27196   6.434  20.410   6.739 -0.0828  0.0256  0.0045
  772PEP     CB27197   6.571  20.637   7.130  0.3782  0.1548  0.2289
  772PEP     CB27198   6.542  20.980   7.307  0.0186  0.0500  0.2438
  772PEP     CB27199   6.308  21.202   7.487  0.3391 -0.1468  0.0742
  772PEP     CB27200   6.110  21.565   7.596 -0.2121  0.1299 -0.2296
  773PEP     CB27201   5.452  18.445  18.297  0.1319  0.2867 -0.0522
  773PEP     CB27202   5.857  18.618  18.317  0.0094  0.1241  0.4502
  773PEP     CB27203   6.269  18.623  18.254 -0.1251  0.1391  0.4074
  773PEP     CB27204   6.382  18.775  17.815 -0.4112  0.2867  0.0393
  773PEP     CB27205   6.211  18.674  17.416  0.1621  0.0820 -0.1541
  773PEP     CB27206   6.207  18.532  16.956  0.1543 -0.1190 -0.2544
  773PEP     CB27207   6.342  18.552  16.528 -0.2164  0.1375 -0.1483
  773PEP     CB27208   6.579  18.500  16.112 -0.3485  0.1929 -0.1899
  773PEP     CB27209   7.002  18.613  15.970 -0.0972  0.5263  0.0794
  773PEP     CB27210   7.091  18.825  15.663 -0.2883  0.1341  0.2761
  773PEP     CB27211   7.123  18.715  15.252 -0.3304  0.3102  0.0988
  773PEP     CB27212   7.296  18.397  14.959 -0.1369  0.0694  0.0843
  773PEP     CB27213   7.467  18.005  14.853  0.2942 -0.1404  0.1514
  773PEP     CB27214   7.689  17.540  14.851 -0.2622  0.0338 -0.0463
  773PEP     CB27215   7.841  17.125  14.801 -0.1366 -0.1545 -0.2974
  773PEP     CB27216   7.893  16.888  14.398 -0.2072  0.0183 -0.3921
  773PEP     CB27217   7.513  16.676  14.151  0.1682  0.0935 -0.2734
  773PEP     CB27218   7.150  16.672  14.316  0.2044  0.0695  0.2834
  773PEP     CB27219   6.737  16.591  14.571  0.3354  0.3501  0.1223
  773PEP     CB27220   6.423  16.341  14.769 -0.0782 -0.0627 -0.1333
  773PEP     CB27221   6.035  16.314  14.835 -0.0717 -0.0147  0.2423
  773PEP     CB27222   5.717  16.694  15.033 -0.0646 -0.2068  0.2091
  773PEP     CB27223   5.784  17.082  15.133 -0.1084 -0.1240 -0.0251
  773PEP     CB27224   5.617  17.520  15.103 -0.0394 -0.2314  0.0864
  773PEP     CB27225   5.596  17.941  15.175 -0.5890  0.3234 -0.0226
  773PEP     CB27226   5.553  18.226  15.578  0.1740 -0.2103 -0.1067
  773PEP     CB27227   5.407  18.423  16.006  0.0445 -0.2735  0.4422
  773PEP     CB27228   5.397  18.666  16.410  0.0388 -0.3607  0.2460
  773PEP     CB27229   5.304  18.755  16.837 -0.1272  0.1610  0.0775
  773PEP     CB27230   5.287  18.564  17.277 -0.3270 -0.2726  0.1264
  773PEP     CB27231   5.094  18.195  17.474 -0.6269 -0.0684  0.0938
  773PEP     CB27232   5.102  17.936  17.841  0.4876  0.0528  0.0954
  773PEP     CB27233   5.054  17.513  18.023 -0.0993 -0.0189  0.1300
  773PEP     CB27234   5.256  17.149  17.979 -0.2166 -0.0448 -0.1448
  773PEP     CB27235   5.476  16.956  17.683  0.2654  0.1953 -0.3377
  773PEP     CB27236   5.754  17.193  17.338  0.1075 -0.0042 -0.0610
  773PEP     CB27237   5.694  17.485  17.102  0.5077  0.0048 -0.1747
  773PEP     CB27238   5.715  17.797  16.722  0.3561  0.3127 -0.0154
  773PEP     CB27239   5.671  18.238  16.644  0.1199  0.1071  0.1650
  773PEP     CB27240   5.800  18.617  16.598 -0.0875 -0.1340  0.1088
  774PEP     CB27241  21.397   2.546  17.703  0.1458 -0.1496  0.0283
  774PEP     CB27242  21.535   2.162  17.916 -0.2460 -0.0866  0.4371
  774PEP     CB27243  21.609   1.816  18.050 -0.3390 -0.0064 -0.2306
  774PEP     CB27244  22.079   1.696  18.164  0.5991  0.1273 -0.0487
  774PEP     CB27245  22.367   1.964  18.386 -0.3055  0.1291 -0.1022
  774PEP     CB27246  22.415   2.290  18.695 -0.0577 -0.1794  0.1583
  774PEP     CB27247  22.598   2.729  18.627 -0.0339 -0.0619 -0.0006
  774PEP     CB27248  22.753   2.915  18.239  0.2111  0.1495  0.0942
  774PEP     CB27249  22.656   2.832  17.873  0.1891  0.0139  0.0181
  774PEP     CB27250  22.175   2.794  17.686 -0.3196  0.6055 -0.2582
  774PEP     CB27251  21.716   2.904  17.598 -0.1412 -0.0909 -0.0400
  774PEP     CB27252  21.440   3.075  17.346  0.1522 -0.1669 -0.4153
  774PEP     CB27253  21.105   3.116  16.986 -0.0848  0.1139  0.1392
  774PEP     CB27254  20.941   3.385  16.752 -0.2808 -0.0784  0.0782
  774PEP     CB27255  20.841   3.427  16.279  0.1481  0.2226  0.2806
  774PEP     CB27256  20.742   3.089  15.952  0.1618  0.4397 -0.1975
  774PEP     CB27257  20.935   2.826  15.844  0.0741  0.1441 -0.0308
  774PEP     CB27258  21.043   2.413  16.130 -0.2219  0.1466  0.0688
  774PEP     CB27259  21.170   2.348  16.522 -0.0076 -0.1710 -0.2064
  774PEP     CB27260  20.919   2.102  16.861 -0.0793  0.1380 -0.2208
  774PEP     CB27261  20.669   1.692  16.792 -0.0474  0.0918  0.1669
  774PEP     CB27262  20.369   1.756  16.479 -0.2519  0.0296  0.1240
  774PEP     CB27263  20.292   2.178  16.349 -0.3974 -0.3283  0.2416
  774PEP     CB27264  20.566   2.480  16.373  0.3185 -0.2293  0.0137
  774PEP     CB27265  20.840   2.867  16.382  0.2444  0.1710  0.5435
  774PEP     CB27266  21.212   3.090  16.101 -0.1257 -0.5331  0.0466
  774PEP     CB27267  21.394   3.490  16.206 -0.0222 -0.0331  0.1666
  774PEP     CB27268  21.522   3.875  16.143  0.2695  0.1165 -0.1480
  774PEP     CB27269  21.466   4.198  16.042  0.0711 -0.2120  0.1455
  774PEP     CB27270  21.369   4.548  16.324 -0.0883 -0.3535 -0.0181
  774PEP     CB27271  21.658   4.807  16.617 -0.2061 -0.2059 -0.0436
  774PEP     CB27272  21.949   5.087  16.860 -0.3868 -0.1234  0.2040
  774PEP     CB27273  22.235   5.302  17.099  0.0532  0.1133 -0.3341
  774PEP     CB27274  22.401   5.456  17.510 -0.1422  0.0047 -0.1669
  774PEP     CB27275  22.283   5.783  17.797  0.0463 -0.1188  0.1622
  774PEP     CB27276  21.984   6.141  18.019 -0.0836 -0.1741 -0.1462
  774PEP     CB27277  21.573   6.122  18.355 -0.2414  0.2373 -0.0992
  774PEP     CB27278  21.380   5.790  18.443 -0.0536 -0.4115  0.3826
  774PEP     CB27279  21.021   5.569  18.365 -0.0367 -0.2059  0.2402
  774PEP     CB27280  20.659   5.280  18.290  0.1672 -0.0931  0.0892
  775PEP     CB27281  14.231  11.260   1.022  0.0271  0.0049 -0.2319
  775PEP     CB27282  14.143  11.605   1.236 -0.3399 -0.0292 -0.1644
  775PEP     CB27283  13.945  11.914   1.533  0.0169 -0.1087  0.2766
  775PEP     CB27284  13.927  12.281   1.611 -0.0792 -0.2928  0.5906
  775PEP     CB27285  13.707  12.636   1.584 -0.1763  0.1207 -0.0849
  775PEP     CB27286  13.188  12.837   1.495 -0.1539  0.2250  0.0551
  775PEP     CB27287  12.963  12.647   1.165  0.0072 -0.2866  0.3202
  775PEP     CB27288  12.682  12.572   0.933  0.0598  0.2090 -0.3830
  775PEP     CB27289  12.311  12.465   0.750 -0.0710 -0.2470 -0.0240
  775PEP     CB27290  12.099  12.118   0.503  0.0358 -0.2641  0.3078
  775PEP     CB27291  12.225  11.691   0.516 -0.1813 -0.0566  0.3307
  775PEP     CB27292  12.187  11.214   0.364 -0.1291 -0.0949 -0.1923
  775PEP     CB27293  12.057  10.775   0.343 -0.2835  0.0642  0.0275
  775PEP     CB27294  11.744  10.449   0.569 -0.0292 -0.1901  0.1479
  775PEP     CB27295  11.426  10.273   0.708 -0.0526  0.1740 -0.5593
  775PEP     CB27296  11.014  10.359   0.890  0.1428  0.0244 -0.1320
  775PEP     CB27297  10.614  10.310   0.899 -0.0960 -0.3509  0.0483
  775PEP     CB27298  10.361   9.996   0.668 -0.2462  0.0829 -0.1878
  775PEP     CB27299  10.476   9.780   0.273 -0.4375 -0.1459  0.2737
  775PEP     CB27300  10.867   9.745   0.072  0.2772  0.2053 -0.2133
  775PEP     CB27301  11.248  10.015  -0.162  0.2310  0.2445  0.3216
  775PEP     CB27302  11.568  10.342  -0.330 -0.2591 -0.0737  0.0362
  775PEP     CB27303  11.840  10.668  -0.350 -0.0327  0.3422  0.3281
  775PEP     CB27304  12.216  10.936  -0.356  0.0357 -0.3993 -0.2243
  775PEP     CB27305  12.413  11.378  -0.476  0.4169 -0.0291 -0.2091
  775PEP     CB27306  12.452  11.774  -0.392  0.3693  0.5061 -0.0730
  775PEP     CB27307  12.748  12.075  -0.468  0.2868 -0.5166 -0.3380
  775PEP     CB27308  13.078  12.218  -0.730  0.3629 -0.3323 -0.3314
  775PEP     CB27309  13.439  12.074  -1.022  0.0749  0.0294  0.1958
  775PEP     CB27310  13.595  11.944  -1.438 -0.2217 -0.1374  0.0781
  775PEP     CB27311  13.696  11.987  -1.878  0.0502  0.2871 -0.0935
  775PEP     CB27312  13.659  11.702  -2.169 -0.0892  0.2093 -0.0144
  775PEP     CB27313  13.622  11.249  -2.300  0.0578 -0.3162 -0.1849
  775PEP     CB27314  13.744  10.857  -2.283 -0.2553 -0.0139 -0.4471
  775PEP     CB27315  13.841  10.652  -1.930 -0.1524  0.4016 -0.2166
  775PEP     CB27316  13.763  10.827  -1.549  0.1502  0.1559  0.2676
  775PEP     CB27317  13.547  10.945  -1.148 -0.1735  0.0367 -0.0458
  775PEP     CB27318  13.530  10.988  -0.694 -0.3916  0.3262 -0.5061
  775PEP     CB27319  13.366  11.193  -0.269 -0.2497 -0.3891 -0.1318
  775PEP     CB27320  13.235  11.321   0.088 -0.0747  0.1458  0.3955
  776PEP     CB27321   1.777  11.950  21.072 -0.2540 -0.1303  0.1961
  776PEP     CB27322   1.999  12.265  20.818 -0.0847  0.3332  0.0930
  776PEP     CB27323   2.109  12.396  20.532  0.0228  0.0164 -0.0796
  776PEP     CB27324   2.471  12.542  20.367 -0.0548 -0.2531 -0.0046
  776PEP     CB27325   2.711  12.929  20.315  0.1350  0.0487  0.2186
  776PEP     CB27326   2.573  13.304  20.420 -0.4855 -0.1720  0.1186
  776PEP     CB27327   2.410  13.584  20.599  0.1488 -0.4022 -0.1807
  776PEP     CB27328   2.353  13.696  21.006  0.3967  0.0434  0.0457
  776PEP     CB27329   2.172  13.892  21.328 -0.2642 -0.0484 -0.2599
  776PEP     CB27330   2.205  14.428  21.411 -0.1458  0.2056 -0.2192
  776PEP     CB27331   2.603  14.691  21.345 -0.2510  0.2871 -0.2026
  776PEP     CB27332   3.005  14.506  21.090  0.6020  0.1929 -0.1590
  776PEP     CB27333   3.179  14.179  20.928 -0.0281  0.0729  0.0674
  776PEP     CB27334   3.228  14.065  20.598 -0.2784  0.0583 -0.1480
  776PEP     CB27335   3.064  13.891  20.239  0.0584 -0.1185  0.2289
  776PEP     CB27336   2.724  13.627  20.019 -0.1196 -0.1244  0.6446
  776PEP     CB27337   2.323  13.341  19.992 -0.0132 -0.0532  0.0773
  776PEP     CB27338   2.247  13.078  19.736  0.1118 -0.0392 -0.1576
  776PEP     CB27339   2.128  12.882  19.333 -0.1830 -0.0853  0.0688
  776PEP     CB27340   2.056  12.937  18.916  0.1336  0.0551 -0.3917
  776PEP     CB27341   1.887  12.785  18.563  0.1742  0.1240  0.0350
  776PEP     CB27342   1.688  12.475  18.583 -0.0817 -0.0698 -0.2003
  776PEP     CB27343   1.464  12.235  18.967  0.0442  0.0599  0.4012
  776PEP     CB27344   1.067  12.388  19.024  0.0101  0.1272  0.4298
  776PEP     CB27345   0.961  12.779  19.261  0.0913 -0.1056  0.0514
  776PEP     CB27346   1.043  13.047  19.634 -0.1524 -0.3318 -0.0727
  776PEP     CB27347   1.447  13.124  19.911  0.0273  0.2172 -0.3156
  776PEP     CB27348   1.828  12.932  20.027 -0.1176 -0.3752 -0.3650
  776PEP     CB27349   2.195  12.934  20.380 -0.1161 -0.1729  0.1903
  776PEP     CB27350   2.415  12.937  20.806 -0.4748 -0.1228 -0.1673
  776PEP     CB27351   2.438  12.733  21.208 -0.4374  0.0438 -0.0871
  776PEP     CB27352   2.409  12.540  21.609 -0.2164  0.0634 -0.1760
  776PEP     CB27353   2.194  12.637  21.997 -0.3683 -0.0196  0.1124
  776PEP     CB27354   1.852  12.798  22.288 -0.0808  0.0220 -0.0113
  776PEP     CB27355   1.522  12.642  22.554 -0.1030 -0.0425  0.0546
  776PEP     CB27356   1.187  12.908  22.803 -0.0661 -0.1081  0.2173
  776PEP     CB27357   1.131  13.354  22.533 -0.1268 -0.5341  0.3025
  776PEP     CB27358   1.419  13.471  22.216  0.2018  0.0417  0.0528
  776PEP     CB27359   1.546  13.263  21.814  0.3950 -0.1049 -0.0259
  776PEP     CB27360   1.571  12.851  21.589 -0.1121  0.1062  0.3244
  777PEP     CB27361   3.453   2.804   4.837  0.0815 -0.1552  0.1787
  777PEP     CB27362   3.106   2.614   4.648 -0.0926  0.1183  0.3036
  777PEP     CB27363   2.758   2.314   4.659  0.1436 -0.1508 -0.3315
  777PEP     CB27364   2.403   2.096   4.598 -0.0556 -0.1033  0.0711
  777PEP     CB27365   2.034   2.231   4.721  0.0107 -0.0465  0.0842
  777PEP     CB27366   1.787   2.205   5.079 -0.0118 -0.0837 -0.0531
  777PEP     CB27367   1.461   1.924   5.338 -0.0757 -0.0198  0.2409
  777PEP     CB27368   1.181   1.789   5.589  0.0371  0.3240 -0.1784
  777PEP     CB27369   0.992   1.583   5.898  0.1776 -0.0318 -0.0134
  777PEP     CB27370   0.754   1.428   6.291 -0.1021  0.2926 -0.4241
  777PEP     CB27371   0.471   1.624   6.475  0.4426  0.1202 -0.0784
  777PEP     CB27372   0.562   2.110   6.413  0.4273  0.2888  0.0928
  777PEP     CB27373   0.894   2.165   6.595  0.3151  0.3697 -0.3235
  777PEP     CB27374   1.215   2.432   6.726  0.4049  0.2888 -0.1927
  777PEP     CB27375   1.554   2.787   6.838 -0.0852  0.1562  0.0731
  777PEP     CB27376   1.983   2.847   6.739  0.2522  0.2741  0.1551
  777PEP     CB27377   2.370   2.838   6.483 -0.0979 -0.3239 -0.2991
  777PEP     CB27378   2.676   2.969   6.165  0.2416  0.2854  0.3333
  777PEP     CB27379   3.026   2.928   5.889  0.2272 -0.2606  0.1890
  777PEP     CB27380   3.057   2.569   5.646  0.1623 -0.3950  0.1113
  777PEP     CB27381   2.697   2.198   5.550 -0.1023 -0.3366  0.0129
  777PEP     CB27382   2.462   1.749   5.724  0.3297  0.1949 -0.4156
  777PEP     CB27383   2.178   1.376   5.851 -0.0895  0.0310 -0.2072
  777PEP     CB27384   1.735   1.379   6.007 -0.1636  0.3521 -0.1079
  777PEP     CB27385   1.494   1.756   5.945 -0.2381  0.3945  0.0183
  777PEP     CB27386   1.739   2.083   5.996  0.1859 -0.2743 -0.0179
  777PEP     CB27387   2.186   1.954   6.148  0.3495 -0.1654 -0.6019
  777PEP     CB27388   2.678   1.847   6.145  0.1367  0.0702  0.3301
  777PEP     CB27389   2.966   1.610   6.066 -0.3763 -0.2986 -0.0417
  777PEP     CB27390   2.905   1.360   5.682  0.3266 -0.1530  0.0752
  777PEP     CB27391   2.675   1.489   5.355 -0.1830  0.1002  0.0435
  777PEP     CB27392   2.721   1.808   5.072 -0.1093  0.1841 -0.1567
  777PEP     CB27393   3.253   1.950   4.964  0.0905  0.2351 -0.0445
  777PEP     CB27394   3.602   1.682   5.103 -0.1679  0.0832 -0.0129
  777PEP     CB27395   3.857   1.417   5.261 -0.4215 -0.1791  0.1381
  777PEP     CB27396   4.042   1.048   5.104  0.1024 -0.0057  0.0514
  777PEP     CB27397   4.187   0.673   5.098 -0.0876 -0.1475 -0.1699
  777PEP     CB27398   4.034   0.466   5.485  0.3796  0.1780  0.0822
  777PEP     CB27399   3.611   0.359   5.441  0.2242  0.0122 -0.0958
  777PEP     CB27400   3.283   0.396   5.195  0.5955  0.3030 -0.2885
  778PEP     CB27401  20.109   8.037   1.270  0.2160 -0.1186  0.3130
  778PEP     CB27402  20.504   7.986   1.427 -0.0624 -0.0251  0.0432
  778PEP     CB27403  20.727   8.207   1.765 -0.3160 -0.4081  0.0213
  778PEP     CB27404  21.005   8.570   1.884 -0.2956 -0.0123 -0.1479
  778PEP     CB27405  21.127   8.944   1.892 -0.1862  0.2141 -0.3075
  778PEP     CB27406  21.011   9.272   1.923  0.3543 -0.4082  0.0144
  778PEP     CB27407  21.131   9.745   2.075 -0.2093  0.1465  0.0116
  778PEP     CB27408  21.287  10.229   2.080 -0.4745  0.0906  0.0641
  778PEP     CB27409  21.670  10.440   1.983 -0.1856 -0.2789  0.3319
  778PEP     CB27410  22.022  10.343   1.731 -0.3595  0.3171 -0.0070
  778PEP     CB27411  22.114  10.365   1.273 -0.1202 -0.2643  0.3533
  778PEP     CB27412  21.722  10.063   1.045  0.0738  0.0443 -0.3185
  778PEP     CB27413  21.326   9.847   1.272  0.1173  0.0265 -0.2267
  778PEP     CB27414  20.984  10.034   1.512 -0.0776 -0.0189 -0.3714
  778PEP     CB27415  20.943  10.415   1.645  0.3219  0.2264  0.1191
  778PEP     CB27416  21.060  10.694   1.942  0.1330  0.2240 -0.1843
  778PEP     CB27417  21.156  11.208   1.990 -0.2517  0.1425  0.3303
  778PEP     CB27418  21.129  11.579   1.787 -0.0293  0.1573 -0.2189
  778PEP     CB27419  21.390  11.856   1.784 -0.0388  0.1657 -0.1537
  778PEP     CB27420  21.844  11.730   1.698 -0.0425 -0.0685  0.1182
  778PEP     CB27421  22.059  11.271   1.626  0.0605 -0.0963 -0.2262
  778PEP     CB27422  21.763  10.868   1.528  0.1201  0.1365 -0.1502
  778PEP     CB27423  21.300  10.881   1.383  0.0568  0.3279 -0.1367
  778PEP     CB27424  21.079  11.323   1.334 -0.1548 -0.0412 -0.2729
  778PEP     CB27425  21.200  11.674   1.237 -0.0847 -0.1695 -0.1582
  778PEP     CB27426  21.515  12.030   1.280  0.1124 -0.1770 -0.1173
  778PEP     CB27427  21.777  12.220   1.526  0.0800 -0.3743  0.2649
  778PEP     CB27428  21.688  12.291   1.916  0.0347  0.0294  0.1079
  778PEP     CB27429  21.544  12.643   2.180 -0.0344  0.1465  0.2006
  778PEP     CB27430  21.521  12.972   2.629  0.0512  0.1135 -0.2636
  778PEP     CB27431  21.344  13.057   3.022 -0.3473 -0.1270 -0.0082
  778PEP     CB27432  21.184  13.328   3.373 -0.3067 -0.3836 -0.0553
  778PEP     CB27433  21.046  13.643   3.748  0.1276 -0.0975 -0.4114
  778PEP     CB27434  20.981  14.028   3.649  0.1539  0.2636 -0.1493
  778PEP     CB27435  20.557  14.143   3.489  0.0508  0.1006 -0.2440
  778PEP     CB27436  20.286  13.961   3.187  0.2025 -0.1946  0.1084
  778PEP     CB27437  19.888  13.797   3.006 -0.0096 -0.1317  0.4645
  778PEP     CB27438  19.550  13.587   2.908  0.0317  0.2232 -0.2529
  778PEP     CB27439  19.210  13.434   2.828 -0.4593 -0.1298 -0.0990
  778PEP     CB27440  18.920  13.210   2.557  0.1055  0.1323  0.3563
  779PEP     CB27441  14.234   7.595   1.314  0.4646 -0.2213  0.0985
  779PEP     CB27442  14.038   7.306   1.056 -0.1086 -0.0819  0.1687
  779PEP     CB27443  14.066   6.944   0.818 -0.1511 -0.0235 -0.0688
  779PEP     CB27444  13.885   6.817   0.484  0.0815 -0.4171  0.1467
  779PEP     CB27445  13.446   6.725   0.287 -0.2262 -0.3515 -0.1669
  779PEP     CB27446  13.176   6.777  -0.082 -0.1143 -0.1881 -0.1394
  779PEP     CB27447  12.861   7.041  -0.241  0.0513 -0.1310  0.1446
  779PEP     CB27448  12.519   7.028  -0.477  0.1351  0.3703  0.1039
  779PEP     CB27449  12.087   6.905  -0.560 -0.0989 -0.2269 -0.0805
  779PEP     CB27450  11.673   6.684  -0.657 -0.0387  0.3707 -0.4000
  779PEP     CB27451  11.421   6.705  -1.047  0.7885 -0.3960 -0.0214
  779PEP     CB27452  11.470   6.433  -1.402  0.0742  0.0751 -0.3428
  779PEP     CB27453  11.592   6.062  -1.324  0.7677 -0.5353  0.2688
  779PEP     CB27454  11.528   5.825  -0.898 -0.0227 -0.1698 -0.2132
  779PEP     CB27455  11.342   5.532  -0.602  0.2117 -0.3208  0.3449
  779PEP     CB27456  11.126   5.608  -0.186 -0.2631  0.1817  0.1999
  779PEP     CB27457  10.851   5.952  -0.029  0.4133  0.1409 -0.2920
  779PEP     CB27458  10.741   6.328  -0.057  0.0271  0.2416 -0.1594
  779PEP     CB27459  11.029   6.675  -0.025 -0.2880 -0.4026 -0.2538
  779PEP     CB27460  11.476   6.721  -0.172 -0.2054  0.0094 -0.3515
  779PEP     CB27461  11.798   6.980  -0.176  0.0229  0.1980 -0.0582
  779PEP     CB27462  11.996   7.309  -0.033 -0.2348  0.3689  0.1111
  779PEP     CB27463  12.247   7.536   0.302 -0.1657  0.1961  0.2176
  779PEP     CB27464  12.217   7.679   0.720 -0.2163  0.4100  0.1012
  779PEP     CB27465  12.055   7.625   1.148  0.0242  0.3218 -0.3911
  779PEP     CB27466  12.097   7.464   1.532 -0.0428  0.2473 -0.0087
  779PEP     CB27467  12.244   7.085   1.598  0.2163 -0.4242 -0.4090
  779PEP     CB27468  12.526   6.811   1.306 -0.0662 -0.5748 -0.1602
  779PEP     CB27469  12.443   6.858   0.826  0.2377  0.2136  0.0024
  779PEP     CB27470  12.409   6.726   0.531  0.2163  0.1226  0.0799
  779PEP     CB27471  12.088   6.660   0.256 -0.1233  0.3657  0.0446
  779PEP     CB27472  11.998   6.547  -0.148  0.0519  0.3141  0.0290
  779PEP     CB27473  12.192   6.464  -0.596 -0.1510  0.4771 -0.0083
  779PEP     CB27474  12.403   6.282  -0.946  0.0353  0.2581  0.2605
  779PEP     CB27475  12.416   6.037  -1.229 -0.0951  0.1927 -0.3965
  779PEP     CB27476  12.520   5.741  -1.562  0.1445  0.6947 -0.0801
  779PEP     CB27477  12.464   5.527  -1.926 -0.0215  0.1197  0.0425
  779PEP     CB27478  12.616   5.302  -2.241 -0.0081  0.1703  0.3217
  779PEP     CB27479  12.917   4.875  -2.216 -0.1608  0.4446  0.4600
  779PEP     CB27480  12.950   4.586  -1.937  0.0258 -0.0296 -0.2914
  780PEP     CB27481  15.168  18.702  12.245 -0.1387 -0.1270 -0.0215
  780PEP     CB27482  15.153  18.624  12.724  0.1911  0.3700 -0.1935
  780PEP     CB27483  15.092  18.816  13.094 -0.5097  0.1212 -0.0208
  780PEP     CB27484  14.897  18.840  13.424 -0.4099 -0.0833  0.0272
  780PEP     CB27485  14.745  18.988  13.748 -0.2127 -0.0756 -0.0343
  780PEP     CB27486  14.739  19.093  14.226 -0.3069  0.2459 -0.1267
  780PEP     CB27487  14.590  19.295  14.601 -0.1768  0.0059 -0.0720
  780PEP     CB27488  14.316  19.491  14.930 -0.1472  0.0048  0.3599
  780PEP     CB27489  13.933  19.571  15.113 -0.3875  0.0268  0.2062
  780PEP     CB27490  13.498  19.694  15.157  0.4621  0.3246  0.2714
  780PEP     CB27491  13.037  19.559  15.193  0.4206  0.2448  0.0009
  780PEP     CB27492  12.661  19.355  14.987 -0.0041  0.1331  0.0368
  780PEP     CB27493  12.607  18.956  14.980 -0.1343 -0.1262 -0.4058
  780PEP     CB27494  12.714  18.562  14.849 -0.5788  0.2258  0.2732
  780PEP     CB27495  12.948  18.222  14.740 -0.0990 -0.3118 -0.3123
  780PEP     CB27496  13.309  18.055  14.681 -0.4338 -0.4088  0.5505
  780PEP     CB27497  13.600  17.983  14.339  0.1934 -0.0976 -0.1397
  780PEP     CB27498  13.716  17.827  14.020  0.0478  0.2658 -0.1623
  780PEP     CB27499  13.919  17.922  13.698  0.0861  0.4267 -0.1648
  780PEP     CB27500  14.189  18.239  13.763 -0.5835 -0.0665 -0.0069
  780PEP     CB27501  14.174  18.377  14.155 -0.0955 -0.2757 -0.5031
  780PEP     CB27502  14.021  18.125  14.474 -0.0975  0.0198 -0.0749
  780PEP     CB27503  14.045  17.763  14.699  0.1188 -0.1718  0.1220
  780PEP     CB27504  14.018  17.317  14.680  0.2607 -0.3688 -0.0101
  780PEP     CB27505  14.114  16.983  14.876 -0.0502  0.0770  0.1640
  780PEP     CB27506  14.501  16.827  15.133 -0.0141  0.3151  0.0015
  780PEP     CB27507  14.938  16.829  15.160 -0.0441  0.0883 -0.1853
  780PEP     CB27508  15.224  16.715  14.842 -0.3893 -0.0289 -0.2621
  780PEP     CB27509  15.327  16.365  14.722 -0.3551  0.1702  0.1510
  780PEP     CB27510  15.523  15.916  14.770 -0.0016  0.2890  0.1141
  780PEP     CB27511  15.589  15.511  14.567 -0.2105  0.0472  0.2329
  780PEP     CB27512  15.629  15.268  14.216 -0.2305  0.1273  0.0575
  780PEP     CB27513  15.800  15.309  13.751  0.1412  0.1703  0.0105
  780PEP     CB27514  15.811  15.459  13.326  0.1474 -0.0630  0.3255
  780PEP     CB27515  15.823  15.728  13.079 -0.2726  0.1555 -0.1475
  780PEP     CB27516  15.825  16.124  12.951 -0.1051 -0.1348  0.2619
  780PEP     CB27517  15.769  16.571  12.744 -0.0431 -0.1772 -0.5109
  780PEP     CB27518  15.613  16.955  12.697 -0.0258 -0.0268  0.3585
  780PEP     CB27519  15.631  17.392  12.475 -0.0813 -0.1847  0.2205
  780PEP     CB27520  15.559  17.836  12.367  0.0108  0.1637 -0.1749
  781PEP     CB27521  19.568   6.896  10.320 -0.2566  0.0819  0.2346
  781PEP     CB27522  19.780   6.608  10.058  0.0246  0.3395 -0.2981
  781PEP     CB27523  20.039   6.707   9.711 -0.1919 -0.1276 -0.1842
  781PEP     CB27524  20.290   6.742   9.331 -0.3681  0.0893  0.2407
  781PEP     CB27525  20.762   6.798   9.158  0.1861 -0.1228  0.3495
  781PEP     CB27526  20.897   6.714   8.784 -0.1870 -0.2189 -0.0924
  781PEP     CB27527  21.029   6.431   8.548 -0.0379  0.6427  0.2805
  781PEP     CB27528  20.992   6.046   8.314 -0.4850  0.0595  0.1046
  781PEP     CB27529  21.415   5.904   8.093  0.5439 -0.2535  0.0141
  781PEP     CB27530  21.716   6.111   8.300  0.4050 -0.0770 -0.0696
  781PEP     CB27531  21.518   6.154   8.751 -0.2002  0.0831  0.2241
  781PEP     CB27532  21.134   5.943   8.845  0.0848 -0.2015 -0.0080
  781PEP     CB27533  20.882   5.655   8.654 -0.3114 -0.1355  0.2382
  781PEP     CB27534  20.585   5.232   8.586  0.0106  0.2125  0.1999
  781PEP     CB27535  20.265   4.965   8.574 -0.1577  0.1012  0.1164
  781PEP     CB27536  20.234   4.572   8.603 -0.2075  0.0440 -0.2338
  781PEP     CB27537  20.472   4.187   8.402  0.2615 -0.6959  0.1671
  781PEP     CB27538  20.467   3.813   8.346  0.0204 -0.3008 -0.4291
  781PEP     CB27539  20.620   3.479   8.169  0.3344  0.3126 -0.1387
  781PEP     CB27540  20.816   3.103   7.866 -0.0011  0.0434  0.0194
  781PEP     CB27541  20.910   2.926   7.510 -0.2020  0.2201  0.0099
  781PEP     CB27542  21.071   2.777   7.127  0.2049  0.0030  0.4062
  781PEP     CB27543  21.276   2.667   6.778 -0.2229 -0.0860  0.1125
  781PEP     CB27544  21.687   2.425   6.681  0.2370  0.3057  0.3079
  781PEP     CB27545  21.977   2.295   6.914 -0.5483 -0.1136 -0.3764
  781PEP     CB27546  22.018   2.454   7.308 -0.0192 -0.0920 -0.2776
  781PEP     CB27547  21.643   2.574   7.565 -0.0970 -0.3557  0.0287
  781PEP     CB27548  21.626   2.780   8.064 -0.2678  0.0637  0.0204
  781PEP     CB27549  21.828   2.970   8.404 -0.4362 -0.3385  0.1947
  781PEP     CB27550  22.064   3.301   8.608 -0.2159 -0.2664 -0.3252
  781PEP     CB27551  22.514   3.419   8.688 -0.1354 -0.1736 -0.1104
  781PEP     CB27552  22.965   3.244   8.742 -0.0560  0.1651 -0.1271
  781PEP     CB27553  23.264   2.914   8.907 -0.2175  0.3304 -0.0804
  781PEP     CB27554  23.389   2.581   9.149 -0.0581 -0.0561 -0.3202
  781PEP     CB27555  23.736   2.212   9.144 -0.3208 -0.0632 -0.1822
  781PEP     CB27556  24.202   2.069   9.024  0.0454 -0.0295 -0.0929
  781PEP     CB27557  24.457   1.861   8.944  0.2245  0.2384  0.3343
  781PEP     CB27558  24.733   1.657   8.741  0.0021  0.2097 -0.0766
  781PEP     CB27559  24.829   1.309   8.441  0.0856 -0.2330 -0.2589
  781PEP     CB27560  24.622   0.948   8.281 -0.2184 -0.4027  0.3022
  782PEP     CB27561   1.538   6.797   4.124  0.0617  0.2080  0.2678
  782PEP     CB27562   1.499   6.862   3.673  0.0464  0.0306 -0.4732
  782PEP     CB27563   1.550   6.655   3.265  0.2981 -0.1028  0.1415
  782PEP     CB27564   1.450   6.583   2.816  0.1597  0.3348 -0.2185
  782PEP     CB27565   1.443   6.608   2.362  0.0288 -0.5753 -0.2310
  782PEP     CB27566   1.432   6.386   2.017  0.3124 -0.2904  0.0363
  782PEP     CB27567   1.693   6.206   1.833 -0.1130 -0.2404  0.0521
  782PEP     CB27568   1.946   6.396   1.434 -0.0907 -0.0157  0.4904
  782PEP     CB27569   1.883   6.756   1.226 -0.0851 -0.0450  0.1007
  782PEP     CB27570   1.762   7.160   1.276 -0.0740 -0.1093 -0.0948
  782PEP     CB27571   1.976   7.383   1.582  0.3726 -0.0188 -0.0279
  782PEP     CB27572   2.264   7.302   1.863  0.0115  0.3297 -0.2834
  782PEP     CB27573   2.427   7.101   2.219  0.4554  0.0263  0.0897
  782PEP     CB27574   2.347   6.640   2.457 -0.2299 -0.0036 -0.1278
  782PEP     CB27575   2.438   6.402   2.813  0.1286  0.2939 -0.1084
  782PEP     CB27576   2.558   6.497   3.335  0.0456 -0.2415 -0.1463
  782PEP     CB27577   2.786   6.800   3.613  0.3347 -0.0215 -0.4826
  782PEP     CB27578   2.999   7.070   3.912  0.0605 -0.1423 -0.3812
  782PEP     CB27579   3.058   7.490   3.985  0.1142 -0.0571 -0.2617
  782PEP     CB27580   3.345   7.769   3.971  0.3071 -0.2456 -0.0369
  782PEP     CB27581   3.719   7.911   3.949 -0.1495  0.0569  0.2379
  782PEP     CB27582   3.922   8.318   4.141  0.2927  0.1523 -0.0048
  782PEP     CB27583   3.924   8.671   4.502 -0.0049  0.3692 -0.0122
  782PEP     CB27584   3.985   9.187   4.517 -0.2057  0.1103 -0.1271
  782PEP     CB27585   4.340   9.298   4.642 -0.1265 -0.2416  0.2118
  782PEP     CB27586   4.763   9.170   4.642  0.0896  0.5177 -0.2090
  782PEP     CB27587   5.020   8.781   4.586  0.3467  0.0722  0.2409
  782PEP     CB27588   5.371   8.694   4.490 -0.0067  0.2055  0.3210
  782PEP     CB27589   5.470   8.912   4.086 -0.0099 -0.2222  0.2143
  782PEP     CB27590   5.376   9.312   3.810 -0.1001 -0.1492  0.1778
  782PEP     CB27591   5.197   9.522   3.412 -0.1758  0.4626  0.0915
  782PEP     CB27592   5.248   9.971   3.196 -0.1010  0.4592 -0.3527
  782PEP     CB27593   5.229  10.357   3.384  0.1132 -0.3860 -0.2737
  782PEP     CB27594   5.211  10.411   3.803 -0.0736 -0.0384 -0.1037
  782PEP     CB27595   5.472  10.078   4.124  0.0413  0.0091 -0.1112
  782PEP     CB27596   5.766   9.815   3.978  0.1402  0.0769 -0.2209
  782PEP     CB27597   5.892   9.742   3.517 -0.0679 -0.0744 -0.4204
  782PEP     CB27598   5.966   9.736   3.103 -0.0242 -0.1175  0.4252
  782PEP     CB27599   6.089   9.916   2.711 -0.2946 -0.4374  0.1086
  782PEP     CB27600   6.094  10.275   2.482 -0.2275 -0.4467 -0.0185
  783PEP     CB27601  21.030  14.078  18.806  0.3390 -0.2766 -0.0340
  783PEP     CB27602  20.634  14.264  18.544 -0.4010 -0.2974  0.0786
  783PEP     CB27603  20.117  14.198  18.654  0.2721  0.1628  0.0795
  783PEP     CB27604  19.787  13.987  18.616  0.3727  0.0283 -0.2276
  783PEP     CB27605  19.408  14.082  18.690  0.0393 -0.0273  0.0147
  783PEP     CB27606  19.427  14.189  19.110 -0.0707  0.4102 -0.0469
  783PEP     CB27607  19.842  14.018  19.250 -0.0953 -0.3192 -0.0263
  783PEP     CB27608  20.327  14.097  19.414  0.0640 -0.2901  0.4289
  783PEP     CB27609  20.515  14.271  19.723 -0.3716  0.0516  0.1245
  783PEP     CB27610  20.751  14.530  19.985 -0.2617 -0.0671 -0.1102
  783PEP     CB27611  20.663  14.874  20.276 -0.0995 -0.0778 -0.2289
  783PEP     CB27612  20.731  14.854  20.694 -0.2852  0.0843 -0.0494
  783PEP     CB27613  20.915  14.529  20.962  0.0328 -0.0152  0.2020
  783PEP     CB27614  20.897  14.304  21.296  0.1004  0.0966  0.3896
  783PEP     CB27615  20.986  13.871  21.378 -0.1238  0.0436 -0.1103
  783PEP     CB27616  20.999  13.534  21.059  0.3433  0.1333  0.3233
  783PEP     CB27617  20.834  13.205  20.730  0.4812  0.4861  0.1498
  783PEP     CB27618  20.783  12.993  20.321 -0.2571 -0.1902 -0.3613
  783PEP     CB27619  20.521  12.762  20.074 -0.2390  0.1182 -0.1617
  783PEP     CB27620  20.138  12.646  20.192  0.1262 -0.0276  0.2389
  783PEP     CB27621  19.747  12.815  20.267  0.3978 -0.3866  0.1936
  783PEP     CB27622  19.445  12.887  19.996  0.0494  0.0756 -0.0736
  783PEP     CB27623  19.437  13.214  19.651 -0.0495  0.1471  0.0558
  783PEP     CB27624  19.700  13.485  19.570  0.0467 -0.1011  0.0570
  783PEP     CB27625  20.175  13.660  19.645  0.0264  0.0016 -0.2182
  783PEP     CB27626  20.577  13.666  19.480 -0.2157  0.0704 -0.2954
  783PEP     CB27627  20.991  13.557  19.774  0.2466 -0.1073  0.3229
  783PEP     CB27628  21.136  13.455  20.173 -0.0148  0.1248  0.1373
  783PEP     CB27629  20.975  13.699  20.597 -0.0452 -0.3290  0.2955
  783PEP     CB27630  21.072  14.059  20.888  0.0683  0.2886 -0.3009
  783PEP     CB27631  21.378  14.317  21.007 -0.0788  0.2350 -0.1464
  783PEP     CB27632  21.590  14.684  20.813  0.1478  0.1162  0.0687
  783PEP     CB27633  21.635  15.009  20.592 -0.1623  0.2000 -0.2912
  783PEP     CB27634  21.581  15.464  20.356 -0.2641  0.1095 -0.1027
  783PEP     CB27635  21.512  15.951  20.233  0.3687 -0.1822 -0.1469
  783PEP     CB27636  21.745  16.426  20.106  0.0783 -0.2419 -0.0746
  783PEP     CB27637  22.140  16.590  19.903 -0.1568 -0.4871  0.1867
  783PEP     CB27638  22.587  16.535  19.843 -0.1119 -0.4919 -0.2208
  783PEP     CB27639  23.007  16.631  19.924 -0.2145  0.0358 -0.0694
  783PEP     CB27640  23.396  16.621  20.100  0.2514  0.3685  0.1804
  784PEP     CB27641   3.880  19.028  15.873  0.1751  0.0413 -0.0159
  784PEP     CB27642   3.970  18.916  16.395 -0.0269  0.1679  0.2759
  784PEP     CB27643   4.129  19.153  16.754 -0.2023  0.0633 -0.0358
  784PEP     CB27644   4.470  19.157  16.939 -0.3659 -0.3213  0.7490
  784PEP     CB27645   4.717  18.858  17.001 -0.2411  0.2131 -0.3050
  784PEP     CB27646   4.884  18.474  17.052 -0.4727  0.0441 -0.0430
  784PEP     CB27647   5.160  18.185  16.812  0.0468  0.0340 -0.0070
  784PEP     CB27648   5.100  18.232  16.389 -0.3377 -0.1536  0.0534
  784PEP     CB27649   4.934  18.640  16.325  0.0590  0.2015 -0.1028
  784PEP     CB27650   4.934  19.018  16.450 -0.1069 -0.1987 -0.2317
  784PEP     CB27651   4.821  19.461  16.627  0.1391  0.2442 -0.2603
  784PEP     CB27652   4.848  19.843  16.991 -0.0329 -0.3129 -0.3984
  784PEP     CB27653   4.718  20.204  17.332 -0.3235  0.2754  0.2094
  784PEP     CB27654   4.916  20.413  17.611 -0.2337  0.1119  0.2434
  784PEP     CB27655   4.970  20.492  18.013  0.1055 -0.1261 -0.0564
  784PEP     CB27656   4.995  20.526  18.548 -0.3137  0.0757 -0.2735
  784PEP     CB27657   5.181  20.569  18.964 -0.2768  0.0491 -0.4258
  784PEP     CB27658   5.585  20.495  19.057 -0.0150  0.2555 -0.2606
  784PEP     CB27659   5.883  20.503  18.751  0.2744 -0.1983  0.2410
  784PEP     CB27660   6.260  20.622  18.597 -0.0450 -0.0810 -0.0643
  784PEP     CB27661   6.671  20.536  18.296 -0.0753 -0.1396 -0.1892
  784PEP     CB27662   6.682  20.184  17.971 -0.1625  0.0218  0.2871
  784PEP     CB27663   6.708  19.711  17.910  0.0486 -0.5713  0.1661
  784PEP     CB27664   6.441  19.414  17.816  0.2657  0.0432  0.3738
  784PEP     CB27665   6.026  19.247  17.578 -0.0963 -0.1328 -0.0909
  784PEP     CB27666   5.775  18.882  17.621  0.0435  0.1327  0.1962
  784PEP     CB27667   5.780  18.402  17.829 -0.1439  0.2280  0.2051
  784PEP     CB27668   5.551  18.058  17.726  0.1620  0.3516  0.2846
  784PEP     CB27669   5.350  17.780  17.289 -0.2023  0.1355 -0.2135
  784PEP     CB27670   5.013  17.712  16.978  0.0839 -0.1185  0.2922
  784PEP     CB27671   4.796  17.811  16.584  0.0813  0.0653 -0.5058
  784PEP     CB27672   4.650  17.953  16.279  0.1531  0.0710  0.2904
  784PEP     CB27673   4.788  18.242  15.953 -0.2265  0.1062 -0.0364
  784PEP     CB27674   4.875  18.730  15.802  0.1358  0.2348  0.2052
  784PEP     CB27675   5.008  19.077  15.457  0.0503 -0.1513  0.0791
  784PEP     CB27676   4.948  19.463  15.173 -0.0318  0.0085 -0.0208
  784PEP     CB27677   4.736  19.844  14.912  0.2344 -0.1815 -0.3454
  784PEP     CB27678   4.527  19.999  14.460 -0.1542 -0.0153 -0.1350
  784PEP     CB27679   4.577  20.353  14.185 -0.2609 -0.3503 -0.2776
  784PEP     CB27680   4.762  20.458  13.795 -0.2517  0.3580  0.0799
  785PEP     CB27681  11.266  10.936   9.155 -0.2067 -0.2722  0.2372
  785PEP     CB27682  11.056  11.060   8.739  0.7530 -0.1493  0.1944
  785PEP     CB27683  10.951  11.531   8.419  0.1714  0.6542 -0.1666
  785PEP     CB27684  10.809  11.896   8.342 -0.2073 -0.1089  0.1613
  785PEP     CB27685  11.086  12.266   8.265 -0.1645 -0.4078 -0.0912
  785PEP     CB27686  11.325  12.609   8.126  0.2355  0.1648  0.0653
  785PEP     CB27687  11.354  12.841   7.772  0.0741  0.0759 -0.1362
  785PEP     CB27688  11.627  12.774   7.450  0.2401 -0.0848  0.1458
  785PEP     CB27689  11.771  12.661   6.996  0.0158 -0.1015  0.1052
  785PEP     CB27690  11.682  12.507   6.645 -0.1291  0.2230 -0.1540
  785PEP     CB27691  11.820  12.152   6.410 -0.0680 -0.2588  0.4057
  785PEP     CB27692  12.231  12.064   6.397 -0.0089 -0.1281  0.1918
  785PEP     CB27693  12.487  12.359   6.251  0.4813 -0.1020 -0.1120
  785PEP     CB27694  12.376  12.831   6.287 -0.1593 -0.0078 -0.2004
  785PEP     CB27695  12.077  12.973   6.081  0.3711  0.0892  0.3843
  785PEP     CB27696  11.730  12.902   6.033  0.2929 -0.1006  0.4200
  785PEP     CB27697  11.351  13.022   5.918  0.1589  0.0955 -0.2136
  785PEP     CB27698  11.111  13.040   5.479 -0.1227  0.0425  0.2893
  785PEP     CB27699  10.915  13.137   5.077 -0.1515  0.0280 -0.0001
  785PEP     CB27700  10.928  13.134   4.638 -0.2880  0.3094  0.4705
  785PEP     CB27701  10.794  13.408   4.249 -0.0281 -0.1990  0.3022
  785PEP     CB27702  10.822  13.599   3.865 -0.2677 -0.1232  0.0983
  785PEP     CB27703  10.710  13.875   3.523 -0.2292 -0.0653 -0.3490
  785PEP     CB27704  10.852  13.907   3.140  0.0401 -0.0914  0.0757
  785PEP     CB27705  11.223  13.842   2.943  0.0017 -0.0821  0.2550
  785PEP     CB27706  11.665  13.910   2.962 -0.2146 -0.1111  0.1533
  785PEP     CB27707  12.231  13.983   2.961 -0.0644  0.3833 -0.1201
  785PEP     CB27708  12.545  14.249   2.919  0.3607  0.1364  0.0096
  785PEP     CB27709  12.941  14.306   3.159 -0.2554 -0.5041  0.1958
  785PEP     CB27710  13.414  14.312   3.249  0.1409 -0.1100 -0.1935
  785PEP     CB27711  13.695  14.554   3.425  0.3026  0.0597 -0.0641
  785PEP     CB27712  14.033  14.597   3.546  0.1349  0.0336  0.0175
  785PEP     CB27713  14.309  14.934   3.665 -0.6774  0.0880 -0.2651
  785PEP     CB27714  14.619  15.264   3.457 -0.0938  0.0702  0.2731
  785PEP     CB27715  14.840  15.536   3.309  0.1384  0.0644  0.0492
  785PEP     CB27716  14.990  15.929   3.332  0.1087 -0.1907  0.1828
  785PEP     CB27717  15.145  16.151   3.647 -0.3206 -0.0215 -0.6264
  785PEP     CB27718  15.037  16.432   3.860 -0.1316  0.6551  0.1141
  785PEP     CB27719  14.695  16.750   3.971  0.3998  0.2866  0.0212
  785PEP     CB27720  14.552  17.132   4.191 -0.0915  0.0526  0.2044
  786PEP     CB27721   4.281  14.705  13.529  0.0933 -0.0394  0.3322
  786PEP     CB27722   4.516  14.340  13.593  0.1441  0.1910  0.2171
  786PEP     CB27723   4.539  13.856  13.375  0.1108 -0.1947 -0.2577
  786PEP     CB27724   4.274  13.527  13.505 -0.0901 -0.0304 -0.0670
  786PEP     CB27725   4.148  13.433  14.006  0.0895  0.2996  0.1233
  786PEP     CB27726   4.152  13.667  14.395 -0.2091 -0.0707 -0.1300
  786PEP     CB27727   4.422  13.973  14.385 -0.0119 -0.0496  0.1459
  786PEP     CB27728   4.857  14.262  14.370 -0.2772  0.1044 -0.0553
  786PEP     CB27729   5.042  14.388  14.022  0.0999  0.5621  0.0917
  786PEP     CB27730   4.929  14.675  13.770  0.0091 -0.0523  0.1180
  786PEP     CB27731   4.807  14.681  13.283 -0.0985 -0.3301 -0.2842
  786PEP     CB27732   4.474  14.807  13.094 -0.2481 -0.0509  0.1347
  786PEP     CB27733   3.996  14.968  13.158  0.1354 -0.0995 -0.1378
  786PEP     CB27734   3.853  14.943  13.606  0.0429  0.1730  0.2583
  786PEP     CB27735   4.249  14.943  13.929  0.2573 -0.2285  0.2746
  786PEP     CB27736   4.613  15.082  13.770  0.2092  0.2456 -0.3252
  786PEP     CB27737   4.750  15.576  13.756  0.4399  0.0836  0.0981
  786PEP     CB27738   4.428  15.842  13.664 -0.1077 -0.0624 -0.0205
  786PEP     CB27739   3.999  15.749  13.601 -0.3019 -0.0152 -0.2295
  786PEP     CB27740   3.819  15.472  13.583 -0.2723  0.3028 -0.0467
  786PEP     CB27741   3.384  15.299  13.685 -0.0675 -0.1253 -0.1346
  786PEP     CB27742   2.910  15.193  13.594 -0.0431  0.3266 -0.1408
  786PEP     CB27743   2.504  14.938  13.524  0.0725 -0.1195  0.0798
  786PEP     CB27744   2.317  14.540  13.661 -0.2274 -0.2880 -0.2997
  786PEP     CB27745   2.375  14.174  13.907  0.2366  0.0727 -0.2544
  786PEP     CB27746   2.146  14.144  14.322  0.4935 -0.3529 -0.3255
  786PEP     CB27747   1.877  14.242  14.618 -0.2735  0.0070  0.0618
  786PEP     CB27748   1.742  14.631  14.812  0.2021  0.2007 -0.1090
  786PEP     CB27749   1.813  15.012  14.970  0.5274 -0.1217  0.2662
  786PEP     CB27750   1.609  15.498  15.059 -0.2709  0.1091  0.1454
  786PEP     CB27751   1.820  15.880  15.041 -0.4558 -0.0072  0.0658
  786PEP     CB27752   2.256  15.984  15.117 -0.0338 -0.0456  0.0224
  786PEP     CB27753   2.560  15.948  15.453  0.0372 -0.0989 -0.3899
  786PEP     CB27754   2.930  15.955  15.750  0.4152 -0.0018 -0.1724
  786PEP     CB27755   3.251  15.721  16.086 -0.1290  0.5152 -0.0623
  786PEP     CB27756   3.346  15.537  16.455 -0.2189 -0.0347 -0.0023
  786PEP     CB27757   3.244  15.233  16.732 -0.1238 -0.1974 -0.4562
  786PEP     CB27758   2.919  15.011  16.980  0.1072  0.2071 -0.5712
  786PEP     CB27759   2.786  15.007  17.358 -0.1914  0.2449  0.0926
  786PEP     CB27760   2.986  15.140  17.696 -0.0650  0.1374 -0.2041
  787PEP     CB27761  20.904   5.788   1.038 -0.1772  0.0771  0.0934
  787PEP     CB27762  21.343   5.813   1.118  0.2087 -0.0467 -0.1498
  787PEP     CB27763  21.516   6.157   1.187  0.0033 -0.0745 -0.0852
  787PEP     CB27764  21.266   6.438   1.429  0.3133 -0.0979 -0.1695
  787PEP     CB27765  21.012   6.585   1.761  0.0423 -0.2894 -0.2022
  787PEP     CB27766  20.924   6.623   2.266 -0.1591 -0.1794  0.1448
  787PEP     CB27767  20.625   6.649   2.616 -0.0498 -0.0492  0.0688
  787PEP     CB27768  20.210   6.745   2.546 -0.2591 -0.2668  0.7438
  787PEP     CB27769  19.986   6.944   2.220 -0.1493  0.2807  0.4332
  787PEP     CB27770  19.666   6.855   2.004  0.0339 -0.0474 -0.0810
  787PEP     CB27771  19.303   6.811   1.831  0.2587  0.1879  0.1539
  787PEP     CB27772  18.845   6.759   1.704  0.1418 -0.1140 -0.0006
  787PEP     CB27773  18.594   7.065   1.506  0.1024 -0.1990  0.2555
  787PEP     CB27774  18.833   7.422   1.290  0.3240  0.1158 -0.2121
  787PEP     CB27775  19.239   7.514   1.087  0.0838 -0.1553  0.0835
  787PEP     CB27776  19.545   7.629   0.788 -0.1104  0.0309  0.3028
  787PEP     CB27777  19.664   8.062   0.623  0.4344 -0.0859  0.0147
  787PEP     CB27778  19.490   8.415   0.761  0.3290 -0.1315 -0.0847
  787PEP     CB27779  19.148   8.425   1.152 -0.0625 -0.3979  0.2347
  787PEP     CB27780  18.964   7.967   1.353  0.0958  0.2477  0.4119
  787PEP     CB27781  19.252   7.704   1.554 -0.0383  0.1348 -0.1413
  787PEP     CB27782  19.736   7.625   1.418 -0.0235  0.0362 -0.5442
  787PEP     CB27783  20.044   7.374   1.275 -0.4774  0.2034  0.0875
  787PEP     CB27784  20.447   7.289   1.250 -0.0530  0.3134 -0.3618
  787PEP     CB27785  20.755   7.547   1.473 -0.0704 -0.1024 -0.2551
  787PEP     CB27786  20.608   7.757   1.851 -0.3526 -0.1954 -0.0456
  787PEP     CB27787  20.557   7.916   2.230 -0.4328  0.1098  0.3768
  787PEP     CB27788  20.338   8.071   2.721  0.3957 -0.0269  0.0550
  787PEP     CB27789  20.276   8.038   3.142  0.2326 -0.0274  0.0718
  787PEP     CB27790  19.939   8.119   3.431 -0.1904  0.1559  0.1494
  787PEP     CB27791  19.672   8.390   3.707  0.2241  0.1113 -0.1458
  787PEP     CB27792  19.273   8.621   3.541 -0.0719  0.2823 -0.1076
  787PEP     CB27793  19.001   8.681   3.101 -0.1363 -0.5102  0.1887
  787PEP     CB27794  18.573   8.742   2.902 -0.0449 -0.1743  0.0308
  787PEP     CB27795  18.308   8.477   2.574 -0.1463 -0.3034  0.0061
  787PEP     CB27796  18.292   8.085   2.683  0.0150  0.1242 -0.2264
  787PEP     CB27797  18.317   7.593   2.757 -0.2242 -0.1338 -0.1208
  787PEP     CB27798  18.125   7.258   2.993 -0.2707  0.0541  0.1600
  787PEP     CB27799  17.733   7.014   3.031 -0.1810  0.2759 -0.1116
  787PEP     CB27800  17.280   6.927   2.923  0.1692  0.0568  0.1019
  788PEP     CB27801   4.384   0.795  21.103 -0.0858 -0.0575  0.2413
  788PEP     CB27802   4.322   0.796  20.656 -0.1116  0.2511 -0.3611
  788PEP     CB27803   4.199   1.155  20.299 -0.0160 -0.0698  0.4879
  788PEP     CB27804   3.884   1.285  20.042 -0.3059  0.2800  0.1122
  788PEP     CB27805   3.767   1.141  19.597  0.0589  0.0263  0.0557
  788PEP     CB27806   3.387   1.062  19.441 -0.1059  0.1854 -0.0326
  788PEP     CB27807   3.031   0.698  19.300  0.0092  0.0103  0.1975
  788PEP     CB27808   2.833   0.376  19.136  0.1358  0.0075  0.3631
  788PEP     CB27809   2.818   0.117  18.742 -0.0961 -0.1826  0.0858
  788PEP     CB27810   2.682  -0.207  18.350 -0.2581 -0.5504 -0.0507
  788PEP     CB27811   2.334  -0.586  18.207 -0.2347  0.3475 -0.0575
  788PEP     CB27812   2.113  -0.991  18.368 -0.0006 -0.2376 -0.1600
  788PEP     CB27813   2.196  -1.245  18.641 -0.4393  0.1831  0.0306
  788PEP     CB27814   2.088  -1.690  18.701 -0.0025  0.1290 -0.1860
  788PEP     CB27815   1.880  -1.924  18.323 -0.0398 -0.0550  0.0067
  788PEP     CB27816   1.648  -1.867  17.986  0.0872  0.1311 -0.1131
  788PEP     CB27817   1.312  -1.783  17.646  0.0447  0.3077  0.1055
  788PEP     CB27818   1.210  -2.187  17.400  0.0058  0.2363 -0.1254
  788PEP     CB27819   1.604  -2.491  17.509 -0.0618  0.0519  0.0872
  788PEP     CB27820   1.923  -2.342  17.937 -0.0122 -0.0598  0.2815
  788PEP     CB27821   2.134  -1.943  17.865 -0.2561 -0.0296  0.2588
  788PEP     CB27822   2.372  -1.524  17.756  0.1153 -0.0283 -0.2432
  788PEP     CB27823   2.336  -1.197  17.485 -0.0803 -0.0455  0.1042
  788PEP     CB27824   2.208  -0.878  17.200  0.4377 -0.1168 -0.5478
  788PEP     CB27825   2.326  -0.765  16.763 -0.1039  0.1429  0.2610
  788PEP     CB27826   2.619  -0.919  16.399 -0.3019 -0.1886  0.2070
  788PEP     CB27827   2.973  -1.236  16.282 -0.0316 -0.0152  0.0097
  788PEP     CB27828   3.392  -1.075  16.035 -0.2341  0.0848  0.1901
  788PEP     CB27829   3.788  -1.167  15.871 -0.2326  0.0499 -0.4182
  788PEP     CB27830   4.204  -1.073  15.827 -0.0393  0.0023 -0.1430
  788PEP     CB27831   4.525  -0.757  15.857  0.2403  0.2521 -0.0502
  788PEP     CB27832   4.492  -0.261  15.858 -0.3755  0.1720  0.1774
  788PEP     CB27833   4.497   0.196  16.026  0.6412 -0.2323  0.2240
  788PEP     CB27834   4.773   0.511  16.054  0.2048  0.0266 -0.3407
  788PEP     CB27835   4.865   0.947  16.288 -0.0714 -0.1175  0.0664
  788PEP     CB27836   4.976   1.355  16.036 -0.2747  0.4199  0.5062
  788PEP     CB27837   5.254   1.435  15.731  0.0263  0.1955 -0.0724
  788PEP     CB27838   5.557   1.359  15.453 -0.4905 -0.1394  0.0929
  788PEP     CB27839   5.860   1.311  15.139  0.0260  0.1109  0.0324
  788PEP     CB27840   6.110   1.292  14.731 -0.2602 -0.0348  0.0565
  789PEP     CB27841   2.189  15.180  16.330 -0.0609 -0.3650 -0.0719
  789PEP     CB27842   2.263  15.655  16.514  0.1455  0.1967  0.0621
  789PEP     CB27843   2.152  16.077  16.365 -0.3192  0.0959  0.0882
  789PEP     CB27844   1.731  16.277  16.539 -0.0153  0.0326 -0.0978
  789PEP     CB27845   1.677  16.153  17.011 -0.0378  0.1994 -0.1298
  789PEP     CB27846   1.657  16.071  17.408 -0.2493  0.3680  0.1155
  789PEP     CB27847   1.831  16.400  17.685 -0.4669 -0.4000  0.0607
  789PEP     CB27848   2.284  16.600  17.735  0.0089 -0.3884  0.2313
  789PEP     CB27849   2.417  16.611  17.438  0.3444  0.2311  0.0100
  789PEP     CB27850   2.319  16.546  17.036  0.0909 -0.0761 -0.1103
  789PEP     CB27851   1.948  16.642  16.860 -0.4041 -0.1696  0.0003
  789PEP     CB27852   1.604  16.877  16.922 -0.2905  0.5581  0.1361
  789PEP     CB27853   1.154  16.930  16.921  0.0625 -0.4475  0.4615
  789PEP     CB27854   0.863  16.624  16.817 -0.1805 -0.0776  0.1851
  789PEP     CB27855   0.852  16.411  16.464  0.0045  0.0374  0.2318
  789PEP     CB27856   0.953  16.012  16.151  0.3144  0.0407  0.0604
  789PEP     CB27857   1.198  15.659  16.086  0.1142 -0.1329  0.2280
  789PEP     CB27858   1.504  15.289  16.082  0.0203 -0.0809 -0.0854
  789PEP     CB27859   1.750  14.967  16.253 -0.1373  0.0977  0.1917
  789PEP     CB27860   1.669  14.500  16.371  0.1641  0.2111 -0.2833
  789PEP     CB27861   1.857  14.059  16.465  0.1297  0.1620  0.2211
  789PEP     CB27862   2.164  13.773  16.695 -0.2442 -0.0921  0.2711
  789PEP     CB27863   2.102  13.475  17.038  0.2061  0.0999 -0.2732
  789PEP     CB27864   1.947  12.987  17.196 -0.1713 -0.5428 -0.2325
  789PEP     CB27865   1.836  12.615  17.063  0.1938  0.1609  0.1731
  789PEP     CB27866   1.747  12.333  16.674 -0.2154  0.0237  0.6412
  789PEP     CB27867   1.863  12.262  16.251 -0.1775  0.4448 -0.2053
  789PEP     CB27868   2.214  12.147  15.922 -0.0778 -0.2307 -0.0525
  789PEP     CB27869   2.580  11.910  15.869 -0.0879  0.1713 -0.3561
  789PEP     CB27870   2.985  11.771  15.664 -0.1788 -0.1611  0.3171
  789PEP     CB27871   3.419  11.646  15.513  0.0755 -0.0393 -0.0027
  789PEP     CB27872   3.713  11.267  15.402  0.3005  0.1159 -0.0758
  789PEP     CB27873   3.995  10.960  15.266  0.5236 -0.2371 -0.4152
  789PEP     CB27874   4.338  10.606  15.339 -0.2076 -0.4833  0.0348
  789PEP     CB27875   4.747  10.580  15.350  0.0229 -0.0396  0.4908
  789PEP     CB27876   5.094  10.722  15.235 -0.1350 -0.3584  0.4486
  789PEP     CB27877   5.040  11.149  15.057  0.2380  0.1578 -0.1911
  789PEP     CB27878   4.892  11.327  14.693 -0.1491  0.1666 -0.4126
  789PEP     CB27879   4.496  11.599  14.677  0.4336 -0.0445 -0.1608
  789PEP     CB27880   4.126  11.915  14.764 -0.3227 -0.1732 -0.0981
  790PEP     CB27881   2.778  16.041   1.303  0.1917  0.0222  0.2096
  790PEP     CB27882   3.001  16.118   0.879 -0.1386 -0.2995 -0.2815
  790PEP     CB27883   2.947  16.194   0.450 -0.1499  0.2474 -0.5095
  790PEP     CB27884   2.845  16.577   0.177 -0.2754  0.4832  0.1022
  790PEP     CB27885   2.483  16.775   0.006  0.0040  0.0507  0.0668
  790PEP     CB27886   2.301  17.052  -0.327 -0.1494 -0.4319  0.1391
  790PEP     CB27887   2.385  17.461  -0.526 -0.1781  0.3517  0.0987
  790PEP     CB27888   2.631  17.722  -0.528 -0.2669 -0.2028  0.0650
  790PEP     CB27889   2.956  17.557  -0.236  0.0245  0.0607 -0.2553
  790PEP     CB27890   2.838  17.551   0.260 -0.1812  0.0151 -0.1718
  790PEP     CB27891   2.365  17.673   0.377  0.1556 -0.1779 -0.1678
  790PEP     CB27892   2.239  17.891   0.728 -0.1992  0.2345 -0.5401
  790PEP     CB27893   2.389  17.925   1.198  0.3768 -0.1112  0.3455
  790PEP     CB27894   2.741  17.842   1.495  0.1506 -0.0922  0.2345
  790PEP     CB27895   2.882  17.393   1.630 -0.2644  0.0885 -0.3068
  790PEP     CB27896   2.608  17.023   1.666  0.1278  0.4258  0.2523
  790PEP     CB27897   2.035  17.208   1.603  0.1437 -0.2072  0.1811
  790PEP     CB27898   1.866  17.539   1.741 -0.1162  0.3119 -0.0460
  790PEP     CB27899   1.998  17.924   1.985  0.1855 -0.0342 -0.0416
  790PEP     CB27900   2.294  18.177   2.223  0.0842 -0.0592 -0.0226
  790PEP     CB27901   2.137  18.539   2.362  0.1662  0.1219  0.2494
  790PEP     CB27902   1.778  18.739   2.463  0.0136  0.0928 -0.0982
  790PEP     CB27903   1.574  19.051   2.151 -0.2025  0.2115  0.0595
  790PEP     CB27904   1.419  19.322   1.845 -0.0337  0.1813  0.3341
  790PEP     CB27905   1.096  19.335   1.476  0.2568 -0.2851 -0.1303
  790PEP     CB27906   0.889  18.983   1.166  0.1590 -0.3395  0.0480
  790PEP     CB27907   0.992  18.909   0.768 -0.0380  0.0295 -0.1686
  790PEP     CB27908   1.134  19.112   0.309  0.4230  0.2797  0.2501
  790PEP     CB27909   1.262  19.491   0.020 -0.3451 -0.1570  0.1693
  790PEP     CB27910   1.390  19.945   0.177  0.2565  0.3659 -0.0344
  790PEP     CB27911   1.319  20.263   0.422 -0.1592 -0.1167 -0.1463
  790PEP     CB27912   1.120  20.459   0.851 -0.0084 -0.3819  0.2185
  790PEP     CB27913   0.957  20.208   1.173 -0.5733  0.0358  0.1036
  790PEP     CB27914   0.956  19.732   1.135 -0.2290  0.1590 -0.0995
  790PEP     CB27915   1.148  19.360   0.878  0.0677  0.1886 -0.1418
  790PEP     CB27916   1.434  19.221   0.685 -0.0538  0.4085  0.4505
  790PEP     CB27917   1.821  19.307   0.474 -0.1711  0.3317 -0.1745
  790PEP     CB27918   2.079  19.618   0.555 -0.0946  0.2629 -0.0341
  790PEP     CB27919   2.131  19.896   0.845 -0.3198  0.1298 -0.2843
  790PEP     CB27920   2.340  20.273   1.020 -0.2291  0.0427  0.2061
  791PEP     CB27921  21.983   0.018  12.662  0.0598  0.3152 -0.1817
  791PEP     CB27922  21.967   0.391  12.715  0.0644 -0.1409 -0.2783
  791PEP     CB27923  22.061   0.798  12.608 -0.0943  0.2399 -0.0821
  791PEP     CB27924  22.179   1.223  12.502 -0.3204  0.0953 -0.4333
  791PEP     CB27925  22.550   1.406  12.395  0.0185  0.0285 -0.1617
  791PEP     CB27926  22.913   1.467  12.091 -0.1481 -0.4088 -0.0496
  791PEP     CB27927  23.303   1.539  12.006  0.0213  0.1298  0.2637
  791PEP     CB27928  23.648   1.346  12.132  0.0794 -0.1399 -0.0912
  791PEP     CB27929  24.084   1.231  12.246 -0.0620 -0.0983  0.3719
  791PEP     CB27930  24.480   1.290  12.093 -0.2533  0.0848 -0.0566
  791PEP     CB27931  24.839   1.613  12.015 -0.5874  0.3488  0.2489
  791PEP     CB27932  25.214   1.552  11.768 -0.4122 -0.3639 -0.0979
  791PEP     CB27933  25.445   1.559  11.530  0.1051  0.2683 -0.5502
  791PEP     CB27934  25.778   1.414  11.343  0.3533 -0.1536  0.0026
  791PEP     CB27935  25.899   1.053  11.077  0.1561 -0.2046 -0.0386
  791PEP     CB27936  25.993   0.908  10.672 -0.3051  0.1734  0.0704
  791PEP     CB27937  26.021   0.783  10.308  0.0238 -0.0748  0.2579
  791PEP     CB27938  26.008   0.649   9.913 -0.1083 -0.0149  0.3726
  791PEP     CB27939  25.972   0.465   9.619 -0.5951 -0.0354 -0.0849
  791PEP     CB27940  25.851   0.310   9.125  0.0929  0.3040  0.1447
  791PEP     CB27941  25.831   0.060   8.722 -0.2133  0.0930  0.3504
  791PEP     CB27942  25.810   0.062   8.285  0.1549  0.0221  0.0992
  791PEP     CB27943  25.659   0.304   7.935  0.1102 -0.3005 -0.3088
  791PEP     CB27944  25.266   0.338   7.729 -0.1316 -0.4248  0.3826
  791PEP     CB27945  24.823   0.451   8.015  0.0046 -0.1730  0.3324
  791PEP     CB27946  24.632   0.389   8.421 -0.0844 -0.4095 -0.1256
  791PEP     CB27947  24.152   0.474   8.526 -0.1152 -0.0377 -0.1836
  791PEP     CB27948  23.753   0.552   8.234 -0.0606  0.2754  0.0289
  791PEP     CB27949  23.768   0.394   7.859 -0.3044  0.1224 -0.1458
  791PEP     CB27950  24.058   0.220   7.606 -0.4443  0.0310  0.2469
  791PEP     CB27951  24.233  -0.016   7.388  0.1382 -0.1320  0.5425
  791PEP     CB27952  24.562  -0.149   7.172  0.1346 -0.0998  0.2790
  791PEP     CB27953  24.785  -0.098   6.831  0.3425 -0.2389 -0.3866
  791PEP     CB27954  25.163   0.162   6.701  0.1288  0.2161 -0.2930
  791PEP     CB27955  25.332   0.620   6.787 -0.0394 -0.1104  0.1892
  791PEP     CB27956  25.783   0.866   6.774  0.1984  0.0115  0.0634
  791PEP     CB27957  26.113   1.169   6.908  0.1036  0.0889  0.2384
  791PEP     CB27958  26.044   1.639   6.982  0.0022  0.1286  0.0021
  791PEP     CB27959  25.564   1.692   6.947 -0.1747 -0.0018  0.0465
  791PEP     CB27960  25.195   1.447   6.854  0.0984 -0.0118  0.1844
  792PEP     CB27961   4.273  21.072  11.521  0.1609  0.4335  0.2846
  792PEP     CB27962   4.471  21.476  11.418  0.1112 -0.3760  0.1491
  792PEP     CB27963   4.631  21.773  11.115  0.0924 -0.1774  0.2060
  792PEP     CB27964   4.742  21.785  10.696  0.2038 -0.1091  0.2148
  792PEP     CB27965   4.739  21.938  10.315 -0.1566  0.0131 -0.0397
  792PEP     CB27966   5.100  22.083  10.103  0.3000 -0.3591 -0.3414
  792PEP     CB27967   5.408  22.394  10.005 -0.2183 -0.0687 -0.0676
  792PEP     CB27968   5.810  22.415  10.163  0.0832 -0.0774 -0.4351
  792PEP     CB27969   5.932  22.363  10.563  0.1387  0.0474  0.1243
  792PEP     CB27970   5.698  22.179  10.873 -0.2536 -0.1120 -0.0558
  792PEP     CB27971   5.282  22.278  10.956 -0.2499 -0.2015 -0.1044
  792PEP     CB27972   4.862  22.292  10.657 -0.1822  0.3752  0.3482
  792PEP     CB27973   4.529  22.436  10.443  0.2640  0.4471 -0.0308
  792PEP     CB27974   4.383  22.538  10.070 -0.2677 -0.2300  0.3867
  792PEP     CB27975   4.483  22.545   9.618  0.0047  0.2009 -0.1587
  792PEP     CB27976   4.778  22.393   9.295 -0.1610 -0.2534  0.5261
  792PEP     CB27977   4.871  22.265   8.910  0.3557  0.2099  0.2556
  792PEP     CB27978   4.912  21.881   8.740  0.2118 -0.4894  0.0953
  792PEP     CB27979   4.764  21.674   8.398 -0.0239 -0.0520 -0.4730
  792PEP     CB27980   4.521  21.516   8.024  0.0479 -0.2826 -0.1785
  792PEP     CB27981   4.580  21.471   7.555 -0.1815  0.2805 -0.0337
  792PEP     CB27982   4.387  21.569   7.208 -0.2216 -0.1202  0.2747
  792PEP     CB27983   4.131  21.414   6.924  0.1901  0.1292 -0.0740
  792PEP     CB27984   3.797  21.494   6.624  0.1057 -0.3643  0.0080
  792PEP     CB27985   3.361  21.597   6.720  0.0789  0.1645 -0.1147
  792PEP     CB27986   3.079  21.453   6.981 -0.5506  0.1685 -0.0489
  792PEP     CB27987   2.924  21.577   7.304 -0.1503  0.1438 -0.2614
  792PEP     CB27988   2.543  21.556   7.612  0.0253  0.2598  0.0981
  792PEP     CB27989   2.076  21.556   7.670  0.0894  0.2949  0.0049
  792PEP     CB27990   1.597  21.421   7.722 -0.0104  0.1608  0.1759
  792PEP     CB27991   1.090  21.168   7.765 -0.1761 -0.0673 -0.1654
  792PEP     CB27992   0.867  20.888   7.504  0.4385 -0.1029 -0.4163
  792PEP     CB27993   0.844  20.407   7.580  0.0161  0.2462 -0.1998
  792PEP     CB27994   0.718  20.038   7.845 -0.2587 -0.2902 -0.0011
  792PEP     CB27995   0.489  19.674   8.077  0.0683 -0.0190  0.3379
  792PEP     CB27996   0.693  19.405   8.377  0.0965 -0.1331 -0.4349
  792PEP     CB27997   0.927  19.571   8.637  0.1712 -0.3065 -0.0656
  792PEP     CB27998   1.051  19.651   9.038 -0.1361 -0.0276  0.3178
  792PEP     CB27999   1.048  19.822   9.413  0.4330 -0.2016  0.0451
  792PEP     CB28000   1.374  19.832   9.692 -0.1698  0.1141 -0.2611
  793PEP     CB28001  21.016   4.816  20.498  0.0392  0.2555  0.2687
  793PEP     CB28002  21.462   4.962  20.517 -0.1348  0.2085  0.0083
  793PEP     CB28003  21.816   5.061  20.516  0.0390 -0.3195 -0.1763
  793PEP     CB28004  22.206   5.128  20.542  0.1538 -0.1392 -0.0835
  793PEP     CB28005  22.615   5.017  20.406  0.3324 -0.0752  0.0996
  793PEP     CB28006  22.878   5.317  20.207  0.1517 -0.0523 -0.1712
  793PEP     CB28007  22.991   5.656  20.368 -0.1755 -0.0858  0.0986
  793PEP     CB28008  22.926   5.942  20.769 -0.0796 -0.5457 -0.2382
  793PEP     CB28009  22.684   6.190  20.823 -0.1010 -0.2588  0.2970
  793PEP     CB28010  22.599   6.514  20.544  0.2499  0.3148 -0.3169
  793PEP     CB28011  22.737   6.928  20.368 -0.0576 -0.0608  0.0696
  793PEP     CB28012  22.963   7.308  20.341  0.2912 -0.2571  0.0246
  793PEP     CB28013  22.905   7.662  20.245  0.0643  0.2522 -0.5062
  793PEP     CB28014  22.832   8.095  20.160  0.3856 -0.3424  0.0802
  793PEP     CB28015  22.986   8.473  19.940  0.1771  0.0180  0.2041
  793PEP     CB28016  23.085   8.851  19.690 -0.2231  0.5904  0.1810
  793PEP     CB28017  23.284   9.230  19.716 -0.0129 -0.2906  0.0587
  793PEP     CB28018  23.665   9.321  19.781  0.2940 -0.1761 -0.1715
  793PEP     CB28019  24.082   9.440  19.714 -0.1836 -0.0313  0.4390
  793PEP     CB28020  24.480   9.598  19.466 -0.0266  0.1217  0.0471
  793PEP     CB28021  24.853   9.549  19.191 -0.1426  0.0476  0.1605
  793PEP     CB28022  25.067   9.350  18.875 -0.0798 -0.0369  0.1093
  793PEP     CB28023  25.171   8.923  18.662 -0.1963 -0.1923  0.3634
  793PEP     CB28024  25.215   8.580  19.020  0.2317  0.2572 -0.0087
  793PEP     CB28025  24.897   8.448  19.309  0.3717 -0.1504 -0.0531
  793PEP     CB28026  24.437   8.446  19.251  0.0894 -0.0781 -0.1307
  793PEP     CB28027  24.012   8.512  19.184  0.0553  0.5096 -0.1093
  793PEP     CB28028  23.565   8.299  19.240 -0.0317 -0.1226  0.4121
  793PEP     CB28029  23.276   8.036  19.585 -0.3840  0.4849  0.1140
  793PEP     CB28030  23.299   7.657  19.799  0.2546 -0.2760  0.2891
  793PEP     CB28031  23.495   7.270  20.090  0.1481  0.0643  0.1156
  793PEP     CB28032  23.586   7.030  20.384  0.1060 -0.1308  0.0154
  793PEP     CB28033  23.691   6.868  20.763 -0.0580  0.0673  0.4992
  793PEP     CB28034  23.977   6.732  21.135 -0.3491  0.1711  0.0158
  793PEP     CB28035  24.276   6.625  21.484 -0.2783  0.2258  0.0903
  793PEP     CB28036  24.499   6.398  21.863 -0.2767 -0.0351 -0.4695
  793PEP     CB28037  24.674   5.972  22.089 -0.0212  0.2130  0.2423
  793PEP     CB28038  24.719   5.558  22.231 -0.2214 -0.1879 -0.5682
  793PEP     CB28039  24.789   5.166  22.388  0.0723 -0.3065 -0.1313
  793PEP     CB28040  25.011   4.807  22.295 -0.0393  0.2833 -0.2514
  794PEP     CB28041   5.446  18.618   0.166 -0.4628  0.5635  0.0543
  794PEP     CB28042   5.569  18.725   0.560  0.1673  0.3219 -0.2800
  794PEP     CB28043   5.909  18.734   0.887  0.2545  0.1226  0.0939
  794PEP     CB28044   6.135  19.028   1.288 -0.1263  0.1695  0.1124
  794PEP     CB28045   6.018  19.139   1.721  0.1280  0.0075 -0.2795
  794PEP     CB28046   6.042  19.393   2.137 -0.0849  0.0582 -0.1571
  794PEP     CB28047   5.862  19.605   2.448  0.3220  0.0982 -0.2143
  794PEP     CB28048   5.759  19.545   2.844 -0.1844 -0.0142 -0.2948
  794PEP     CB28049   5.982  19.174   3.038  0.0070  0.3338  0.0211
  794PEP     CB28050   6.182  18.819   2.966 -0.0222  0.2058 -0.3799
  794PEP     CB28051   6.275  18.523   3.223  0.0344 -0.1225  0.2412
  794PEP     CB28052   6.148  18.077   3.305 -0.1966  0.3521 -0.2851
  794PEP     CB28053   6.071  17.639   3.340 -0.0634 -0.0925  0.0786
  794PEP     CB28054   6.333  17.341   3.276  0.3236 -0.1371  0.1337
  794PEP     CB28055   6.480  17.156   2.869 -0.0818  0.0761 -0.2200
  794PEP     CB28056   6.922  16.990   2.671  0.2437  0.1749 -0.1704
  794PEP     CB28057   7.407  16.871   2.809  0.2548 -0.0162 -0.1282
  794PEP     CB28058   7.552  17.058   3.144  0.2813 -0.5572  0.2426
  794PEP     CB28059   7.370  17.330   3.420 -0.0898 -0.1658 -0.2960
  794PEP     CB28060   7.195  17.612   3.464  0.3517 -0.4446  0.1511
  794PEP     CB28061   7.221  18.085   3.439  0.1167  0.3328 -0.4246
  794PEP     CB28062   7.130  18.371   3.138  0.3906  0.2134  0.0676
  794PEP     CB28063   7.085  18.190   2.737  0.0380  0.1312 -0.1509
  794PEP     CB28064   7.257  17.942   2.401 -0.0800  0.5576  0.0574
  794PEP     CB28065   7.691  17.847   2.197 -0.5717  0.0976  0.0603
  794PEP     CB28066   8.090  17.806   2.065  0.3487 -0.4413  0.1361
  794PEP     CB28067   8.498  17.852   1.919 -0.3730 -0.0850 -0.0665
  794PEP     CB28068   8.961  17.902   1.718  0.2714  0.2891  0.0236
  794PEP     CB28069   9.349  17.661   1.625  0.0105 -0.2220 -0.1266
  794PEP     CB28070   9.860  17.485   1.660  0.3099  0.0115 -0.1342
  794PEP     CB28071  10.255  17.410   1.804 -0.1584 -0.3504 -0.2740
  794PEP     CB28072  10.591  17.244   2.077 -0.4367  0.0027 -0.0012
  794PEP     CB28073  10.994  17.195   2.013  0.2452 -0.2689 -0.0077
  794PEP     CB28074  11.345  17.205   1.831 -0.3731  0.4174 -0.0783
  794PEP     CB28075  11.697  17.338   1.722  0.3286 -0.6485  0.0317
  794PEP     CB28076  11.904  17.650   1.469  0.0253 -0.1644  0.1045
  794PEP     CB28077  11.668  17.970   1.219 -0.0700  0.1379 -0.0469
  794PEP     CB28078  11.243  18.076   0.961 -0.1863  0.0868  0.0092
  794PEP     CB28079  10.889  18.149   0.819 -0.0826  0.3541  0.2020
  794PEP     CB28080  10.499  18.459   0.736  0.0641 -0.0881  0.2471
  795PEP     CB28081  12.376   4.078  13.108  0.0268  0.0741  0.0522
  795PEP     CB28082  12.667   3.826  12.920  0.0124  0.5570  0.2034
  795PEP     CB28083  12.815   3.423  12.835  0.4111 -0.0397 -0.0521
  795PEP     CB28084  12.854   3.042  12.921  0.0990  0.1538 -0.1724
  795PEP     CB28085  13.092   2.661  13.009  0.0186  0.2535  0.0081
  795PEP     CB28086  13.541   2.546  12.925 -0.2008 -0.0679 -0.2786
  795PEP     CB28087  13.738   2.612  12.625  0.0530 -0.3483  0.5177
  795PEP     CB28088  13.915   2.753  12.222  0.0716 -0.2375 -0.0080
  795PEP     CB28089  13.847   2.958  11.812  0.0939  0.0390  0.3210
  795PEP     CB28090  13.493   3.098  11.565 -0.2624  0.0792  0.5261
  795PEP     CB28091  13.103   2.845  11.496  0.0071  0.4668  0.1849
  795PEP     CB28092  13.082   2.519  11.101  0.0630 -0.1677  0.2556
  795PEP     CB28093  13.214   2.125  11.025  0.5790  0.0317 -0.0546
  795PEP     CB28094  13.464   1.927  11.282  0.0448 -0.1531  0.1002
  795PEP     CB28095  13.786   2.170  11.450  0.1098  0.0206  0.1577
  795PEP     CB28096  14.000   2.544  11.319  0.0294 -0.3195  0.0418
  795PEP     CB28097  13.996   2.904  11.187  0.0783  0.0583 -0.3791
  795PEP     CB28098  14.267   3.311  11.091  0.1726 -0.2039 -0.6573
  795PEP     CB28099  14.518   3.683  11.032 -0.0453 -0.1128  0.1830
  795PEP     CB28100  14.772   4.028  11.255  0.1393  0.0717 -0.0828
  795PEP     CB28101  14.966   4.359  11.445  0.0865 -0.5664 -0.0380
  795PEP     CB28102  15.001   4.849  11.321  0.0431 -0.1495 -0.1648
  795PEP     CB28103  14.839   4.998  10.893  0.0920 -0.0141 -0.0646
  795PEP     CB28104  14.636   4.748  10.656  0.1573  0.2296 -0.1603
  795PEP     CB28105  14.856   4.481  10.398 -0.1216 -0.1548 -0.0607
  795PEP     CB28106  15.246   4.421  10.161 -0.1244  0.0942  0.2041
  795PEP     CB28107  15.358   4.577   9.774  0.1776  0.0642  0.1429
  795PEP     CB28108  15.035   4.584   9.444 -0.2352  0.3307 -0.1065
  795PEP     CB28109  14.737   4.270   9.399  0.1878 -0.3026 -0.1039
  795PEP     CB28110  14.300   4.111   9.385 -0.0064 -0.0136 -0.3896
  795PEP     CB28111  13.857   4.292   9.186 -0.3266  0.0520  0.0444
  795PEP     CB28112  13.344   4.232   9.142  0.0183 -0.1264 -0.0826
  795PEP     CB28113  12.949   4.320   8.902  0.0620 -0.0256  0.2823
  795PEP     CB28114  12.564   4.516   8.996  0.0750 -0.2055  0.2329
  795PEP     CB28115  12.438   4.909   8.968 -0.2048  0.0761  0.2237
  795PEP     CB28116  12.412   5.195   8.585 -0.1095  0.1754  0.0580
  795PEP     CB28117  12.240   5.191   8.126 -0.1977 -0.4846  0.3749
  795PEP     CB28118  11.908   5.385   7.800  0.1039  0.1616 -0.2756
  795PEP     CB28119  11.774   5.714   7.492  0.1927  0.1677 -0.1697
  795PEP     CB28120  11.937   6.056   7.462  0.5663  0.3487  0.2699
  796PEP     CB28121   0.905   8.423   3.755  0.1422  0.5096 -0.0677
  796PEP     CB28122   1.157   8.596   3.442 -0.0777 -0.1200 -0.2028
  796PEP     CB28123   1.635   8.490   3.201 -0.1768 -0.1407 -0.0056
  796PEP     CB28124   1.885   8.633   2.897 -0.2239 -0.0469 -0.3042
  796PEP     CB28125   1.889   8.633   2.501  0.2620 -0.2052  0.1228
  796PEP     CB28126   1.672   8.617   2.134 -0.4441  0.3060  0.2395
  796PEP     CB28127   1.495   8.700   1.862 -0.0243 -0.0888 -0.3498
  796PEP     CB28128   1.184   9.023   1.771  0.4960  0.2670 -0.1634
  796PEP     CB28129   0.932   9.206   1.512  0.2079 -0.2037  0.0233
  796PEP     CB28130   0.549   9.227   1.219 -0.1203 -0.1666 -0.3418
  796PEP     CB28131   0.110   9.196   1.177  0.0854  0.1665  0.1366
  796PEP     CB28132  -0.127   9.313   0.841  0.2282 -0.1439 -0.3388
  796PEP     CB28133  -0.150   9.559   0.526  0.2106  0.0160 -0.1562
  796PEP     CB28134   0.122   9.573   0.165 -0.0136 -0.3762  0.1421
  796PEP     CB28135   0.421   9.271  -0.005  0.2414  0.1766 -0.0292
  796PEP     CB28136   0.379   8.836  -0.012  0.6111 -0.0950 -0.6140
  796PEP     CB28137   0.134   8.682   0.253 -0.0664  0.5184 -0.1594
  796PEP     CB28138   0.133   8.883   0.585  0.0483 -0.1579  0.1319
  796PEP     CB28139   0.323   9.256   0.630 -0.0185 -0.3267  0.0373
  796PEP     CB28140   0.334   9.722   0.583  0.2797 -0.2667 -0.1686
  796PEP     CB28141   0.175  10.038   0.706 -0.1937  0.4600 -0.3921
  796PEP     CB28142   0.087  10.409   0.634  0.0979 -0.2740 -0.3030
  796PEP     CB28143   0.314  10.767   0.474  0.0965  0.1298 -0.0675
  796PEP     CB28144   0.718  10.927   0.538  0.3323 -0.3053 -0.0892
  796PEP     CB28145   0.997  11.279   0.761  0.2455 -0.0017 -0.0149
  796PEP     CB28146   1.048  11.470   1.139 -0.0916  0.2265  0.2160
  796PEP     CB28147   0.948  11.338   1.592  0.2086  0.0164  0.0697
  796PEP     CB28148   0.732  11.042   1.932 -0.1424 -0.1110  0.3319
  796PEP     CB28149   0.597  10.885   2.340  0.1494  0.4201 -0.1711
  796PEP     CB28150   0.742  10.932   2.791  0.1425 -0.1241  0.0279
  796PEP     CB28151   0.950  11.155   2.991 -0.0284 -0.0013  0.0920
  796PEP     CB28152   1.150  11.524   2.965  0.6124  0.2164  0.5767
  796PEP     CB28153   1.075  11.839   2.751 -0.1208  0.3041  0.0420
  796PEP     CB28154   1.066  12.134   2.382 -0.3592  0.0147  0.0804
  796PEP     CB28155   0.856  12.330   2.089  0.2572  0.4647 -0.1263
  796PEP     CB28156   0.564  12.296   1.707  0.3472 -0.0848  0.0058
  796PEP     CB28157   0.403  11.850   1.589 -0.2525  0.0707  0.2714
  796PEP     CB28158   0.491  11.489   1.774 -0.0550  0.0301  0.0398
  796PEP     CB28159   0.655  11.440   2.171  0.2255 -0.3048 -0.3590
  796PEP     CB28160   0.712  11.370   2.554  0.3145 -0.0152 -0.2730
  797PEP     CB28161   8.840  10.319   5.875 -0.3256 -0.1007  0.1787
  797PEP     CB28162   9.266  10.564   5.773  0.2435 -0.2727  0.1567
  797PEP     CB28163   9.660  10.591   5.795  0.0798 -0.0414  0.0525
  797PEP     CB28164   9.976  10.954   5.603 -0.0514  0.4596  0.3103
  797PEP     CB28165   9.795  11.231   5.356  0.0021 -0.0772 -0.0905
  797PEP     CB28166   9.373  11.314   5.221 -0.0462  0.0248 -0.0946
  797PEP     CB28167   9.359  11.806   5.015 -0.3065  0.0723 -0.3019
  797PEP     CB28168   9.641  12.063   5.242  0.1811  0.0815 -0.2191
  797PEP     CB28169   9.981  12.290   5.379 -0.1972 -0.2349  0.2143
  797PEP     CB28170  10.103  12.763   5.394 -0.1229 -0.1675 -0.1715
  797PEP     CB28171  10.012  13.115   5.155  0.1678  0.1334 -0.0820
  797PEP     CB28172   9.644  13.483   4.964 -0.1562 -0.4356  0.3067
  797PEP     CB28173   9.454  13.772   4.824 -0.1264  0.0439 -0.1712
  797PEP     CB28174   9.064  14.054   4.737 -0.3754  0.0902 -0.3990
  797PEP     CB28175   8.663  14.000   4.481  0.3417 -0.0748  0.0662
  797PEP     CB28176   8.618  13.712   4.143 -0.3466 -0.1661 -0.3057
  797PEP     CB28177   8.923  13.515   3.926  0.1034  0.1466 -0.0423
  797PEP     CB28178   9.416  13.223   4.057  0.0254  0.2110  0.0045
  797PEP     CB28179   9.591  12.941   4.386 -0.1110  0.3854  0.0411
  797PEP     CB28180   9.509  12.598   4.671 -0.0862 -0.0398 -0.0572
  797PEP     CB28181   9.606  12.193   4.747  0.1176 -0.0057  0.0267
  797PEP     CB28182   9.840  11.799   4.634  0.0416  0.0271 -0.1797
  797PEP     CB28183  10.064  11.506   4.831  0.4428  0.0609 -0.0816
  797PEP     CB28184  10.414  11.285   5.071 -0.2814 -0.0901  0.1979
  797PEP     CB28185  10.532  11.198   5.426 -0.3960  0.1260  0.5252
  797PEP     CB28186  10.511  11.442   5.888  0.1383 -0.2051  0.0886
  797PEP     CB28187  10.462  11.755   6.106  0.5530 -0.5059 -0.3122
  797PEP     CB28188  10.097  11.818   6.113  0.5134  0.3166 -0.1177
  797PEP     CB28189   9.813  11.893   5.784 -0.1116 -0.3776  0.1114
  797PEP     CB28190   9.417  11.829   5.649 -0.1749 -0.3552  0.0321
  797PEP     CB28191   9.063  11.864   5.365 -0.2068 -0.0767 -0.0287
  797PEP     CB28192   8.775  11.951   5.064 -0.2343 -0.1333 -0.0295
  797PEP     CB28193   8.749  11.949   4.641 -0.1171 -0.0963 -0.1694
  797PEP     CB28194   8.699  11.722   4.192 -0.1375 -0.2516  0.0796
  797PEP     CB28195   8.800  11.394   3.963 -0.3624  0.2271  0.0878
  797PEP     CB28196   8.968  11.231   3.720 -0.0473 -0.3575 -0.1085
  797PEP     CB28197   9.409  11.041   3.719  0.0188 -0.0754 -0.0233
  797PEP     CB28198   9.701  10.727   3.816  0.2177  0.0883  0.3042
  797PEP     CB28199  10.034  10.459   3.772  0.2812 -0.2796  0.2397
  797PEP     CB28200  10.278  10.151   3.919  0.2476  0.1886  0.1289
  798PEP     CB28201   3.523   1.320   0.484 -0.0140 -0.0747 -0.0612
  798PEP     CB28202   3.244   1.302   0.205 -0.0963 -0.0403 -0.2018
  798PEP     CB28203   2.920   1.234   0.003  0.3090  0.1536  0.2856
  798PEP     CB28204   2.650   1.454   0.109  0.3750 -0.1014 -0.4554
  798PEP     CB28205   2.760   1.665   0.463 -0.0218 -0.0725  0.1472
  798PEP     CB28206   3.224   1.684   0.617 -0.0983 -0.0124 -0.4226
  798PEP     CB28207   3.623   1.835   0.579 -0.3923 -0.3009 -0.0007
  798PEP     CB28208   3.813   2.145   0.840  0.1506  0.0942 -0.5323
  798PEP     CB28209   4.056   1.972   1.055  0.0462 -0.1906  0.0039
  798PEP     CB28210   3.992   1.679   1.403 -0.1074 -0.0209 -0.2241
  798PEP     CB28211   3.697   1.287   1.416  0.0609  0.0054  0.0045
  798PEP     CB28212   3.481   0.935   1.439  0.3073 -0.2487  0.0403
  798PEP     CB28213   3.238   0.845   1.861 -0.3768  0.0790 -0.0333
  798PEP     CB28214   3.189   1.166   2.131  0.3612  0.0115  0.1249
  798PEP     CB28215   3.098   1.635   2.071 -0.0529  0.0715 -0.1299
  798PEP     CB28216   2.901   1.992   2.180 -0.3855  0.4305 -0.2191
  798PEP     CB28217   3.000   2.351   2.557  0.2269  0.0106  0.2531
  798PEP     CB28218   2.940   2.776   2.476 -0.0944 -0.2820 -0.3747
  798PEP     CB28219   2.482   2.933   2.396  0.1235  0.6085  0.0448
  798PEP     CB28220   2.110   2.661   2.435 -0.1690 -0.0442 -0.1799
  798PEP     CB28221   1.920   2.345   2.234  0.2428 -0.4890  0.0895
  798PEP     CB28222   2.214   2.049   2.054  0.1169 -0.1008  0.0599
  798PEP     CB28223   2.439   2.010   2.375  0.4869 -0.2817  0.1610
  798PEP     CB28224   2.306   1.958   2.821 -0.0178  0.2045  0.0060
  798PEP     CB28225   2.031   1.672   2.961 -0.4263  0.3356  0.0032
  798PEP     CB28226   1.947   1.326   2.740 -0.0489 -0.2113 -0.1435
  798PEP     CB28227   2.206   0.965   2.650  0.0432 -0.0139 -0.0960
  798PEP     CB28228   2.398   0.790   2.216 -0.2974 -0.0966  0.0059
  798PEP     CB28229   2.231   0.665   1.847 -0.4541  0.1411 -0.0999
  798PEP     CB28230   2.052   0.334   1.618 -0.2512 -0.2382 -0.0236
  798PEP     CB28231   1.789  -0.166   1.548 -0.1369 -0.1085 -0.1579
  798PEP     CB28232   1.788  -0.522   1.408  0.0469  0.0627 -0.0780
  798PEP     CB28233   1.864  -0.710   0.967 -0.1068  0.0269 -0.0919
  798PEP     CB28234   1.599  -1.044   0.809 -0.4413  0.0077  0.0286
  798PEP     CB28235   1.353  -1.258   0.517  0.2139  0.0820  0.0371
  798PEP     CB28236   0.889  -1.571   0.410 -0.0533  0.0842  0.1194
  798PEP     CB28237   0.599  -1.767   0.072 -0.3667 -0.2712 -0.0596
  798PEP     CB28238   0.255  -2.159  -0.139 -0.1596  0.1410 -0.0518
  798PEP     CB28239   0.194  -2.583  -0.241 -0.0116  0.3105 -0.2297
  798PEP     CB28240   0.104  -2.975  -0.377 -0.0958  0.0859 -0.0697
  799PEP     CB28241   2.885   3.320  16.980  0.2774 -0.3473  0.3149
  799PEP     CB28242   2.508   3.638  17.018 -0.1677  0.1142  0.1745
  799PEP     CB28243   2.372   3.864  17.396  0.2068 -0.0288 -0.0183
  799PEP     CB28244   2.499   3.996  17.801  0.0142  0.0530  0.5266
  799PEP     CB28245   2.738   4.396  17.958 -0.0141 -0.0193  0.1882
  799PEP     CB28246   2.837   4.831  18.045  0.3106 -0.0159 -0.1193
  799PEP     CB28247   2.460   5.063  18.137 -0.6245  0.1116 -0.1163
  799PEP     CB28248   2.158   5.066  17.990  0.0507  0.2731  0.0446
  799PEP     CB28249   1.801   4.723  17.862 -0.0811  0.0256 -0.4330
  799PEP     CB28250   1.775   4.435  17.636 -0.1075  0.2214  0.0907
  799PEP     CB28251   2.011   4.310  17.318  0.1898  0.0032  0.3670
  799PEP     CB28252   2.270   4.139  16.963 -0.1489 -0.1586 -0.1860
  799PEP     CB28253   2.187   3.987  16.530  0.2452  0.4875 -0.0932
  799PEP     CB28254   1.895   4.136  16.229  0.2150  0.0608  0.1925
  799PEP     CB28255   1.663   4.110  15.859 -0.1097  0.0212  0.2449
  799PEP     CB28256   1.487   3.750  15.771  0.0168  0.1914 -0.2216
  799PEP     CB28257   1.501   3.329  15.771 -0.3162 -0.5173 -0.3200
  799PEP     CB28258   1.477   2.816  15.811  0.3382  0.2806  0.5137
  799PEP     CB28259   1.168   2.536  15.839 -0.0794 -0.1399 -0.2493
  799PEP     CB28260   0.710   2.564  15.722  0.4951 -0.0072  0.3609
  799PEP     CB28261   0.347   2.557  15.939 -0.2010 -0.0484 -0.2775
  799PEP     CB28262  -0.077   2.553  16.040  0.0799  0.0714  0.3699
  799PEP     CB28263  -0.431   2.653  16.334  0.0366 -0.1261 -0.4622
  799PEP     CB28264  -0.674   2.996  16.558 -0.2051  0.3766 -0.1725
  799PEP     CB28265  -0.651   3.393  16.711  0.0200 -0.0028  0.1591
  799PEP     CB28266  -0.875   3.831  16.622  0.2064  0.2962 -0.2917
  799PEP     CB28267  -0.995   4.108  16.315 -0.0790 -0.0931 -0.2239
  799PEP     CB28268  -1.260   4.360  16.099  0.0523  0.2152 -0.1032
  799PEP     CB28269  -1.615   4.510  15.752  0.2222  0.4015 -0.0022
  799PEP     CB28270  -1.994   4.568  15.561  0.0139 -0.0258 -0.0097
  799PEP     CB28271  -2.174   4.500  15.196 -0.5725 -0.2267  0.1956
  799PEP     CB28272  -2.433   4.351  14.919 -0.0545 -0.0916  0.0552
  799PEP     CB28273  -2.743   4.171  14.618 -0.0920  0.2874  0.1030
  799PEP     CB28274  -2.994   4.126  14.234 -0.0096  0.0985 -0.0303
  799PEP     CB28275  -3.270   4.230  13.988 -0.1093 -0.2998 -0.0715
  799PEP     CB28276  -3.310   4.187  13.607  0.0835 -0.1487  0.0404
  799PEP     CB28277  -3.584   4.080  13.311 -0.3563  0.0472 -0.1255
  799PEP     CB28278  -3.567   3.655  13.080  0.0852  0.1415  0.5396
  799PEP     CB28279  -3.523   3.216  13.273 -0.2619 -0.1079  0.1674
  799PEP     CB28280  -3.578   3.027  13.638 -0.0303 -0.0347 -0.2487
  800PEP     CB28281   2.679  16.320  11.132 -0.0071  0.4249  0.2520
  800PEP     CB28282   2.283  16.077  11.206  0.0630  0.3471 -0.3218
  800PEP     CB28283   2.097  15.727  11.094  0.2920 -0.3750 -0.3454
  800PEP     CB28284   1.869  15.448  11.190  0.0645  0.1556 -0.1217
  800PEP     CB28285   1.516  15.263  11.463  0.2941  0.1718  0.0495
  800PEP     CB28286   1.054  15.205  11.603  0.0063  0.3121 -0.0950
  800PEP     CB28287   0.641  15.064  11.778 -0.1841  0.1135  0.0385
  800PEP     CB28288   0.109  14.915  11.889 -0.4870  0.0959 -0.1271
  800PEP     CB28289  -0.220  14.659  11.796 -0.0438 -0.1306 -0.1818
  800PEP     CB28290  -0.729  14.624  11.740  0.2651  0.1363  0.1059
  800PEP     CB28291  -1.011  14.632  11.448  0.0494  0.0842 -0.0369
  800PEP     CB28292  -1.385  14.330  11.297 -0.4258 -0.1196  0.2434
  800PEP     CB28293  -1.426  13.897  11.418 -0.0319  0.1743  0.2283
  800PEP     CB28294  -1.492  13.747  11.789 -0.1045  0.0566  0.0088
  800PEP     CB28295  -1.512  13.875  12.244 -0.0986  0.2797 -0.2001
  800PEP     CB28296  -1.605  13.817  12.653 -0.1166 -0.1624  0.4080
  800PEP     CB28297  -1.707  13.831  13.094  0.4693 -0.2279  0.2963
  800PEP     CB28298  -1.915  13.919  13.513  0.4115 -0.0792 -0.3163
  800PEP     CB28299  -2.294  14.121  13.715 -0.0673  0.2186 -0.3155
  800PEP     CB28300  -2.466  14.497  13.832  0.2018  0.0508 -0.2617
  800PEP     CB28301  -2.896  14.733  13.715 -0.1965 -0.2685  0.0074
  800PEP     CB28302  -3.003  14.779  13.335  0.4399  0.1295 -0.1619
  800PEP     CB28303  -2.911  14.518  13.035  0.0418 -0.1087 -0.1394
  800PEP     CB28304  -2.660  14.158  12.919  0.3904 -0.0573 -0.1445
  800PEP     CB28305  -2.513  13.765  12.747  0.0439  0.0252 -0.2859
  800PEP     CB28306  -2.775  13.445  12.630 -0.4319 -0.2794  0.3570
  800PEP     CB28307  -3.044  13.259  12.328  0.3564 -0.0587  0.4803
  800PEP     CB28308  -3.128  13.010  11.978 -0.3034 -0.3573  0.0471
  800PEP     CB28309  -3.006  12.611  11.726  0.0137  0.6074  0.1517
  800PEP     CB28310  -2.891  12.183  11.823  0.0895 -0.2243 -0.2483
  800PEP     CB28311  -2.763  11.970  12.283  0.0679 -0.1227  0.1411
  800PEP     CB28312  -2.557  11.713  12.554 -0.0953  0.0080  0.4847
  800PEP     CB28313  -2.554  11.323  12.893  0.0273  0.2275  0.2109
  800PEP     CB28314  -2.937  11.083  12.888 -0.0602 -0.3493 -0.3128
  800PEP     CB28315  -3.240  11.103  12.616  0.0188  0.0064 -0.2196
  800PEP     CB28316  -3.666  11.158  12.502 -0.0812  0.3087  0.3546
  800PEP     CB28317  -4.065  11.212  12.592 -0.2248  0.2171  0.0050
  800PEP     CB28318  -4.387  10.970  12.795  0.0225 -0.2311  0.2063
  800PEP     CB28319  -4.375  10.631  12.917 -0.0940  0.0110 -0.3309
  800PEP     CB28320  -4.154  10.231  12.948  0.2541  0.5507 -0.0589
  801PEP     CB28321  10.796   8.959  14.024  0.1052  0.1909  0.2119
  801PEP     CB28322  10.471   9.128  14.308 -0.2255  0.3042 -0.2023
  801PEP     CB28323  10.425   9.415  14.663 -0.3052 -0.0998  0.0267
  801PEP     CB28324  10.620   9.582  14.941 -0.1385 -0.3389  0.2791
  801PEP     CB28325  10.711   9.509  15.327 -0.0461 -0.2059 -0.1792
  801PEP     CB28326  10.673   9.487  15.761  0.2095  0.3412 -0.2088
  801PEP     CB28327  10.586   9.457  16.266  0.1317 -0.0034 -0.2136
  801PEP     CB28328  10.863   9.390  16.637  0.0851  0.1608  0.3738
  801PEP     CB28329  11.173   9.093  16.713 -0.1218  0.0306  0.1702
  801PEP     CB28330  11.301   8.728  16.562 -0.2431  0.0992 -0.1230
  801PEP     CB28331  11.596   8.350  16.509  0.0884 -0.1860  0.6807
  801PEP     CB28332  11.656   8.124  16.170 -0.2777 -0.2668  0.3388
  801PEP     CB28333  11.347   8.175  15.743 -0.2145 -0.0855 -0.4824
  801PEP     CB28334  11.026   8.524  15.824 -0.3447 -0.1340 -0.1645
  801PEP     CB28335  11.227   8.850  16.138 -0.3541 -0.0452 -0.4054
  801PEP     CB28336  11.679   8.758  16.178 -0.2209  0.0638  0.0517
  801PEP     CB28337  12.084   8.453  16.105 -0.3727  0.3765 -0.2739
  801PEP     CB28338  12.272   8.100  16.276 -0.1226  0.4056 -0.1848
  801PEP     CB28339  12.628   7.761  16.299  0.3775  0.2270  0.1272
  801PEP     CB28340  13.063   7.773  16.214  0.3023 -0.6263  0.0271
  801PEP     CB28341  13.400   8.047  16.070 -0.0382 -0.4877 -0.1527
  801PEP     CB28342  13.461   8.496  16.080  0.0821  0.4023 -0.5734
  801PEP     CB28343  13.483   8.852  16.316 -0.1925  0.2268  0.1614
  801PEP     CB28344  13.646   9.218  16.484  0.3588  0.0689  0.1954
  801PEP     CB28345  13.894   9.581  16.749 -0.0785  0.0064  0.1102
  801PEP     CB28346  14.239   9.820  16.688 -0.2938  0.0406  0.0418
  801PEP     CB28347  14.459   9.886  16.310  0.5187 -0.4966 -0.2447
  801PEP     CB28348  14.513   9.926  15.936 -0.2827 -0.2962 -0.0251
  801PEP     CB28349  14.655   9.690  15.513  0.2342 -0.0353  0.3686
  801PEP     CB28350  14.944   9.356  15.519  0.0948 -0.0887 -0.4981
  801PEP     CB28351  15.000   9.034  15.903 -0.4337 -0.0043 -0.1040
  801PEP     CB28352  15.062   8.538  15.940 -0.3687  0.5763 -0.2435
  801PEP     CB28353  15.393   8.241  15.711 -0.0281 -0.3266 -0.0050
  801PEP     CB28354  15.617   8.502  15.410 -0.0652 -0.0224 -0.3731
  801PEP     CB28355  15.766   8.889  15.415 -0.2596  0.2776  0.0016
  801PEP     CB28356  15.771   9.256  15.134 -0.0804  0.2458 -0.2128
  801PEP     CB28357  16.072   9.473  14.937  0.0654  0.0853 -0.1526
  801PEP     CB28358  16.248   9.310  14.526  0.4714  0.1828 -0.2371
  801PEP     CB28359  16.238   9.403  14.117 -0.0114  0.1974 -0.3422
  801PEP     CB28360  16.108   9.581  13.728  0.1532 -0.2026  0.1934
  802PEP     CB28361  13.750  16.369  15.981 -0.3179 -0.1369  0.1961
  802PEP     CB28362  13.455  16.216  16.349 -0.1252  0.0792 -0.0804
  802PEP     CB28363  13.076  16.019  16.436 -0.1517 -0.1449  0.0457
  802PEP     CB28364  13.014  15.695  16.252 -0.1724 -0.1158  0.4356
  802PEP     CB28365  13.366  15.359  16.266  0.1223  0.1388  0.0065
  802PEP     CB28366  13.753  15.292  16.428  0.0228 -0.0490  0.3058
  802PEP     CB28367  14.099  15.211  16.312  0.0766  0.0631  0.0871
  802PEP     CB28368  14.497  15.405  16.074  0.0903  0.0865  0.2255
  802PEP     CB28369  14.876  15.377  15.874 -0.1726  0.1291  0.0862
  802PEP     CB28370  15.168  15.376  15.551  0.2301 -0.1464  0.1016
  802PEP     CB28371  15.316  15.437  15.166  0.3428  0.2148 -0.1210
  802PEP     CB28372  15.129  15.569  14.684 -0.0037  0.0155 -0.0157
  802PEP     CB28373  15.001  15.862  14.496 -0.0839 -0.3750 -0.1912
  802PEP     CB28374  14.928  16.243  14.179  0.2204  0.1530 -0.0515
  802PEP     CB28375  14.863  16.682  14.330 -0.0547  0.1625  0.1184
  802PEP     CB28376  14.697  16.815  14.640  0.0462  0.4402  0.1312
  802PEP     CB28377  14.621  17.193  14.871  0.4783  0.1138  0.0668
  802PEP     CB28378  14.530  17.648  14.994 -0.2650  0.0123  0.2048
  802PEP     CB28379  14.387  18.121  15.127  0.1574  0.2137  0.4010
  802PEP     CB28380  14.342  18.578  15.025  0.0240  0.4601 -0.2331
  802PEP     CB28381  14.265  18.895  14.612 -0.1752 -0.3505  0.3150
  802PEP     CB28382  14.294  18.959  14.262 -0.1265 -0.1649 -0.1334
  802PEP     CB28383  14.342  18.769  13.902 -0.2020  0.0293 -0.2804
  802PEP     CB28384  14.449  18.753  13.459 -0.1854  0.4504 -0.0571
  802PEP     CB28385  14.453  19.121  13.274  0.1940  0.3822  0.0633
  802PEP     CB28386  14.784  19.360  13.102 -0.0992  0.0828  0.3083
  802PEP     CB28387  15.223  19.470  13.194  0.0593 -0.0185 -0.3448
  802PEP     CB28388  15.510  19.596  13.491 -0.1239  0.0261 -0.1858
  802PEP     CB28389  15.768  20.022  13.711  0.0752 -0.1433 -0.0474
  802PEP     CB28390  15.884  20.519  13.775  0.3752 -0.0329 -0.0763
  802PEP     CB28391  15.883  20.774  14.078  0.0284 -0.1373 -0.1816
  802PEP     CB28392  16.012  20.978  14.425  0.1899 -0.1432 -0.0734
  802PEP     CB28393  15.998  20.978  14.855 -0.1750  0.0848  0.0717
  802PEP     CB28394  15.873  20.767  15.293  0.1705  0.3132 -0.4766
  802PEP     CB28395  15.406  20.604  15.445 -0.3270 -0.1860  0.2105
  802PEP     CB28396  15.089  20.338  15.582  0.6501 -0.0612 -0.1305
  802PEP     CB28397  14.713  20.099  15.518  0.2316  0.4410 -0.4245
  802PEP     CB28398  14.399  20.164  15.303  0.0719 -0.0027 -0.1080
  802PEP     CB28399  13.874  20.136  15.349 -0.0181 -0.4207  0.0728
  802PEP     CB28400  13.507  20.176  15.248 -0.5958 -0.1217  0.2218
  803PEP     CB28401   3.013  16.604   6.346 -0.5265 -0.0581 -0.2813
  803PEP     CB28402   2.859  16.360   5.968  0.1184  0.2078  0.0196
  803PEP     CB28403   2.825  16.429   5.524 -0.2381  0.1799  0.0626
  803PEP     CB28404   2.935  16.724   5.231 -0.0013  0.1000 -0.1122
  803PEP     CB28405   3.341  17.006   5.201  0.0899 -0.3249  0.1768
  803PEP     CB28406   3.712  16.883   4.918 -0.2280 -0.1693 -0.1506
  803PEP     CB28407   3.634  16.488   4.618  0.1886  0.1597  0.2869
  803PEP     CB28408   3.214  16.386   4.438 -0.0719 -0.4360 -0.1456
  803PEP     CB28409   2.997  16.418   4.127  0.4028 -0.4123  0.0345
  803PEP     CB28410   2.691  16.359   3.918 -0.2868 -0.2842 -0.3649
  803PEP     CB28411   2.408  16.076   3.819  0.0797 -0.1774  0.0422
  803PEP     CB28412   2.034  15.820   3.840 -0.6239 -0.1908 -0.3480
  803PEP     CB28413   1.974  15.372   3.921  0.1329  0.0920 -0.2081
  803PEP     CB28414   1.863  14.980   4.092  0.0499  0.1892  0.0419
  803PEP     CB28415   1.501  14.790   3.963 -0.0094 -0.0532  0.2452
  803PEP     CB28416   1.220  14.694   3.697  0.0736  0.0447 -0.4801
  803PEP     CB28417   1.095  14.501   3.425 -0.1171 -0.0014 -0.3338
  803PEP     CB28418   0.991  14.316   3.072  0.4784  0.4343 -0.2077
  803PEP     CB28419   1.222  14.258   2.597  0.1270 -0.3621 -0.0588
  803PEP     CB28420   1.427  14.039   2.317 -0.2435  0.1265  0.1857
  803PEP     CB28421   1.813  14.158   2.128  0.1858 -0.1460 -0.4334
  803PEP     CB28422   1.927  14.651   2.042 -0.1257  0.3020 -0.3191
  803PEP     CB28423   1.608  15.020   2.094  0.2403 -0.3274  0.1101
  803PEP     CB28424   1.160  14.829   2.353  0.0545  0.2960  0.3271
  803PEP     CB28425   0.851  14.456   2.199  0.3474  0.2464 -0.2961
  803PEP     CB28426   0.422  14.317   2.257 -0.0030  0.1250  0.1603
  803PEP     CB28427  -0.009  14.281   2.472 -0.3615 -0.0692  0.0126
  803PEP     CB28428  -0.436  14.216   2.416 -0.1989 -0.0000 -0.1889
  803PEP     CB28429  -0.804  13.989   2.210  0.0121 -0.2200  0.0149
  803PEP     CB28430  -0.941  13.771   1.887  0.0973 -0.1381  0.5365
  803PEP     CB28431  -1.246  13.753   1.607  0.4510 -0.1646  0.1154
  803PEP     CB28432  -1.388  13.810   1.226  0.0770 -0.4883 -0.3834
  803PEP     CB28433  -1.540  14.067   0.872 -0.0136  0.1655  0.0432
  803PEP     CB28434  -1.515  14.277   0.584  0.2055 -0.0842 -0.1865
  803PEP     CB28435  -1.748  14.507   0.290 -0.0479  0.0694  0.3351
  803PEP     CB28436  -2.183  14.354   0.329  0.1888  0.0665  0.1918
  803PEP     CB28437  -2.366  14.041   0.133  0.2630 -0.3092 -0.1192
  803PEP     CB28438  -2.156  13.643  -0.023  0.1050  0.1466 -0.0038
  803PEP     CB28439  -1.857  13.504  -0.184 -0.1315  0.0142  0.0791
  803PEP     CB28440  -1.664  13.130  -0.454  0.0601 -0.5844  0.2919
  804PEP     CB28441   6.331  14.550  16.997  0.2421  0.1579  0.2660
  804PEP     CB28442   6.632  14.417  16.713  0.4100  0.1373 -0.0515
  804PEP     CB28443   6.923  14.550  16.390  0.2856  0.0964 -0.2670
  804PEP     CB28444   6.996  14.890  16.175  0.3054 -0.0928  0.1059
  804PEP     CB28445   6.776  15.210  16.234  0.2023  0.1756  0.2557
  804PEP     CB28446   6.315  15.130  16.272  0.3217 -0.2326 -0.3196
  804PEP     CB28447   5.966  14.929  16.034 -0.2138  0.0628  0.0420
  804PEP     CB28448   6.157  14.585  15.754  0.0921 -0.1928 -0.1214
  804PEP     CB28449   6.142  14.727  15.348 -0.3248  0.4595  0.2190
  804PEP     CB28450   6.069  15.144  15.125  0.0119 -0.2867 -0.2529
  804PEP     CB28451   5.733  15.467  15.032 -0.1795  0.1147 -0.0921
  804PEP     CB28452   5.678  15.720  15.351  0.1754 -0.1129  0.0237
  804PEP     CB28453   5.732  15.973  15.708  0.1006 -0.3421  0.5435
  804PEP     CB28454   5.851  15.996  16.137  0.1513 -0.2401  0.0907
  804PEP     CB28455   5.750  15.981  16.476 -0.2890 -0.0605 -0.0576
  804PEP     CB28456   5.586  15.615  16.658 -0.2214 -0.4421 -0.3052
  804PEP     CB28457   5.338  15.439  16.968  0.1237 -0.1695 -0.1294
  804PEP     CB28458   5.042  15.610  17.284 -0.3112 -0.4171 -0.1278
  804PEP     CB28459   4.739  15.975  17.214  0.2397  0.5237 -0.1128
  804PEP     CB28460   4.405  15.926  17.061 -0.3578 -0.1092 -0.0779
  804PEP     CB28461   4.196  15.594  16.996 -0.4430  0.2501  0.3326
  804PEP     CB28462   4.056  15.230  16.805 -0.5422  0.1636  0.0362
  804PEP     CB28463   4.136  14.841  16.563 -0.3507 -0.1167 -0.0611
  804PEP     CB28464   4.132  14.522  16.370 -0.1001  0.0500  0.2400
  804PEP     CB28465   4.079  14.341  15.997  0.0050  0.7517 -0.1420
  804PEP     CB28466   4.097  14.528  15.599  0.2519  0.3542 -0.1264
  804PEP     CB28467   4.067  14.908  15.486 -0.0571  0.0208 -0.1810
  804PEP     CB28468   3.578  15.207  15.528 -0.0031 -0.0644 -0.2793
  804PEP     CB28469   3.259  15.457  15.650 -0.2017  0.3898  0.2471
  804PEP     CB28470   2.822  15.473  15.786  0.1071  0.1796  0.0862
  804PEP     CB28471   2.466  15.421  15.469 -0.2551 -0.0576 -0.3185
  804PEP     CB28472   2.340  15.161  15.142 -0.2800 -0.3004  0.0722
  804PEP     CB28473   2.347  14.864  14.802 -0.1663 -0.0783  0.1200
  804PEP     CB28474   2.119  14.724  14.490  0.4308  0.4135  0.3289
  804PEP     CB28475   1.696  14.824  14.321 -0.0581  0.1270  0.0427
  804PEP     CB28476   1.238  14.886  14.532 -0.1602  0.4723 -0.4819
  804PEP     CB28477   0.973  14.931  14.868  0.0660 -0.1265  0.0526
  804PEP     CB28478   0.911  15.226  15.201  0.1027 -0.0811  0.1640
  804PEP     CB28479   0.578  15.342  15.601  0.2526 -0.3791 -0.1048
  804PEP     CB28480   0.403  15.313  15.900  0.2282 -0.2420 -0.2009
  805PEP     CB28481  20.385   2.427  18.701  0.2011 -0.4784  0.1210
  805PEP     CB28482  20.675   2.055  18.621  0.0313 -0.1785 -0.1259
  805PEP     CB28483  20.922   1.712  18.779  0.1999 -0.0994 -0.1786
  805PEP     CB28484  20.816   1.423  19.118 -0.1633 -0.1960  0.1398
  805PEP     CB28485  20.480   1.493  19.504 -0.1540  0.1617 -0.0803
  805PEP     CB28486  20.070   1.656  19.369 -0.1247 -0.2001 -0.1393
  805PEP     CB28487  19.858   1.852  19.096  0.0359  0.1425 -0.5128
  805PEP     CB28488  19.878   2.281  18.971 -0.4609 -0.1707  0.4080
  805PEP     CB28489  20.126   2.694  19.140  0.1629  0.1866 -0.3916
  805PEP     CB28490  20.295   3.011  19.116 -0.1469  0.0663  0.4061
  805PEP     CB28491  20.692   3.191  19.132  0.1873 -0.3872 -0.5168
  805PEP     CB28492  21.123   3.106  18.923  0.0426  0.1332  0.1112
  805PEP     CB28493  21.421   3.163  18.505 -0.0046 -0.1193  0.3033
  805PEP     CB28494  21.555   2.824  18.265 -0.2405 -0.5330 -0.2332
  805PEP     CB28495  21.442   2.350  18.343 -0.2639  0.0782  0.2191
  805PEP     CB28496  21.249   2.120  18.719 -0.2089 -0.0526  0.0278
  805PEP     CB28497  21.206   2.160  19.166 -0.3081  0.2757  0.1075
  805PEP     CB28498  21.130   2.287  19.528 -0.1718  0.0969  0.6116
  805PEP     CB28499  20.856   2.249  19.906  0.0557  0.1344  0.0873
  805PEP     CB28500  20.488   2.337  20.024 -0.2022 -0.2575  0.1710
  805PEP     CB28501  20.280   2.550  19.734 -0.1319 -0.1445 -0.0820
  805PEP     CB28502  20.593   2.888  19.544 -0.2215 -0.0604 -0.1443
  805PEP     CB28503  20.938   2.990  19.777 -0.3543  0.5595  0.4508
  805PEP     CB28504  20.969   2.862  20.132  0.2657 -0.3524  0.3511
  805PEP     CB28505  21.041   2.886  20.563  0.0842 -0.1435 -0.1538
  805PEP     CB28506  21.391   2.981  20.773  0.0851  0.1336  0.1023
  805PEP     CB28507  21.691   3.303  20.816  0.2322 -0.1975 -0.0583
  805PEP     CB28508  22.054   3.354  20.703 -0.3542 -0.5387 -0.0323
  805PEP     CB28509  22.299   3.192  20.396 -0.1416 -0.2081  0.1878
  805PEP     CB28510  22.229   3.001  20.014 -0.0932 -0.1521 -0.2333
  805PEP     CB28511  21.901   2.733  19.738  0.1432 -0.2811 -0.4634
  805PEP     CB28512  21.586   2.629  19.476 -0.1715  0.1608  0.2568
  805PEP     CB28513  21.151   2.841  19.324 -0.0169  0.0274  0.3213
  805PEP     CB28514  21.096   3.276  19.417  0.0438 -0.1297  0.1468
  805PEP     CB28515  21.444   3.632  19.359 -0.2649 -0.0799 -0.2624
  805PEP     CB28516  21.671   3.948  19.311 -0.0051  0.1682 -0.1111
  805PEP     CB28517  22.076   4.208  19.149 -0.1520 -0.5749 -0.2254
  805PEP     CB28518  22.488   4.084  19.090  0.0836  0.5482 -0.0299
  805PEP     CB28519  22.750   3.662  18.890  0.0409  0.1703 -0.0642
  805PEP     CB28520  23.003   3.401  18.683  0.2649 -0.2544 -0.0506
  806PEP     CB28521   4.233   2.303  12.485 -0.1125  0.0718  0.0055
  806PEP     CB28522   3.751   2.278  12.439 -0.3195  0.5485  0.1823
  806PEP     CB28523   3.521   1.954  12.347 -0.0519  0.2023  0.0321
  806PEP     CB28524   3.501   1.661  12.103  0.0265 -0.0788  0.0768
  806PEP     CB28525   3.137   1.259  12.325  0.0646  0.2998  0.0430
  806PEP     CB28526   2.969   1.267  12.848  0.0521  0.1657 -0.0001
  806PEP     CB28527   2.864   1.582  13.147 -0.0944  0.5094 -0.1856
  806PEP     CB28528   2.660   1.811  13.351  0.4382 -0.1142  0.4877
  806PEP     CB28529   2.318   1.750  13.662  0.1316 -0.0472 -0.0787
  806PEP     CB28530   2.089   1.386  13.884  0.0946  0.0794  0.2782
  806PEP     CB28531   2.204   0.997  14.073 -0.2396 -0.0021  0.4809
  806PEP     CB28532   2.406   0.556  13.980  0.1303 -0.3042  0.1941
  806PEP     CB28533   2.759   0.326  13.749 -0.0876 -0.0828 -0.1559
  806PEP     CB28534   3.018   0.345  13.415  0.0377  0.1802 -0.0242
  806PEP     CB28535   3.342   0.563  13.140 -0.0754  0.0063 -0.4567
  806PEP     CB28536   3.738   0.729  13.013  0.0748 -0.4106  0.1309
  806PEP     CB28537   4.132   0.841  12.749 -0.1102 -0.2466  0.5234
  806PEP     CB28538   4.194   0.943  12.289  0.0036 -0.0774 -0.3649
  806PEP     CB28539   4.128   0.824  11.929 -0.0831 -0.2678  0.4348
  806PEP     CB28540   3.886   0.856  11.551 -0.4228 -0.3940 -0.3065
  806PEP     CB28541   3.509   0.524  11.394  0.0350 -0.0439  0.3943
  806PEP     CB28542   3.093   0.414  11.497 -0.2599 -0.0345  0.0114
  806PEP     CB28543   2.696   0.463  11.425 -0.0633  0.1509  0.0087
  806PEP     CB28544   2.333   0.433  11.192  0.1883 -0.3078 -0.0386
  806PEP     CB28545   2.205   0.484  10.725  0.1775  0.0736  0.3008
  806PEP     CB28546   2.286   0.443  10.341 -0.0564 -0.1181  0.1497
  806PEP     CB28547   2.357   0.064  10.057  0.0383 -0.0184 -0.1100
  806PEP     CB28548   2.561  -0.207   9.787  0.0911 -0.4713  0.4602
  806PEP     CB28549   2.786  -0.187   9.379  0.0381  0.0185 -0.1014
  806PEP     CB28550   2.987   0.106   8.983 -0.4796  0.2047  0.3562
  806PEP     CB28551   3.263   0.384   8.902 -0.0603 -0.3282  0.3326
  806PEP     CB28552   3.435   0.755   9.155  0.0384 -0.2607 -0.3464
  806PEP     CB28553   3.566   1.155   9.142  0.4079  0.1583  0.0858
  806PEP     CB28554   3.557   1.515   9.212  0.1869  0.1714 -0.1207
  806PEP     CB28555   3.369   1.838   9.492 -0.0740 -0.0560 -0.0495
  806PEP     CB28556   3.016   1.884   9.738 -0.1528  0.3651 -0.1211
  806PEP     CB28557   2.831   1.667  10.115 -0.0269 -0.2739  0.1133
  806PEP     CB28558   2.779   1.332  10.453  0.1745 -0.2717  0.1491
  806PEP     CB28559   2.435   1.077  10.664 -0.1309 -0.2554  0.0628
  806PEP     CB28560   2.182   0.906  11.034 -0.1274 -0.0057  0.0092
  807PEP     CB28561   2.354   4.613  19.162 -0.2045 -0.1309  0.0487
  807PEP     CB28562   2.612   4.698  19.469  0.4763 -0.2015 -0.1806
  807PEP     CB28563   2.652   4.945  19.819  0.3427  0.1519  0.3377
  807PEP     CB28564   2.863   5.190  20.128  0.1698 -0.0086  0.0323
  807PEP     CB28565   2.652   5.344  20.492  0.2417  0.1350 -0.2735
  807PEP     CB28566   2.291   5.153  20.605  0.1935  0.0805  0.0902
  807PEP     CB28567   2.413   4.803  20.850  0.3737  0.4971 -0.2218
  807PEP     CB28568   2.654   4.699  21.177 -0.0442  0.3554  0.0118
  807PEP     CB28569   3.007   4.759  21.547 -0.0579 -0.0844  0.2104
  807PEP     CB28570   3.285   4.653  21.887 -0.2254 -0.3781  0.1742
  807PEP     CB28571   3.666   4.556  22.101 -0.1217  0.1378 -0.0240
  807PEP     CB28572   3.834   4.443  22.579  0.1813 -0.0134 -0.0092
  807PEP     CB28573   4.065   4.241  22.951 -0.2328  0.0906 -0.0386
  807PEP     CB28574   4.187   4.332  23.367 -0.1209  0.5516  0.1951
  807PEP     CB28575   4.461   4.581  23.647 -0.0342  0.1295 -0.4198
  807PEP     CB28576   4.898   4.496  23.751 -0.0536  0.1117 -0.0775
  807PEP     CB28577   5.133   4.177  23.885  0.1432  0.1686  0.1475
  807PEP     CB28578   5.235   3.765  24.091  0.1130 -0.1991  0.2309
  807PEP     CB28579   5.073   3.335  24.028 -0.1873  0.2739 -0.4105
  807PEP     CB28580   4.811   3.169  23.670 -0.0662  0.2705 -0.1020
  807PEP     CB28581   4.536   3.213  23.406 -0.0388  0.0120  0.0400
  807PEP     CB28582   4.066   3.318  23.263 -0.0173 -0.1411  0.1867
  807PEP     CB28583   3.534   3.373  23.348  0.1171 -0.2255  0.0111
  807PEP     CB28584   3.165   3.720  23.253  0.1778 -0.2635 -0.1210
  807PEP     CB28585   2.916   3.959  23.019 -0.1688  0.3199 -0.2742
  807PEP     CB28586   2.649   4.333  22.777 -0.0416  0.1084  0.0255
  807PEP     CB28587   2.543   4.762  22.656 -0.0163 -0.3356  0.1252
  807PEP     CB28588   2.513   5.159  22.855  0.1035  0.2760 -0.0177
  807PEP     CB28589   2.631   5.569  22.704  0.0215 -0.0004 -0.5057
  807PEP     CB28590   2.831   6.019  22.808 -0.0307  0.2458 -0.2669
  807PEP     CB28591   3.011   6.352  23.007 -0.1634 -0.1247 -0.2065
  807PEP     CB28592   3.433   6.429  23.126 -0.3352 -0.3588 -0.2189
  807PEP     CB28593   3.892   6.318  23.040  0.1512 -0.2828 -0.0628
  807PEP     CB28594   4.153   5.985  22.871 -0.3429  0.3979  0.3061
  807PEP     CB28595   4.137   5.580  22.927  0.2508 -0.0477  0.0613
  807PEP     CB28596   4.224   5.165  22.900  0.2417  0.2766  0.0108
  807PEP     CB28597   4.131   4.848  22.659  0.1485  0.4005  0.0162
  807PEP     CB28598   4.125   4.704  22.200 -0.0717 -0.2056 -0.2825
  807PEP     CB28599   4.156   4.842  21.728  0.2895  0.0673 -0.2978
  807PEP     CB28600   4.280   5.227  21.564  0.0334 -0.1132  0.1960
  808PEP     CB28601   0.804  14.290  21.327 -0.0864 -0.0629  0.3019
  808PEP     CB28602   0.668  13.881  21.357 -0.2994  0.1931 -0.1001
  808PEP     CB28603   0.298  13.702  21.339 -0.1403  0.1417  0.2622
  808PEP     CB28604  -0.090  13.859  21.068 -0.2144 -0.3613  0.1327
  808PEP     CB28605  -0.086  14.228  20.817 -0.0657  0.1218 -0.2517
  808PEP     CB28606   0.062  14.588  20.865 -0.0932 -0.3083  0.0422
  808PEP     CB28607   0.267  15.021  20.862  0.2716 -0.2600 -0.0777
  808PEP     CB28608   0.435  15.126  20.496 -0.0993  0.1806 -0.2304
  808PEP     CB28609   0.447  15.099  20.030 -0.0160  0.1684  0.2776
  808PEP     CB28610   0.764  15.275  19.674 -0.0658  0.0934 -0.0420
  808PEP     CB28611   1.106  15.526  19.578 -0.2734 -0.3889  0.0248
  808PEP     CB28612   1.482  15.590  19.207  0.0106  0.2172 -0.2898
  808PEP     CB28613   1.483  15.377  18.835  0.0636  0.0691 -0.1755
  808PEP     CB28614   1.659  15.274  18.420  0.0867 -0.2147  0.0273
  808PEP     CB28615   1.658  15.099  18.012  0.1918  0.1043 -0.5755
  808PEP     CB28616   1.387  14.878  17.714  0.0998  0.2306  0.0310
  808PEP     CB28617   0.929  14.796  17.470 -0.1059  0.1130 -0.3854
  808PEP     CB28618   0.491  14.672  17.412  0.1067  0.0105 -0.0674
  808PEP     CB28619   0.060  14.300  17.312 -0.0093 -0.1785 -0.1614
  808PEP     CB28620  -0.419  14.099  17.190  0.4629 -0.0939  0.3030
  808PEP     CB28621  -0.778  14.032  17.255 -0.4511 -0.1330  0.0525
  808PEP     CB28622  -1.219  13.771  17.199  0.2794 -0.0560 -0.0539
  808PEP     CB28623  -1.330  13.318  17.287 -0.1780  0.2632 -0.3321
  808PEP     CB28624  -1.309  12.930  17.121 -0.1365 -0.1626  0.1221
  808PEP     CB28625  -1.398  12.820  16.679  0.5358  0.0719 -0.0107
  808PEP     CB28626  -1.258  12.750  16.166 -0.2857 -0.0678 -0.0916
  808PEP     CB28627  -0.877  12.439  16.055 -0.3673  0.3399 -0.0727
  808PEP     CB28628  -0.847  12.040  16.250 -0.0293 -0.3490  0.1375
  808PEP     CB28629  -1.112  11.739  16.312  0.4622  0.1453 -0.0359
  808PEP     CB28630  -1.470  11.648  16.060  0.2689  0.0124  0.0872
  808PEP     CB28631  -1.467  11.494  15.539 -0.0328  0.1614  0.6366
  808PEP     CB28632  -1.672  11.667  15.155  0.1850  0.0148  0.2687
  808PEP     CB28633  -1.436  11.834  14.866  0.0031  0.3015 -0.1403
  808PEP     CB28634  -1.010  12.036  14.829  0.0313  0.0024 -0.2242
  808PEP     CB28635  -0.773  12.263  14.522 -0.2186 -0.4381 -0.0139
  808PEP     CB28636  -0.870  12.095  14.083  0.0961  0.2472  0.1010
  808PEP     CB28637  -0.946  11.666  13.995 -0.3114 -0.4289  0.1068
  808PEP     CB28638  -1.297  11.380  14.046  0.3034 -0.0070 -0.3182
  808PEP     CB28639  -1.451  10.975  14.059 -0.1096 -0.2587  0.4467
  808PEP     CB28640  -1.592  10.593  14.275 -0.0636 -0.2161  0.0366
  809PEP     CB28641  20.463  19.066   8.499 -0.0083 -0.0818 -0.1070
  809PEP     CB28642  20.664  18.913   8.060  0.3293  0.1486 -0.3471
  809PEP     CB28643  20.731  18.686   7.681  0.0148 -0.2069  0.2067
  809PEP     CB28644  20.863  18.733   7.295 -0.1501  0.2320  0.0314
  809PEP     CB28645  21.185  18.921   7.091 -0.1150 -0.0531  0.0223
  809PEP     CB28646  21.383  19.303   6.896 -0.1376 -0.0561 -0.0587
  809PEP     CB28647  21.588  19.553   6.631 -0.0773  0.0683  0.6390
  809PEP     CB28648  21.639  19.999   6.503 -0.1917 -0.1107 -0.0031
  809PEP     CB28649  21.466  20.401   6.422 -0.0739 -0.3157 -0.5788
  809PEP     CB28650  21.303  20.677   6.258  0.0183 -0.0672 -0.1462
  809PEP     CB28651  21.125  20.879   5.887  0.2536 -0.1215 -0.2183
  809PEP     CB28652  21.136  20.522   5.553 -0.0503 -0.0160  0.0804
  809PEP     CB28653  21.214  20.192   5.793  0.3674 -0.0820  0.1476
  809PEP     CB28654  21.020  20.225   6.246  0.3662 -0.0328  0.4078
  809PEP     CB28655  20.781  20.576   6.412  0.1223 -0.0818 -0.0781
  809PEP     CB28656  20.963  21.009   6.470 -0.4679 -0.4119  0.2457
  809PEP     CB28657  21.399  21.130   6.364  0.0885 -0.2869 -0.0210
  809PEP     CB28658  21.742  20.934   6.132  0.0331 -0.1100 -0.2860
  809PEP     CB28659  22.184  20.918   6.013  0.1532  0.0375 -0.0070
  809PEP     CB28660  22.629  21.048   5.931  0.0109 -0.0318 -0.5660
  809PEP     CB28661  22.958  20.842   5.699  0.0464  0.1020  0.1891
  809PEP     CB28662  22.999  20.811   5.211  0.2039  0.2324 -0.2380
  809PEP     CB28663  22.626  20.656   5.002  0.1590 -0.2761 -0.3078
  809PEP     CB28664  22.202  20.748   5.175 -0.3362 -0.1293  0.0608
  809PEP     CB28665  22.233  21.016   5.474 -0.0170  0.3033  0.0171
  809PEP     CB28666  22.523  21.345   5.375  0.3482  0.2163 -0.0612
  809PEP     CB28667  22.728  21.665   5.094 -0.2968 -0.1236 -0.2885
  809PEP     CB28668  22.661  22.012   4.741 -0.1628 -0.2682 -0.2296
  809PEP     CB28669  22.673  22.457   4.765 -0.3111  0.2397 -0.1340
  809PEP     CB28670  23.075  22.604   4.844  0.2513  0.1968 -0.0134
  809PEP     CB28671  23.458  22.433   4.869  0.1515  0.1522 -0.0388
  809PEP     CB28672  23.906  22.294   4.863  0.0549  0.1706  0.1753
  809PEP     CB28673  24.248  22.279   5.107  0.0055 -0.3122 -0.1758
  809PEP     CB28674  24.768  22.342   5.139 -0.3867 -0.1134  0.3206
  809PEP     CB28675  24.866  22.564   5.477 -0.1214  0.1488 -0.1631
  809PEP     CB28676  24.577  22.986   5.410 -0.2719  0.3020 -0.0801
  809PEP     CB28677  24.298  22.916   5.148 -0.0022  0.0899 -0.2233
  809PEP     CB28678  23.912  22.754   5.077  0.0866  0.2844 -0.0898
  809PEP     CB28679  23.544  22.997   5.135 -0.3935  0.1622 -0.1931
  809PEP     CB28680  23.537  23.469   5.461  0.2851  0.0618 -0.2803
  810PEP     CB28681   6.076  16.729   6.564 -0.2843 -0.0285 -0.2207
  810PEP     CB28682   5.747  16.759   6.239 -0.2411  0.1295  0.2857
  810PEP     CB28683   5.509  16.555   6.038 -0.4093  0.1620  0.1518
  810PEP     CB28684   5.042  16.498   5.917 -0.0832  0.3762 -0.3070
  810PEP     CB28685   4.873  16.095   5.686 -0.2418 -0.3357  0.1184
  810PEP     CB28686   4.632  15.698   5.505 -0.0743 -0.0279 -0.0922
  810PEP     CB28687   4.097  15.622   5.427  0.0842  0.0828  0.3058
  810PEP     CB28688   3.700  15.887   5.443 -0.0594 -0.0622 -0.1096
  810PEP     CB28689   3.390  16.254   5.482 -0.2102 -0.0722 -0.4677
  810PEP     CB28690   3.295  16.587   5.630  0.4520 -0.0952 -0.2211
  810PEP     CB28691   2.933  16.867   5.752 -0.1112 -0.0337  0.4053
  810PEP     CB28692   2.552  16.790   5.927  0.1651 -0.0488  0.0163
  810PEP     CB28693   2.326  16.484   5.989 -0.1899 -0.3711 -0.3752
  810PEP     CB28694   2.374  16.227   5.658 -0.2064  0.2077  0.0942
  810PEP     CB28695   2.528  15.955   5.395 -0.2143 -0.0877 -0.1872
  810PEP     CB28696   2.808  15.537   5.446  0.0702  0.0255  0.0763
  810PEP     CB28697   2.736  15.248   5.769 -0.2330 -0.0279  0.0710
  810PEP     CB28698   2.405  15.166   6.083 -0.0243 -0.4384 -0.0386
  810PEP     CB28699   2.002  15.218   6.134  0.2996 -0.1536  0.3473
  810PEP     CB28700   1.499  15.342   6.143 -0.2738 -0.3536 -0.2443
  810PEP     CB28701   1.123  15.084   6.113  0.2148  0.1036 -0.1864
  810PEP     CB28702   0.710  14.863   6.137  0.2496 -0.3191  0.1442
  810PEP     CB28703   0.610  14.472   6.043  0.3992  0.2189  0.0044
  810PEP     CB28704   0.657  14.050   5.988  0.4275 -0.0986  0.2734
  810PEP     CB28705   0.765  13.621   6.090 -0.2599  0.1431  0.1457
  810PEP     CB28706   0.502  13.447   6.454  0.1093  0.2532 -0.5461
  810PEP     CB28707   0.222  13.722   6.729  0.1728  0.1741 -0.3096
  810PEP     CB28708  -0.207  13.802   6.621  0.0166 -0.0549  0.1943
  810PEP     CB28709  -0.688  13.951   6.427 -0.0345  0.1682 -0.0794
  810PEP     CB28710  -0.955  14.268   6.243  0.0015  0.2654  0.3356
  810PEP     CB28711  -1.394  14.403   6.103  0.0001 -0.0460  0.2407
  810PEP     CB28712  -1.623  14.087   5.848 -0.2198  0.1096 -0.1628
  810PEP     CB28713  -1.655  13.676   5.654  0.1524 -0.0639  0.0384
  810PEP     CB28714  -1.812  13.425   5.355 -0.1509  0.2271 -0.0513
  810PEP     CB28715  -1.912  13.079   4.992  0.2723  0.0495 -0.3401
  810PEP     CB28716  -1.868  12.621   4.850 -0.2431  0.0487 -0.4925
  810PEP     CB28717  -2.212  12.326   4.661 -0.0082  0.3771 -0.1766
  810PEP     CB28718  -2.618  12.422   4.442 -0.0602  0.0433 -0.0189
  810PEP     CB28719  -2.805  12.096   4.189  0.0719 -0.4099  0.1706
  810PEP     CB28720  -2.583  11.775   3.997 -0.2366  0.2908 -0.1276
  811PEP     CB28721   7.586   3.194  15.698  0.2053 -0.0723 -0.1044
  811PEP     CB28722   7.823   3.512  15.692  0.2015 -0.4504 -0.2320
  811PEP     CB28723   7.717   4.035  15.676  0.2410 -0.1032  0.1372
  811PEP     CB28724   7.281   4.176  15.718  0.0948 -0.1786  0.0757
  811PEP     CB28725   6.860   4.295  15.968 -0.4891 -0.1606 -0.3031
  811PEP     CB28726   6.616   4.408  16.254  0.2522 -0.0472 -0.0400
  811PEP     CB28727   6.570   4.628  16.550  0.1479 -0.1744 -0.0722
  811PEP     CB28728   6.466   5.067  16.523  0.2120  0.1388 -0.0913
  811PEP     CB28729   6.299   5.492  16.666 -0.1601  0.3396  0.5238
  811PEP     CB28730   6.044   5.814  16.746  0.1996  0.5813 -0.1064
  811PEP     CB28731   5.889   6.243  16.659  0.1295  0.1626 -0.0574
  811PEP     CB28732   6.071   6.603  16.766  0.2292 -0.3991  0.1233
  811PEP     CB28733   6.536   6.512  16.983  0.0310  0.4935 -0.0541
  811PEP     CB28734   6.760   6.268  17.222  0.2251 -0.3893  0.2562
  811PEP     CB28735   6.860   5.939  17.590  0.2432  0.2014  0.2883
  811PEP     CB28736   7.012   5.626  17.736 -0.1088  0.0448  0.0571
  811PEP     CB28737   7.340   5.477  18.029 -0.4641 -0.1661 -0.0621
  811PEP     CB28738   7.733   5.464  17.869 -0.2216 -0.1334 -0.1620
  811PEP     CB28739   8.019   5.232  17.559 -0.1538  0.0126 -0.1313
  811PEP     CB28740   8.305   4.885  17.279  0.3719  0.0191  0.3421
  811PEP     CB28741   8.596   4.648  16.998  0.3458 -0.0960  0.0869
  811PEP     CB28742   9.041   4.668  16.922 -0.1551 -0.0266 -0.3165
  811PEP     CB28743   9.422   4.448  16.809  0.0511 -0.0622  0.1395
  811PEP     CB28744   9.528   4.016  16.580  0.0254 -0.2393 -0.2190
  811PEP     CB28745   9.258   3.736  16.440 -0.4881  0.0029  0.2325
  811PEP     CB28746   9.173   3.369  16.157  0.2727  0.1547 -0.1213
  811PEP     CB28747   8.852   3.260  15.748  0.0176 -0.1084 -0.0879
  811PEP     CB28748   8.785   2.883  15.522 -0.1743  0.0728  0.0927
  811PEP     CB28749   9.216   2.638  15.410  0.6195  0.3574 -0.1151
  811PEP     CB28750   9.595   2.866  15.300 -0.0778 -0.2076 -0.2494
  811PEP     CB28751   9.785   3.183  15.046 -0.1337 -0.0060 -0.0108
  811PEP     CB28752   9.599   3.673  14.748 -0.4399  0.1475  0.0787
  811PEP     CB28753   9.091   3.711  14.772 -0.1039  0.0938  0.1691
  811PEP     CB28754   8.829   3.680  15.077  0.2096  0.2373 -0.2936
  811PEP     CB28755   8.837   3.680  15.574  0.3414 -0.1499 -0.2845
  811PEP     CB28756   8.969   3.847  15.985  0.1433 -0.4512 -0.2954
  811PEP     CB28757   9.180   4.138  16.101  0.0717 -0.0847  0.2993
  811PEP     CB28758   9.363   4.414  15.741  0.0526  0.3814  0.4597
  811PEP     CB28759   9.218   4.677  15.389 -0.1545  0.4044  0.0293
  811PEP     CB28760   9.060   4.976  15.324 -0.1087  0.3819  0.2292
  812PEP     CB28761   6.388  12.678   2.452  0.0221  0.1846  0.0302
  812PEP     CB28762   6.096  12.412   2.370  0.2913  0.4090  0.1913
  812PEP     CB28763   5.628  12.274   2.362 -0.1471  0.0724  0.3818
  812PEP     CB28764   5.259  12.066   2.370 -0.1530  0.3002  0.1882
  812PEP     CB28765   5.083  11.667   2.513  0.3700  0.2241 -0.4968
  812PEP     CB28766   4.963  11.301   2.824 -0.6126 -0.2402  0.0409
  812PEP     CB28767   5.204  10.939   3.020 -0.0124  0.0243  0.1056
  812PEP     CB28768   5.270  10.506   2.822 -0.5144 -0.1199 -0.1603
  812PEP     CB28769   5.094   9.992   2.735  0.1105 -0.1672  0.3355
  812PEP     CB28770   5.124   9.611   2.650 -0.3902 -0.0756 -0.1981
  812PEP     CB28771   5.162   9.361   2.281  0.4822 -0.0840 -0.1486
  812PEP     CB28772   5.410   9.019   2.024 -0.0106  0.0805 -0.2018
  812PEP     CB28773   5.496   8.626   1.824 -0.0661  0.2205 -0.3724
  812PEP     CB28774   5.475   8.151   1.806 -0.3884 -0.4601  0.1293
  812PEP     CB28775   5.448   7.819   1.944  0.2468  0.4461  0.0402
  812PEP     CB28776   5.663   7.512   2.247 -0.2379 -0.2400  0.1535
  812PEP     CB28777   5.664   7.438   2.664 -0.3222  0.5173 -0.3238
  812PEP     CB28778   6.039   7.609   2.898  0.0027  0.2437  0.0466
  812PEP     CB28779   6.417   7.804   2.994 -0.3605 -0.0518 -0.3102
  812PEP     CB28780   6.851   7.776   3.031  0.1316  0.1698 -0.2199
  812PEP     CB28781   7.400   7.821   3.144 -0.1193 -0.2095  0.0701
  812PEP     CB28782   7.747   7.792   3.259  0.1046 -0.1930  0.0468
  812PEP     CB28783   8.240   7.797   3.342  0.2573 -0.1435  0.3207
  812PEP     CB28784   8.570   7.565   3.237 -0.1019 -0.3721  0.0386
  812PEP     CB28785   8.679   7.213   3.070  0.4833 -0.1617 -0.5306
  812PEP     CB28786   8.978   6.803   3.079  0.0351  0.1618  0.0096
  812PEP     CB28787   9.258   6.506   3.301 -0.3364  0.1903 -0.0197
  812PEP     CB28788   9.442   6.173   3.587  0.0125 -0.2076 -0.1510
  812PEP     CB28789   9.334   5.976   4.027  0.1007  0.3200  0.0994
  812PEP     CB28790   9.070   6.122   4.292 -0.0255 -0.1825  0.1733
  812PEP     CB28791   8.921   6.492   4.233 -0.2154  0.2495  0.6112
  812PEP     CB28792   9.167   6.751   4.222 -0.4503 -0.1190  0.2078
  812PEP     CB28793   9.433   6.857   4.467  0.4016  0.0989 -0.0508
  812PEP     CB28794   9.506   6.700   4.906 -0.0330 -0.0933  0.2139
  812PEP     CB28795   9.529   6.918   5.289 -0.1667  0.2407  0.0841
  812PEP     CB28796   9.463   7.424   5.390  0.0716 -0.0053  0.3719
  812PEP     CB28797   9.607   7.788   5.075 -0.1843  0.0662  0.2926
  812PEP     CB28798   9.970   8.063   5.091 -0.1652  0.0707 -0.1696
  812PEP     CB28799  10.193   8.391   4.852  0.0260  0.1191 -0.0844
  812PEP     CB28800  10.464   8.688   4.597 -0.1641 -0.0285 -0.3083
  813PEP     CB28801   8.795   0.968  15.660  0.1564  0.1358 -0.2350
  813PEP     CB28802   8.612   0.955  15.278  0.2245  0.1598 -0.1755
  813PEP     CB28803   8.356   1.166  15.040 -0.0292 -0.0435 -0.4661
  813PEP     CB28804   8.064   1.357  14.714 -0.2069 -0.0781  0.1412
  813PEP     CB28805   7.928   1.399  14.304  0.2740  0.0346 -0.1494
  813PEP     CB28806   7.600   1.569  14.013 -0.1113 -0.0963 -0.1507
  813PEP     CB28807   7.622   1.989  13.740 -0.1757  0.0402  0.1885
  813PEP     CB28808   7.843   2.393  13.433  0.2166  0.1244 -0.2226
  813PEP     CB28809   8.072   2.359  13.083 -0.1534 -0.0525 -0.0726
  813PEP     CB28810   8.470   2.278  12.972  0.2211 -0.0185  0.0991
  813PEP     CB28811   8.932   2.336  13.053 -0.0139 -0.2740  0.0577
  813PEP     CB28812   9.355   2.442  13.090 -0.1279  0.1098  0.1195
  813PEP     CB28813   9.819   2.373  12.989 -0.1314  0.2939  0.1164
  813PEP     CB28814  10.269   2.297  13.029 -0.0985  0.0910  0.2448
  813PEP     CB28815  10.645   2.136  13.013  0.2429 -0.2365 -0.0398
  813PEP     CB28816  10.845   1.714  12.820 -0.3841 -0.1958 -0.4300
  813PEP     CB28817  10.834   1.407  12.500 -0.0440  0.0987  0.3614
  813PEP     CB28818  10.632   1.162  12.220  0.1894  0.0926 -0.3991
  813PEP     CB28819  10.294   1.019  11.945  0.0147  0.3756 -0.2328
  813PEP     CB28820  10.092   1.155  11.556 -0.1227  0.1114 -0.2127
  813PEP     CB28821  10.434   1.173  11.251 -0.1820 -0.5802 -0.0706
  813PEP     CB28822  10.760   0.955  11.429  0.0359  0.4702  0.1769
  813PEP     CB28823  10.771   0.808  11.857  0.2438 -0.0033 -0.1362
  813PEP     CB28824  10.851   0.575  12.326  0.2237  0.3097 -0.1551
  813PEP     CB28825  10.676   0.329  12.744 -0.0512  0.1349  0.1099
  813PEP     CB28826  10.755   0.534  13.145  0.1625  0.1499  0.0489
  813PEP     CB28827  11.130   0.709  13.358 -0.0961  0.6205 -0.0165
  813PEP     CB28828  11.502   0.840  13.697  0.1169 -0.0076  0.2310
  813PEP     CB28829  11.628   0.831  14.092 -0.4115  0.0364 -0.0253
  813PEP     CB28830  11.792   0.875  14.533 -0.0078 -0.0351  0.3308
  813PEP     CB28831  12.070   1.028  14.868 -0.2754 -0.3026  0.0638
  813PEP     CB28832  12.262   1.041  15.299  0.2567  0.0262  0.1496
  813PEP     CB28833  12.469   1.234  15.624 -0.0527 -0.2332 -0.4442
  813PEP     CB28834  12.663   1.418  16.034 -0.2950 -0.1239 -0.3549
  813PEP     CB28835  12.939   1.600  16.372 -0.1362  0.3079  0.0626
  813PEP     CB28836  13.296   1.691  16.616  0.0680  0.0443  0.4408
  813PEP     CB28837  13.700   1.883  16.540 -0.1110 -0.0193 -0.1347
  813PEP     CB28838  13.935   1.933  16.085  0.0047  0.2028  0.2793
  813PEP     CB28839  13.914   1.626  15.712 -0.2758 -0.2671 -0.3614
  813PEP     CB28840  13.593   1.406  15.519 -0.0428 -0.2530  0.0464
  814PEP     CB28841  19.360   1.161  14.508  0.1155  0.2498 -0.4824
  814PEP     CB28842  19.191   0.927  14.798  0.3466  0.2985  0.3127
  814PEP     CB28843  19.218   1.000  15.204  0.1337  0.1086  0.2791
  814PEP     CB28844  19.595   1.122  15.357  0.3342 -0.1359  0.4582
  814PEP     CB28845  19.974   1.030  15.308  0.2745  0.1866  0.0081
  814PEP     CB28846  20.273   0.923  15.642  0.0064 -0.0637 -0.1986
  814PEP     CB28847  20.618   0.736  15.697  0.2075 -0.1275 -0.1822
  814PEP     CB28848  20.977   0.573  15.865  0.0983  0.0717  0.2777
  814PEP     CB28849  21.170   0.139  16.038  0.1161  0.0198  0.0335
  814PEP     CB28850  20.888  -0.140  16.311  0.4749 -0.1529  0.0388
  814PEP     CB28851  20.537   0.054  16.603 -0.0722 -0.0379 -0.1512
  814PEP     CB28852  20.631   0.492  16.654 -0.1092  0.2945  0.0020
  814PEP     CB28853  20.914   0.815  16.465 -0.1593  0.3196 -0.1673
  814PEP     CB28854  21.201   1.181  16.311  0.0198 -0.0465  0.1840
  814PEP     CB28855  21.502   1.456  16.156  0.0557  0.2899 -0.1753
  814PEP     CB28856  21.643   1.728  15.851  0.0839 -0.0201  0.4519
  814PEP     CB28857  21.519   1.747  15.381 -0.1501  0.0966 -0.4213
  814PEP     CB28858  21.741   1.796  15.000 -0.0783  0.1972 -0.7104
  814PEP     CB28859  22.187   1.805  15.150  0.2744  0.0517 -0.0904
  814PEP     CB28860  22.282   2.036  15.484 -0.1506 -0.5025 -0.2141
  814PEP     CB28861  22.080   2.093  15.868  0.1095  0.0583 -0.3144
  814PEP     CB28862  21.954   2.091  16.234 -0.0443 -0.1395 -0.2829
  814PEP     CB28863  21.852   2.298  16.621  0.0626 -0.4270  0.0075
  814PEP     CB28864  21.936   2.206  17.009 -0.1766  0.0174  0.2089
  814PEP     CB28865  21.980   2.287  17.473  0.2664  0.1617 -0.0890
  814PEP     CB28866  22.006   2.131  17.823 -0.1427  0.3158 -0.0578
  814PEP     CB28867  21.935   2.173  18.282 -0.2017  0.0690  0.1131
  814PEP     CB28868  21.896   2.418  18.586  0.0588  0.1373  0.2746
  814PEP     CB28869  21.537   2.553  18.781 -0.0632  0.3717  0.1424
  814PEP     CB28870  21.101   2.629  18.786  0.0848 -0.0740  0.1133
  814PEP     CB28871  20.712   2.603  18.990  0.1253 -0.3768  0.1022
  814PEP     CB28872  20.601   2.412  19.334  0.3431  0.1248  0.4571
  814PEP     CB28873  20.403   2.070  19.619 -0.0870  0.1759 -0.2293
  814PEP     CB28874  20.221   1.729  19.853 -0.1161  0.3132  0.0041
  814PEP     CB28875  20.126   1.538  20.225  0.0628  0.2907 -0.2762
  814PEP     CB28876  20.327   1.289  20.573 -0.3628 -0.1902  0.0128
  814PEP     CB28877  20.664   1.072  20.504  0.1807 -0.2105  0.3874
  814PEP     CB28878  20.691   0.751  20.207  0.2386  0.1252 -0.3556
  814PEP     CB28879  20.813   0.554  19.876 -0.2565 -0.0528 -0.0815
  814PEP     CB28880  21.034   0.278  19.532  0.0749  0.1508  0.3701
  815PEP     CB28881   5.542  14.271  21.236 -0.2386  0.5742 -0.2477
  815PEP     CB28882   5.278  14.384  20.896 -0.0209  0.0185  0.1608
  815PEP     CB28883   5.449  14.853  20.669 -0.1750 -0.2564 -0.4469
  815PEP     CB28884   5.485  15.276  20.402 -0.1130 -0.0709 -0.0821
  815PEP     CB28885   5.458  15.324  19.993 -0.2342 -0.2280 -0.2687
  815PEP     CB28886   5.553  15.173  19.543  0.0695 -0.1444  0.1090
  815PEP     CB28887   5.581  14.793  19.303  0.2002  0.1035 -0.0222
  815PEP     CB28888   5.502  14.401  19.443  0.0584 -0.1904  0.0016
  815PEP     CB28889   5.535  14.056  19.316  0.1268 -0.3405 -0.1546
  815PEP     CB28890   5.293  13.741  19.034 -0.1275  0.1695 -0.0658
  815PEP     CB28891   5.285  13.287  19.217  0.0561  0.1058  0.0150
  815PEP     CB28892   5.356  13.164  19.775 -0.2190  0.0719 -0.1793
  815PEP     CB28893   5.422  13.123  20.213  0.1978  0.0850  0.1634
  815PEP     CB28894   5.173  13.067  20.586 -0.0670  0.1357  0.2251
  815PEP     CB28895   4.782  13.091  20.887  0.5286  0.3894  0.0606
  815PEP     CB28896   4.298  12.941  20.856 -0.4847 -0.2514 -0.2309
  815PEP     CB28897   4.079  13.117  20.478 -0.4372 -0.0333 -0.4180
  815PEP     CB28898   3.932  13.547  20.269 -0.0808 -0.0392 -0.0573
  815PEP     CB28899   3.581  13.746  20.176  0.1168  0.2547 -0.2730
  815PEP     CB28900   3.439  14.116  19.959 -0.1053 -0.1410 -0.2010
  815PEP     CB28901   3.194  14.412  19.896  0.0407  0.1722 -0.2061
  815PEP     CB28902   2.973  14.715  20.047  0.0745  0.1439 -0.0294
  815PEP     CB28903   2.672  14.998  19.925 -0.0927  0.2092 -0.0412
  815PEP     CB28904   2.184  15.158  19.917 -0.0146 -0.1881 -0.1703
  815PEP     CB28905   1.936  15.327  20.324 -0.0571  0.2079 -0.0991
  815PEP     CB28906   2.133  15.382  20.676 -0.0460 -0.4147 -0.0743
  815PEP     CB28907   2.265  15.438  21.052  0.1437  0.1572 -0.0354
  815PEP     CB28908   2.481  15.643  21.417 -0.3982  0.3023 -0.1298
  815PEP     CB28909   2.686  16.046  21.367  0.0933 -0.2184 -0.1326
  815PEP     CB28910   3.148  16.082  21.224 -0.1788  0.1770 -0.2527
  815PEP     CB28911   3.441  15.739  21.207  0.0932 -0.2684 -0.1929
  815PEP     CB28912   3.754  15.488  20.907 -0.0504  0.3172 -0.5006
  815PEP     CB28913   3.872  15.030  21.016 -0.0613 -0.3934 -0.1687
  815PEP     CB28914   3.884  14.796  21.404 -0.0694 -0.3796  0.2983
  815PEP     CB28915   3.676  14.834  21.840 -0.0884 -0.3472 -0.3212
  815PEP     CB28916   3.631  14.963  22.309  0.0138  0.1829 -0.2328
  815PEP     CB28917   3.921  14.873  22.581 -0.3924  0.3928  0.1415
  815PEP     CB28918   4.262  14.763  22.918  0.0641 -0.2730  0.4193
  815PEP     CB28919   4.502  14.930  23.276 -0.1800  0.1946 -0.0554
  815PEP     CB28920   4.859  14.648  23.490  0.1842 -0.3066  0.4024
  816PEP     CB28921  18.588  19.403   9.222  0.1286 -0.2662  0.1352
  816PEP     CB28922  18.187  19.283   9.349 -0.1752 -0.0733 -0.3394
  816PEP     CB28923  17.842  19.283   9.689 -0.1032  0.1674 -0.1355
  816PEP     CB28924  17.761  19.532  10.041  0.0748  0.2233 -0.1160
  816PEP     CB28925  17.615  19.357  10.433 -0.4431  0.5776 -0.0278
  816PEP     CB28926  17.569  19.103  10.948  0.0710 -0.0160 -0.0519
  816PEP     CB28927  17.300  19.094  11.287  0.1046  0.2826  0.1171
  816PEP     CB28928  17.265  19.186  11.704 -0.1288 -0.2771  0.1285
  816PEP     CB28929  17.228  19.385  12.081  0.4499  0.0998  0.1544
  816PEP     CB28930  17.231  19.508  12.489  0.0709  0.0880 -0.0535
  816PEP     CB28931  17.220  19.787  12.845 -0.3046  0.2977 -0.1273
  816PEP     CB28932  16.888  19.929  13.114  0.1329 -0.3263 -0.0106
  816PEP     CB28933  16.518  19.686  13.222  0.0849 -0.0686  0.3151
  816PEP     CB28934  16.212  19.756  13.015 -0.4064  0.0307 -0.2423
  816PEP     CB28935  15.838  19.888  12.864 -0.1735  0.3051  0.1165
  816PEP     CB28936  15.398  19.778  12.791  0.1836 -0.2296  0.0995
  816PEP     CB28937  15.038  19.681  12.625  0.1144 -0.0652 -0.3503
  816PEP     CB28938  15.017  19.609  12.159  0.1803 -0.2460  0.1179
  816PEP     CB28939  15.285  19.483  11.822  0.1537 -0.1586 -0.0941
  816PEP     CB28940  15.595  19.523  11.531 -0.0344  0.0222  0.2282
  816PEP     CB28941  15.914  19.791  11.512  0.1741 -0.1751  0.1811
  816PEP     CB28942  15.931  20.273  11.729 -0.3819  0.1615  0.1942
  816PEP     CB28943  15.785  20.647  11.919  0.4554  0.0327  0.3796
  816PEP     CB28944  15.723  21.054  11.925  0.3102  0.0320 -0.4462
  816PEP     CB28945  15.538  21.426  11.904 -0.0820  0.2789 -0.0983
  816PEP     CB28946  15.363  21.880  11.773  0.0914  0.2183  0.1538
  816PEP     CB28947  15.212  22.309  11.613  0.1597  0.0800  0.0857
  816PEP     CB28948  15.067  22.724  11.842 -0.4125  0.0554 -0.0830
  816PEP     CB28949  14.905  22.710  12.309 -0.0996  0.1733 -0.1683
  816PEP     CB28950  14.550  22.501  12.383 -0.1649 -0.4379 -0.2395
  816PEP     CB28951  14.128  22.319  12.314 -0.0332 -0.0539 -0.4359
  816PEP     CB28952  13.714  22.144  12.447  0.3831  0.1691  0.4596
  816PEP     CB28953  13.429  21.992  12.633  0.1760  0.1129  0.1003
  816PEP     CB28954  13.115  21.770  12.824 -0.3511  0.2372  0.1697
  816PEP     CB28955  12.994  21.354  12.681 -0.0243 -0.1166  0.2322
  816PEP     CB28956  13.006  20.919  12.398 -0.1744 -0.0967  0.1807
  816PEP     CB28957  13.138  20.567  12.056 -0.0760  0.1156 -0.1293
  816PEP     CB28958  13.343  20.215  11.864 -0.3553 -0.0942 -0.1806
  816PEP     CB28959  13.729  20.043  11.783  0.4284  0.1824 -0.1783
  816PEP     CB28960  14.205  20.175  11.604  0.2932 -0.1479  0.0175
  817PEP     CB28961  19.679  14.656   5.632  0.2370  0.2845  0.0115
  817PEP     CB28962  19.867  14.817   5.216 -0.4274 -0.2402 -0.4579
  817PEP     CB28963  19.944  15.035   4.772  0.1740 -0.4613  0.1686
  817PEP     CB28964  19.819  15.031   4.385  0.1063 -0.1507 -0.1280
  817PEP     CB28965  20.173  14.876   4.041 -0.2622  0.1695  0.4749
  817PEP     CB28966  20.634  14.942   4.079  0.3782  0.1610 -0.4613
  817PEP     CB28967  20.870  15.089   4.444  0.1151  0.0343  0.4219
  817PEP     CB28968  20.781  14.863   4.825 -0.3733  0.0048  0.1052
  817PEP     CB28969  20.903  14.563   5.049 -0.2630 -0.1565 -0.0602
  817PEP     CB28970  21.262  14.484   5.194 -0.2041  0.1559 -0.1907
  817PEP     CB28971  21.632  14.159   5.320  0.2828  0.1782 -0.2862
  817PEP     CB28972  21.942  14.014   5.531  0.1917  0.1353 -0.3230
  817PEP     CB28973  22.407  13.762   5.556  0.4938 -0.1783 -0.0696
  817PEP     CB28974  22.880  13.644   5.445 -0.1858  0.4668 -0.0963
  817PEP     CB28975  23.091  13.342   5.278  0.3411  0.4073 -0.0608
  817PEP     CB28976  23.316  13.054   5.066  0.1487  0.0174 -0.2155
  817PEP     CB28977  23.340  12.649   5.207 -0.1203 -0.3548 -0.2452
  817PEP     CB28978  23.109  12.254   5.281 -0.2924  0.1436 -0.2088
  817PEP     CB28979  22.794  12.061   5.160 -0.1287  0.0287  0.0361
  817PEP     CB28980  22.649  11.955   4.819  0.4200 -0.3391 -0.2556
  817PEP     CB28981  22.643  11.561   4.553 -0.2597 -0.1363 -0.0912
  817PEP     CB28982  22.622  11.522   4.138  0.3018  0.4314  0.2787
  817PEP     CB28983  22.737  11.486   3.787  0.1911  0.4206  0.0720
  817PEP     CB28984  22.724  11.596   3.331  0.2195  0.2290  0.0856
  817PEP     CB28985  22.663  11.732   2.929 -0.0472 -0.0557 -0.1959
  817PEP     CB28986  22.695  11.919   2.530 -0.3297  0.2695 -0.3686
  817PEP     CB28987  22.896  11.871   2.051  0.1235  0.3040 -0.2763
  817PEP     CB28988  22.985  11.991   1.712  0.1539 -0.4222 -0.0871
  817PEP     CB28989  23.349  11.777   1.413  0.0274  0.0606 -0.1261
  817PEP     CB28990  23.600  11.380   1.431 -0.2220 -0.2471  0.2241
  817PEP     CB28991  24.022  11.086   1.339 -0.1792 -0.2851  0.2832
  817PEP     CB28992  24.397  10.783   1.246  0.0579  0.2718  0.0630
  817PEP     CB28993  24.692  10.437   1.251  0.5427 -0.3014  0.0354
  817PEP     CB28994  24.634   9.982   1.478 -0.1523  0.0753 -0.1752
  817PEP     CB28995  24.281   9.856   1.758 -0.4041 -0.1630  0.1016
  817PEP     CB28996  23.869   9.758   1.841 -0.3866  0.1081 -0.3025
  817PEP     CB28997  23.558  10.046   1.891  0.0816  0.1056 -0.3969
  817PEP     CB28998  23.266  10.205   2.058  0.0664  0.0051 -0.0315
  817PEP     CB28999  22.815  10.057   2.261  0.1769 -0.3076  0.2971
  817PEP     CB29000  22.531   9.678   2.293 -0.0438  0.0738  0.0295
  818PEP     CB29001  14.550  20.873   7.727 -0.2949 -0.2024  0.1669
  818PEP     CB29002  14.329  20.635   7.359  0.1579 -0.0203  0.2609
  818PEP     CB29003  14.418  20.386   6.986 -0.3457  0.4583  0.1040
  818PEP     CB29004  14.505  20.536   6.620 -0.1208  0.4010  0.2979
  818PEP     CB29005  14.386  20.987   6.514  0.0119  0.0819  0.0939
  818PEP     CB29006  13.968  21.221   6.618 -0.2534 -0.0287 -0.1132
  818PEP     CB29007  13.560  21.455   6.836  0.1766  0.0192 -0.0904
  818PEP     CB29008  13.519  21.665   7.247  0.0773 -0.4040 -0.0736
  818PEP     CB29009  13.803  22.040   7.402  0.1435  0.2802  0.3138
  818PEP     CB29010  13.898  22.533   7.281  0.1317  0.1905 -0.2383
  818PEP     CB29011  13.805  22.931   7.385  0.2758  0.1289  0.0307
  818PEP     CB29012  13.423  23.232   7.374 -0.0571 -0.1082  0.1782
  818PEP     CB29013  12.968  23.361   7.213 -0.0279 -0.1541 -0.0966
  818PEP     CB29014  12.571  23.492   7.345  0.3409 -0.3255  0.4192
  818PEP     CB29015  12.302  23.630   7.199  0.0560  0.0332 -0.0338
  818PEP     CB29016  12.364  24.098   7.159 -0.1792  0.0066 -0.0146
  818PEP     CB29017  12.647  24.412   7.456  0.5445  0.2034 -0.1905
  818PEP     CB29018  12.832  24.814   7.604 -0.0022 -0.1248 -0.5715
  818PEP     CB29019  13.153  25.076   7.650 -0.1131 -0.1931 -0.0297
  818PEP     CB29020  13.551  25.324   7.446 -0.1637 -0.0132  0.0216
  818PEP     CB29021  13.631  25.614   7.065  0.0553 -0.0186 -0.0322
  818PEP     CB29022  13.990  25.747   6.741 -0.1726  0.0471 -0.0372
  818PEP     CB29023  14.184  26.093   6.827 -0.1258  0.2206 -0.2049
  818PEP     CB29024  13.886  26.328   6.864 -0.0189  0.0425 -0.3945
  818PEP     CB29025  13.452  26.107   6.846 -0.1201  0.1802  0.1261
  818PEP     CB29026  13.417  25.700   6.612  0.1292 -0.1092 -0.0948
  818PEP     CB29027  13.693  25.308   6.580  0.1249  0.2254  0.0600
  818PEP     CB29028  14.101  25.310   6.446 -0.0323  0.0924 -0.2733
  818PEP     CB29029  14.486  25.092   6.593 -0.0037  0.3483 -0.0655
  818PEP     CB29030  14.834  24.815   6.792 -0.2636  0.0380 -0.0769
  818PEP     CB29031  15.079  24.940   7.069  0.4555  0.0728 -0.3350
  818PEP     CB29032  15.177  25.293   7.190  0.1924  0.3022 -0.1220
  818PEP     CB29033  15.487  25.542   7.343 -0.1915 -0.0796  0.3766
  818PEP     CB29034  15.940  25.495   7.340 -0.2033 -0.1461 -0.1209
  818PEP     CB29035  16.297  25.788   7.276  0.3039 -0.2496  0.1278
  818PEP     CB29036  16.404  26.222   7.587 -0.1139 -0.3602  0.1481
  818PEP     CB29037  16.248  26.537   7.847 -0.0003  0.3697 -0.2352
  818PEP     CB29038  16.354  26.957   7.834  0.2476 -0.0591  0.1121
  818PEP     CB29039  16.695  27.141   7.692  0.3038  0.0626  0.5332
  818PEP     CB29040  16.875  27.476   7.481 -0.3850  0.3160 -0.4747
  819PEP     CB29041   2.580  20.165  15.148 -0.2476  0.0969 -0.1089
  819PEP     CB29042   2.108  20.181  15.234  0.1871 -0.2751 -0.0962
  819PEP     CB29043   1.696  20.374  15.225 -0.0292 -0.1142  0.1056
  819PEP     CB29044   1.369  20.340  15.456 -0.1328 -0.1104  0.1899
  819PEP     CB29045   1.009  20.365  15.626  0.0616  0.0469 -0.5230
  819PEP     CB29046   0.712  20.465  15.926  0.1410  0.6044  0.3351
  819PEP     CB29047   0.723  20.867  16.131  0.3897  0.2132  0.2783
  819PEP     CB29048   0.813  21.010  16.474 -0.3045 -0.1551 -0.0328
  819PEP     CB29049   0.818  21.263  16.801 -0.2595 -0.1666 -0.0909
  819PEP     CB29050   0.747  21.446  17.112  0.0982 -0.1513 -0.0343
  819PEP     CB29051   0.980  21.584  17.462  0.0758 -0.2077 -0.0353
  819PEP     CB29052   0.951  21.570  17.859  0.0107 -0.1785  0.0909
  819PEP     CB29053   1.210  21.496  18.242 -0.1332  0.1190  0.2615
  819PEP     CB29054   1.361  21.575  18.654 -0.2058 -0.0950  0.2869
  819PEP     CB29055   1.652  21.935  18.803  0.0269  0.1253  0.0827
  819PEP     CB29056   2.108  22.008  18.786 -0.0299  0.2676  0.4366
  819PEP     CB29057   2.306  22.102  18.529  0.1218 -0.0316 -0.1396
  819PEP     CB29058   2.550  22.305  18.244  0.0560  0.1634  0.2400
  819PEP     CB29059   3.003  22.540  18.341 -0.1754 -0.1827 -0.0479
  819PEP     CB29060   3.372  22.682  18.259 -0.1805  0.2454  0.2757
  819PEP     CB29061   3.739  22.974  18.434  0.1196 -0.0809 -0.1901
  819PEP     CB29062   3.917  23.414  18.583 -0.0722  0.5055  0.3841
  819PEP     CB29063   4.264  23.552  18.754 -0.0555  0.2229 -0.4214
  819PEP     CB29064   4.709  23.560  18.639 -0.1335  0.3089 -0.5588
  819PEP     CB29065   4.984  23.620  18.315 -0.7169 -0.2963  0.4054
  819PEP     CB29066   4.911  23.926  17.950  0.2155  0.0289  0.0566
  819PEP     CB29067   4.611  24.317  17.939 -0.2144 -0.1544 -0.0896
  819PEP     CB29068   4.430  24.529  18.277  0.3560 -0.0938  0.2752
  819PEP     CB29069   4.574  24.553  18.728  0.1042 -0.0579 -0.1000
  819PEP     CB29070   4.766  24.520  19.081  0.0071 -0.0896 -0.3319
  819PEP     CB29071   4.638  24.551  19.550  0.2583 -0.0168  0.2550
  819PEP     CB29072   4.636  24.342  19.984 -0.1508 -0.2513 -0.1169
  819PEP     CB29073   4.584  24.370  20.451 -0.3388  0.2906  0.2079
  819PEP     CB29074   4.823  24.158  20.750 -0.4082  0.0555  0.3246
  819PEP     CB29075   5.272  24.047  20.619 -0.2099  0.1174 -0.1527
  819PEP     CB29076   5.574  24.119  20.277 -0.2065  0.2503 -0.5112
  819PEP     CB29077   5.658  24.134  19.869  0.2641 -0.2779 -0.3372
  819PEP     CB29078   5.640  24.298  19.411  0.2673 -0.0026 -0.0991
  819PEP     CB29079   5.629  24.529  19.015  0.0026 -0.0030 -0.0228
  819PEP     CB29080   5.428  24.751  18.742 -0.0483  0.2284 -0.1980
  820PEP     CB29081  19.903   3.586  13.068 -0.0743 -0.1501 -0.2091
  820PEP     CB29082  20.340   3.636  13.208 -0.1803 -0.5099  0.0219
  820PEP     CB29083  20.786   3.649  13.408 -0.2206 -0.4250  0.2038
  820PEP     CB29084  21.184   3.719  13.224 -0.0441  0.0056 -0.0550
  820PEP     CB29085  21.350   3.549  12.883  0.1840 -0.0440  0.0446
  820PEP     CB29086  21.497   3.745  12.526  0.1968  0.5084 -0.1852
  820PEP     CB29087  21.466   4.161  12.354  0.1335  0.1966 -0.1785
  820PEP     CB29088  21.790   4.432  12.219 -0.1798 -0.1993  0.0224
  820PEP     CB29089  22.241   4.494  12.165  0.3732  0.2303 -0.0382
  820PEP     CB29090  22.535   4.814  11.981  0.1098 -0.2467  0.0223
  820PEP     CB29091  22.845   5.165  12.166  0.0596 -0.0152  0.2207
  820PEP     CB29092  22.927   5.600  12.389 -0.3091 -0.1255 -0.1120
  820PEP     CB29093  23.133   6.007  12.418  0.0642 -0.1478  0.2427
  820PEP     CB29094  22.968   6.347  12.201  0.2532 -0.0670  0.1975
  820PEP     CB29095  22.517   6.327  12.014 -0.2474  0.0635 -0.1543
  820PEP     CB29096  22.192   5.977  12.106 -0.4002  0.0483 -0.0207
  820PEP     CB29097  21.850   5.612  12.115  0.2990  0.1671  0.3290
  820PEP     CB29098  21.639   5.301  11.923 -0.0861 -0.1050 -0.0855
  820PEP     CB29099  21.584   4.890  11.858  0.0303  0.0955 -0.3046
  820PEP     CB29100  21.482   4.385  11.825  0.2081  0.1514  0.3394
  820PEP     CB29101  21.559   4.008  11.864  0.0672  0.0061  0.1703
  820PEP     CB29102  21.468   3.576  11.728 -0.3482  0.3844  0.0758
  820PEP     CB29103  21.214   3.250  11.594  0.0620  0.0137 -0.2829
  820PEP     CB29104  21.001   2.919  11.477 -0.1512 -0.4691  0.4055
  820PEP     CB29105  20.908   2.490  11.621 -0.1357 -0.4674  0.0250
  820PEP     CB29106  20.777   2.141  11.855 -0.5455  0.2765  0.4424
  820PEP     CB29107  20.757   1.667  12.019 -0.2835  0.0165 -0.1578
  820PEP     CB29108  20.562   1.227  11.878 -0.4189  0.1167  0.0717
  820PEP     CB29109  20.438   0.763  11.903  0.1460 -0.0699 -0.3157
  820PEP     CB29110  20.286   0.349  11.815 -0.3317  0.0075  0.1438
  820PEP     CB29111  20.231   0.002  11.700  0.2040 -0.0044 -0.1293
  820PEP     CB29112  20.223  -0.439  11.489 -0.2512  0.1586 -0.0663
  820PEP     CB29113  19.858  -0.683  11.469  0.1880 -0.1167 -0.1769
  820PEP     CB29114  19.554  -0.453  11.443 -0.1007 -0.2778  0.0691
  820PEP     CB29115  19.345  -0.129  11.749  0.2023 -0.1185  0.2080
  820PEP     CB29116  19.456   0.172  12.004  0.3063  0.0493 -0.1208
  820PEP     CB29117  19.631   0.391  12.363  0.0877 -0.1167  0.2808
  820PEP     CB29118  19.615   0.589  12.812 -0.0639 -0.2329  0.2058
  820PEP     CB29119  19.320   0.452  13.152 -0.0363  0.5014 -0.1482
  820PEP     CB29120  18.877   0.335  13.185 -0.2376 -0.1106  0.2271
  821PEP     CB29121  20.055  14.563   4.538  0.2761  0.0219 -0.2092
  821PEP     CB29122  20.333  14.895   4.528  0.2978 -0.0840  0.0474
  821PEP     CB29123  20.384  15.306   4.550  0.1115  0.3306  0.0927
  821PEP     CB29124  20.633  15.450   4.260  0.4211 -0.1900 -0.1845
  821PEP     CB29125  20.713  15.336   3.816  0.1172 -0.1216  0.2345
  821PEP     CB29126  20.916  14.959   3.710 -0.2873  0.2069  0.3971
  821PEP     CB29127  21.037  14.498   3.933 -0.0774 -0.0097 -0.0472
  821PEP     CB29128  21.148  14.186   4.096 -0.0725 -0.5550 -0.4099
  821PEP     CB29129  21.260  13.922   4.332 -0.3180  0.0154  0.2606
  821PEP     CB29130  21.382  13.721   4.734  0.2055  0.1370 -0.0401
  821PEP     CB29131  21.091  13.885   5.180  0.2404  0.1582  0.0662
  821PEP     CB29132  20.890  13.895   5.632  0.4915  0.0479  0.0356
  821PEP     CB29133  20.813  13.806   6.022 -0.2488  0.1986 -0.3590
  821PEP     CB29134  20.511  13.545   6.245 -0.1091 -0.2413  0.2484
  821PEP     CB29135  20.112  13.351   6.028 -0.1834  0.1051 -0.1215
  821PEP     CB29136  19.892  13.570   5.664 -0.1288 -0.3602 -0.1004
  821PEP     CB29137  20.093  13.930   5.298  0.0411  0.0442  0.1659
  821PEP     CB29138  20.522  14.191   5.318 -0.0422  0.1795 -0.1770
  821PEP     CB29139  20.762  14.443   5.485  0.2235  0.1975  0.1486
  821PEP     CB29140  21.141  14.327   5.725 -0.0884  0.0632 -0.5068
  821PEP     CB29141  21.532  14.154   5.946  0.2933  0.3214  0.0255
  821PEP     CB29142  21.850  13.794   5.960 -0.4002 -0.2535 -0.1292
  821PEP     CB29143  22.150  13.522   5.852  0.0396  0.2837  0.5513
  821PEP     CB29144  22.479  13.308   5.911 -0.1139 -0.1037 -0.0680
  821PEP     CB29145  22.524  12.890   5.898 -0.2367 -0.1596 -0.2474
  821PEP     CB29146  22.365  12.491   5.995 -0.1179  0.3658 -0.1286
  821PEP     CB29147  22.164  12.152   5.919 -0.1849  0.5709  0.4853
  821PEP     CB29148  22.156  11.723   5.674  0.4179 -0.2333 -0.1495
  821PEP     CB29149  22.340  11.417   5.474 -0.5057 -0.0020  0.0021
  821PEP     CB29150  22.272  11.070   5.205 -0.1364  0.1485  0.1851
  821PEP     CB29151  22.333  10.755   4.984  0.0851 -0.3805  0.0542
  821PEP     CB29152  22.436  10.386   5.073 -0.0696  0.1366 -0.2474
  821PEP     CB29153  22.346  10.082   4.848 -0.1246 -0.0682 -0.3634
  821PEP     CB29154  22.163  10.117   4.499  0.2353  0.1270  0.0624
  821PEP     CB29155  22.249  10.521   4.316  0.2856  0.1058 -0.5665
  821PEP     CB29156  22.601  10.693   4.478  0.0147 -0.3037  0.2131
  821PEP     CB29157  22.911  11.053   4.370  0.1316  0.2081  0.3306
  821PEP     CB29158  23.202  11.437   4.441 -0.2313  0.0416  0.0450
  821PEP     CB29159  23.596  11.573   4.207 -0.2772 -0.2139 -0.7107
  821PEP     CB29160  23.853  11.478   3.817  0.3758 -0.1863  0.0339
  822PEP     CB29161  17.613  12.379   9.076 -0.2634 -0.1955  0.1470
  822PEP     CB29162  17.465  11.974   9.226  0.1081  0.0096 -0.1360
  822PEP     CB29163  17.116  11.629   9.290  0.1802  0.3753  0.2569
  822PEP     CB29164  16.941  11.124   9.446 -0.0353 -0.6015  0.2835
  822PEP     CB29165  17.342  10.863   9.612 -0.0710  0.0870 -0.0296
  822PEP     CB29166  17.740  11.033   9.680 -0.3425 -0.2171  0.4515
  822PEP     CB29167  17.942  11.461   9.908  0.2744  0.2916  0.1311
  822PEP     CB29168  18.115  11.905   9.906  0.3297 -0.3107 -0.3182
  822PEP     CB29169  18.401  12.076   9.622 -0.3065 -0.3436 -0.0220
  822PEP     CB29170  18.448  12.054   9.108  0.0738 -0.0892 -0.0330
  822PEP     CB29171  18.398  12.158   8.742  0.2528  0.1316  0.0168
  822PEP     CB29172  18.279  12.393   8.429 -0.0110 -0.1281  0.3050
  822PEP     CB29173  18.365  12.429   7.993 -0.0611  0.0438  0.2173
  822PEP     CB29174  18.251  12.649   7.683  0.0338  0.1190  0.4441
  822PEP     CB29175  18.172  12.915   7.235 -0.0178  0.0719 -0.2007
  822PEP     CB29176  18.090  13.188   6.843  0.0926 -0.2912  0.2616
  822PEP     CB29177  17.714  13.148   6.492 -0.0320  0.0858  0.2920
  822PEP     CB29178  17.378  12.816   6.373 -0.1237 -0.1499  0.2922
  822PEP     CB29179  17.504  12.389   6.253  0.0269 -0.0415  0.0916
  822PEP     CB29180  17.575  11.971   6.275 -0.2838 -0.0791  0.0507
  822PEP     CB29181  17.604  11.583   6.234 -0.0074  0.1296  0.2113
  822PEP     CB29182  17.683  11.196   6.426  0.1246  0.3864  0.2148
  822PEP     CB29183  17.715  11.045   6.822  0.0475  0.1033  0.1992
  822PEP     CB29184  17.733  10.952   7.233  0.1445  0.3966 -0.0357
  822PEP     CB29185  17.753  11.005   7.655  0.3128 -0.1111 -0.1230
  822PEP     CB29186  18.057  11.022   7.961  0.1878  0.4530  0.4186
  822PEP     CB29187  18.325  11.299   8.053 -0.4242 -0.0139 -0.3140
  822PEP     CB29188  18.497  11.720   7.941  0.5874 -0.0204  0.1044
  822PEP     CB29189  18.427  12.095   7.669  0.0645 -0.1059 -0.1827
  822PEP     CB29190  18.342  12.397   7.237 -0.0939  0.0824  0.3966
  822PEP     CB29191  18.622  12.707   7.080 -0.0370 -0.0947 -0.3003
  822PEP     CB29192  19.007  13.037   7.057  0.3785 -0.1170 -0.2625
  822PEP     CB29193  19.295  13.248   7.383  0.1124  0.2306 -0.4495
  822PEP     CB29194  19.360  13.174   7.802  0.4735 -0.1381  0.0622
  822PEP     CB29195  19.758  13.043   8.083  0.2665 -0.0068 -0.1513
  822PEP     CB29196  20.160  13.150   7.856  0.2982  0.0446 -0.0715
  822PEP     CB29197  20.548  13.213   7.612  0.0350  0.3218  0.0220
  822PEP     CB29198  20.722  13.460   7.232  0.5306  0.0524  0.2410
  822PEP     CB29199  20.795  13.393   6.765 -0.1103  0.2610 -0.4858
  822PEP     CB29200  21.013  13.469   6.363  0.1059 -0.2035 -0.1653
  823PEP     CB29201  11.872  14.049  15.855 -0.1354  0.2115 -0.0285
  823PEP     CB29202  11.779  13.688  16.036  0.0094 -0.0842  0.1681
  823PEP     CB29203  11.750  13.285  16.213  0.3154 -0.1198  0.0829
  823PEP     CB29204  11.829  12.848  16.162 -0.0597  0.1179 -0.1784
  823PEP     CB29205  12.178  12.564  16.219 -0.1945 -0.3292  0.1553
  823PEP     CB29206  12.520  12.437  16.250  0.1965  0.1152 -0.2541
  823PEP     CB29207  12.900  12.148  16.410 -0.1965  0.0251 -0.0343
  823PEP     CB29208  12.963  11.893  16.747  0.1779 -0.0016 -0.1848
  823PEP     CB29209  13.083  11.812  17.222 -0.1735 -0.0380  0.1881
  823PEP     CB29210  12.819  11.623  17.580 -0.0526 -0.2330  0.0236
  823PEP     CB29211  12.575  11.403  17.855  0.2887  0.3407 -0.1281
  823PEP     CB29212  12.215  11.071  18.014 -0.0510 -0.0542  0.0257
  823PEP     CB29213  12.255  10.815  18.418  0.3074 -0.0906  0.0464
  823PEP     CB29214  12.221  10.849  18.857  0.0885  0.5130  0.0700
  823PEP     CB29215  12.189  10.978  19.286  0.2107  0.0429 -0.1130
  823PEP     CB29216  11.881  10.879  19.656  0.0108 -0.0271  0.3104
  823PEP     CB29217  11.490  10.790  19.737 -0.0135  0.3681 -0.1761
  823PEP     CB29218  11.110  11.096  19.676  0.0806  0.2027 -0.0830
  823PEP     CB29219  10.663  11.036  19.511  0.3007 -0.2478  0.4061
  823PEP     CB29220  10.348  10.852  19.754  0.0502  0.2940  0.2412
  823PEP     CB29221  10.349  10.793  20.241 -0.0413 -0.0870 -0.0817
  823PEP     CB29222  10.508  10.496  20.665 -0.1429  0.0406 -0.0091
  823PEP     CB29223  10.514  10.530  21.102 -0.0511  0.1918  0.5252
  823PEP     CB29224  10.368  10.533  21.442 -0.0700  0.1159  0.0472
  823PEP     CB29225  10.073  10.670  21.714  0.3364 -0.4165 -0.2404
  823PEP     CB29226   9.777  10.474  21.706  0.2022  0.1903 -0.1573
  823PEP     CB29227   9.582  10.109  21.480  0.4883 -0.0456 -0.0024
  823PEP     CB29228   9.509   9.664  21.473 -0.1002 -0.0362 -0.1097
  823PEP     CB29229   9.766   9.325  21.379 -0.2969 -0.0351  0.1426
  823PEP     CB29230  10.017   8.935  21.264  0.2835  0.1932 -0.0508
  823PEP     CB29231   9.849   8.579  21.047 -0.1524  0.0776  0.1359
  823PEP     CB29232   9.859   8.400  20.564 -0.2930  0.0512 -0.0017
  823PEP     CB29233  10.168   8.710  20.306 -0.2009  0.2113 -0.2911
  823PEP     CB29234   9.944   9.100  20.195  0.0708 -0.2667  0.5975
  823PEP     CB29235   9.544   9.185  20.195 -0.2333  0.1404  0.2652
  823PEP     CB29236   9.130   9.302  20.065  0.0261  0.3057  0.4052
  823PEP     CB29237   8.744   9.177  20.079  0.5282  0.0583  0.1069
  823PEP     CB29238   8.383   8.957  19.754  0.0231 -0.1882  0.0945
  823PEP     CB29239   8.466   8.803  19.343  0.0657  0.1164 -0.0593
  823PEP     CB29240   8.430   8.784  18.904  0.3411  0.1637  0.0898
  824PEP     CB29241   4.682   1.523  19.182 -0.0618 -0.0491 -0.0740
  824PEP     CB29242   4.335   1.264  19.213  0.2414  0.0854 -0.3737
  824PEP     CB29243   3.897   1.393  19.079 -0.0292  0.1738 -0.1700
  824PEP     CB29244   3.942   1.804  18.806 -0.2551 -0.5835  0.5461
  824PEP     CB29245   4.159   2.158  18.987 -0.2102 -0.3113 -0.1324
  824PEP     CB29246   4.164   2.221  19.431 -0.0173 -0.1264  0.0113
  824PEP     CB29247   3.730   2.263  19.650 -0.2356 -0.2137 -0.1266
  824PEP     CB29248   3.320   2.360  19.762  0.2879  0.3707 -0.0448
  824PEP     CB29249   3.211   2.478  20.166  0.2437 -0.1234  0.0319
  824PEP     CB29250   3.421   2.888  20.411  0.0557  0.2289 -0.0430
  824PEP     CB29251   3.866   3.056  20.402  0.0580 -0.0549 -0.0389
  824PEP     CB29252   4.188   3.314  20.619  0.1574  0.0255  0.1982
  824PEP     CB29253   4.359   3.616  20.888 -0.5970  0.1518 -0.2705
  824PEP     CB29254   4.848   3.558  21.003  0.1660 -0.1367  0.2546
  824PEP     CB29255   5.332   3.725  21.047  0.5557 -0.1518 -0.4172
  824PEP     CB29256   5.475   4.067  21.278  0.2044  0.0341 -0.2025
  824PEP     CB29257   5.275   4.427  21.357 -0.0504 -0.3522 -0.2362
  824PEP     CB29258   4.810   4.491  21.397 -0.2511 -0.1183  0.2491
  824PEP     CB29259   4.409   4.472  21.616  0.1958 -0.0290  0.3170
  824PEP     CB29260   3.931   4.317  21.787  0.4237 -0.3963 -0.0508
  824PEP     CB29261   3.514   4.312  21.613 -0.1133 -0.0288 -0.1072
  824PEP     CB29262   3.231   4.504  21.229 -0.1439  0.2451  0.1015
  824PEP     CB29263   2.884   4.320  20.890 -0.0931 -0.2760 -0.1395
  824PEP     CB29264   2.739   4.287  20.471 -0.0574 -0.1462  0.2977
  824PEP     CB29265   2.593   4.228  20.025  0.0100  0.5209  0.1988
  824PEP     CB29266   2.593   3.796  19.701 -0.0241  0.3999  0.3554
  824PEP     CB29267   2.856   3.440  19.651  0.0432  0.1626  0.0719
  824PEP     CB29268   3.207   3.289  19.946  0.2566 -0.1774 -0.0961
  824PEP     CB29269   3.565   3.102  19.955 -0.0415  0.7446  0.1166
  824PEP     CB29270   3.868   3.283  19.883  0.0218 -0.1770  0.0344
  824PEP     CB29271   4.259   3.554  20.060 -0.0238  0.1414  0.3690
  824PEP     CB29272   4.257   3.928  20.191 -0.0537 -0.0384  0.4524
  824PEP     CB29273   3.924   4.287  20.295 -0.1556  0.1423 -0.1398
  824PEP     CB29274   3.460   4.374  20.414 -0.0439 -0.1754  0.2128
  824PEP     CB29275   3.159   4.266  20.371 -0.0108  0.2422 -0.1764
  824PEP     CB29276   2.981   4.538  20.012  0.0704 -0.0982  0.1729
  824PEP     CB29277   3.192   4.915  19.794  0.0841  0.1192 -0.3263
  824PEP     CB29278   3.517   5.210  20.038  0.1203  0.3042 -0.0287
  824PEP     CB29279   3.683   5.069  20.350  0.1820  0.0090  0.4470
  824PEP     CB29280   3.682   4.931  20.763  0.0882  0.0201 -0.1341
  825PEP     CB29281  14.965  10.297  18.616  0.1013  0.4440  0.2357
  825PEP     CB29282  15.206   9.952  18.487  0.2844  0.0864 -0.2332
  825PEP     CB29283  15.275   9.520  18.321  0.0506 -0.0200 -0.2157
  825PEP     CB29284  15.340   9.220  17.988 -0.1033  0.1948 -0.0834
  825PEP     CB29285  15.071   8.898  17.787 -0.1019 -0.2365 -0.1651
  825PEP     CB29286  14.794   8.644  17.529  0.1368  0.3743 -0.1532
  825PEP     CB29287  14.454   8.707  17.257 -0.1173 -0.2117  0.1170
  825PEP     CB29288  14.113   8.940  17.266  0.2721 -0.4148 -0.1597
  825PEP     CB29289  13.700   9.032  17.313 -0.2114 -0.3155  0.0416
  825PEP     CB29290  13.368   8.761  17.452  0.0596  0.0635  0.3141
  825PEP     CB29291  13.100   8.532  17.740 -0.0973  0.2174 -0.0207
  825PEP     CB29292  12.946   8.523  18.130  0.1736  0.0299 -0.1249
  825PEP     CB29293  13.152   8.204  18.418 -0.0603 -0.1786 -0.1014
  825PEP     CB29294  13.228   7.759  18.417 -0.1243  0.0139  0.1532
  825PEP     CB29295  12.873   7.502  18.246 -0.0956 -0.1438 -0.0860
  825PEP     CB29296  12.562   7.529  17.916  0.1497 -0.0891  0.0343
  825PEP     CB29297  12.138   7.498  17.772  0.1325 -0.1349 -0.1103
  825PEP     CB29298  11.791   7.707  17.777 -0.1035  0.1835  0.0424
  825PEP     CB29299  11.304   7.768  17.924 -0.3176 -0.1839  0.0678
  825PEP     CB29300  11.079   8.052  18.284 -0.5560 -0.1459 -0.1251
  825PEP     CB29301  10.780   7.865  18.619  0.0092 -0.2656  0.0505
  825PEP     CB29302  10.567   7.493  18.464 -0.1390  0.2632 -0.0897
  825PEP     CB29303  10.561   7.106  18.127  0.0410  0.2763 -0.6691
  825PEP     CB29304  10.605   6.837  17.738  0.4038  0.0929 -0.4013
  825PEP     CB29305  10.793   6.648  17.483  0.1456  0.2163  0.1842
  825PEP     CB29306  11.064   6.317  17.614  0.0335 -0.1037  0.2990
  825PEP     CB29307  11.018   6.266  18.130  0.3708 -0.3111  0.3762
  825PEP     CB29308  10.589   6.374  18.306  0.0507 -0.3467  0.3882
  825PEP     CB29309  10.199   6.284  18.587  0.0062  0.1502 -0.3556
  825PEP     CB29310  10.070   6.054  18.927 -0.2096 -0.0863  0.1557
  825PEP     CB29311  10.193   5.575  19.095 -0.2363  0.0670 -0.2194
  825PEP     CB29312  10.611   5.368  18.974  0.0226 -0.2645 -0.1496
  825PEP     CB29313  10.725   5.336  18.565 -0.0544 -0.2212  0.5749
  825PEP     CB29314  10.775   5.152  18.217 -0.1130 -0.2461  0.1232
  825PEP     CB29315  11.086   4.848  17.967 -0.1733 -0.2879 -0.0982
  825PEP     CB29316  11.199   4.417  17.862 -0.3539 -0.4934  0.2956
  825PEP     CB29317  11.258   4.043  17.711  0.0520  0.2846 -0.1983
  825PEP     CB29318  11.457   3.593  17.633 -0.1519 -0.0264  0.0744
  825PEP     CB29319  11.575   3.214  17.417 -0.1272  0.0500 -0.1293
  825PEP     CB29320  11.556   2.813  17.317  0.2675 -0.1577 -0.1894
  826PEP     CB29321  15.420   4.471   7.249  0.0929  0.1028  0.2067
  826PEP     CB29322  15.548   4.844   7.100 -0.4442 -0.1120 -0.2607
  826PEP     CB29323  15.881   5.154   7.048  0.0796 -0.2194  0.0665
  826PEP     CB29324  16.187   5.309   7.025 -0.1341 -0.3170 -0.6888
  826PEP     CB29325  16.529   5.059   7.276 -0.0602  0.1271 -0.0226
  826PEP     CB29326  16.539   4.683   7.388  0.4544 -0.1660  0.1202
  826PEP     CB29327  16.552   4.354   7.137 -0.0930 -0.2304 -0.0099
  826PEP     CB29328  16.541   4.267   6.669  0.0300 -0.0585 -0.1398
  826PEP     CB29329  16.397   4.440   6.254  0.1622 -0.2554 -0.1094
  826PEP     CB29330  16.152   4.861   6.166 -0.0760  0.1595 -0.1457
  826PEP     CB29331  15.691   5.022   5.994 -0.0099  0.0236  0.1911
  826PEP     CB29332  15.290   4.966   6.206 -0.1528 -0.0106  0.1126
  826PEP     CB29333  15.357   4.829   6.580  0.2396 -0.3920 -0.4246
  826PEP     CB29334  15.636   4.545   6.557  0.2331 -0.1276 -0.1869
  826PEP     CB29335  15.738   4.450   6.102 -0.1208 -0.2317 -0.1558
  826PEP     CB29336  15.424   4.512   5.770 -0.3222  0.3051  0.1215
  826PEP     CB29337  15.072   4.749   5.865  0.1527 -0.0700 -0.2361
  826PEP     CB29338  14.660   5.008   5.709  0.2381  0.2144 -0.1783
  826PEP     CB29339  14.320   5.298   5.576  0.2456  0.2128 -0.0192
  826PEP     CB29340  13.928   5.190   5.424  0.2179  0.2325  0.0281
  826PEP     CB29341  13.982   4.832   5.238  0.2282 -0.3641 -0.0661
  826PEP     CB29342  14.386   4.756   5.212 -0.0863  0.0096 -0.1959
  826PEP     CB29343  14.763   4.935   5.082  0.1922  0.3030  0.2968
  826PEP     CB29344  14.893   5.325   5.021 -0.0859  0.4783  0.3195
  826PEP     CB29345  15.121   5.644   4.966  0.0598  0.2295 -0.3636
  826PEP     CB29346  15.261   5.988   4.732 -0.2501  0.1768  0.2650
  826PEP     CB29347  15.130   6.190   4.309  0.1587 -0.0697 -0.0480
  826PEP     CB29348  15.042   5.894   3.980  0.2472 -0.2754  0.0404
  826PEP     CB29349  14.760   5.616   3.830  0.4499  0.0445  0.4564
  826PEP     CB29350  14.316   5.635   3.977 -0.2944 -0.1598 -0.1901
  826PEP     CB29351  14.026   5.814   4.217  0.1258 -0.0142  0.0502
  826PEP     CB29352  13.632   5.885   4.476 -0.1306  0.1154 -0.1999
  826PEP     CB29353  13.199   5.977   4.620  0.1675  0.1843 -0.0442
  826PEP     CB29354  12.835   5.681   4.672  0.2318  0.1205  0.0610
  826PEP     CB29355  12.633   5.358   4.505 -0.0668 -0.3831  0.2022
  826PEP     CB29356  12.315   4.995   4.456  0.1514  0.0737 -0.0069
  826PEP     CB29357  12.218   4.622   4.543 -0.3684  0.0074  0.2313
  826PEP     CB29358  12.130   4.123   4.554  0.0935 -0.2198  0.0899
  826PEP     CB29359  11.962   3.793   4.856  0.1122  0.1250 -0.3626
  826PEP     CB29360  12.264   3.404   5.033  0.1877 -0.2114  0.0962
  827PEP     CB29361  13.817   9.194   0.331  0.3891  0.0116  0.0351
  827PEP     CB29362  13.645   9.229   0.757  0.3122  0.1338 -0.0853
  827PEP     CB29363  13.786   9.422   1.045 -0.0723  0.1796  0.1892
  827PEP     CB29364  14.093   9.677   1.371 -0.3461  0.1432  0.1585
  827PEP     CB29365  14.133  10.023   1.704  0.0696  0.2183 -0.1481
  827PEP     CB29366  14.293   9.914   2.120 -0.1088 -0.1596  0.0964
  827PEP     CB29367  14.176   9.822   2.506  0.1442 -0.2059 -0.1474
  827PEP     CB29368  13.788   9.819   2.624 -0.0000  0.0197 -0.0907
  827PEP     CB29369  13.444   9.767   2.460  0.0605  0.3654  0.1096
  827PEP     CB29370  13.232  10.034   2.169  0.2567 -0.1507  0.3006
  827PEP     CB29371  12.810  10.069   1.928 -0.3373  0.5110  0.0606
  827PEP     CB29372  12.416   9.978   2.089 -0.2401  0.1011 -0.0880
  827PEP     CB29373  12.319   9.766   2.495 -0.6213  0.0886 -0.0761
  827PEP     CB29374  12.591   9.734   2.807  0.2355  0.0247  0.3024
  827PEP     CB29375  12.826  10.174   2.800  0.3133 -0.4449  0.0407
  827PEP     CB29376  12.792  10.596   2.737  0.2630  0.2107 -0.0105
  827PEP     CB29377  12.431  10.790   2.874 -0.6312  0.0164  0.2528
  827PEP     CB29378  12.145  11.161   2.829 -0.5259  0.2734 -0.2674
  827PEP     CB29379  11.764  11.385   2.755  0.0014 -0.2112 -0.0476
  827PEP     CB29380  11.286  11.296   2.821  0.0496  0.1742 -0.0170
  827PEP     CB29381  10.796  11.177   2.806  0.3309  0.2164 -0.0473
  827PEP     CB29382  10.403  11.136   2.894  0.0693  0.0205 -0.1501
  827PEP     CB29383  10.168  10.852   3.026  0.0352  0.0945  0.3722
  827PEP     CB29384   9.843  10.394   2.921  0.1087 -0.2295  0.2341
  827PEP     CB29385   9.770   9.955   2.972 -0.1215 -0.2097  0.2650
  827PEP     CB29386   9.662   9.558   3.200 -0.1843  0.1747 -0.0247
  827PEP     CB29387   9.399   9.470   3.594 -0.0354 -0.0605 -0.0791
  827PEP     CB29388   9.062   9.618   3.503  0.3081  0.2873 -0.1251
  827PEP     CB29389   8.658   9.522   3.377  0.0995  0.0359  0.3132
  827PEP     CB29390   8.482   9.055   3.343 -0.0730 -0.0050  0.1695
  827PEP     CB29391   8.114   8.815   3.394  0.1719  0.2028  0.2818
  827PEP     CB29392   7.893   8.696   3.773  0.2267 -0.3314 -0.1201
  827PEP     CB29393   7.825   8.836   4.206 -0.3908 -0.6273 -0.0843
  827PEP     CB29394   7.921   9.103   4.575  0.3204 -0.2031  0.3670
  827PEP     CB29395   7.926   9.250   4.978  0.3233 -0.1379  0.2053
  827PEP     CB29396   8.005   9.676   5.096 -0.0401 -0.0361 -0.1137
  827PEP     CB29397   7.741  10.076   5.089  0.1040 -0.0383  0.0479
  827PEP     CB29398   7.889  10.492   5.081  0.2800  0.1776 -0.0352
  827PEP     CB29399   8.354  10.601   5.035  0.3078 -0.0421 -0.1691
  827PEP     CB29400   8.684  10.858   5.046 -0.2302 -0.0416  0.0905
  828PEP     CB29401  20.584  17.993   2.014 -0.0542 -0.0127 -0.1684
  828PEP     CB29402  20.412  18.398   2.100 -0.0868 -0.3035  0.0995
  828PEP     CB29403  20.393  18.818   2.408  0.4220  0.1867  0.2098
  828PEP     CB29404  20.286  18.998   2.746  0.4190  0.3700  0.1813
  828PEP     CB29405  19.990  19.273   2.920 -0.0428 -0.2631  0.0367
  828PEP     CB29406  19.988  19.713   2.986 -0.1321  0.3362  0.1182
  828PEP     CB29407  20.094  20.150   3.148  0.5210 -0.3976 -0.1754
  828PEP     CB29408  20.316  20.399   3.265 -0.0523 -0.4498  0.2741
  828PEP     CB29409  20.584  20.533   3.515 -0.1419  0.1038 -0.2065
  828PEP     CB29410  20.904  20.617   3.787  0.1255 -0.3333  0.0830
  828PEP     CB29411  20.976  20.477   4.279  0.0890 -0.3022 -0.1752
  828PEP     CB29412  20.943  20.676   4.687  0.0999  0.2777 -0.2396
  828PEP     CB29413  20.834  20.867   5.136  0.0305 -0.2942 -0.0612
  828PEP     CB29414  20.699  21.308   5.381 -0.0146  0.5315  0.3075
  828PEP     CB29415  20.585  21.703   5.273  0.0702 -0.1894 -0.2730
  828PEP     CB29416  20.383  22.088   5.251 -0.2467 -0.0449 -0.1307
  828PEP     CB29417  20.235  22.494   5.097 -0.3138 -0.0809  0.1132
  828PEP     CB29418  19.932  22.818   4.972  0.1931  0.1927 -0.0097
  828PEP     CB29419  19.766  22.908   4.521  0.1865 -0.4086  0.2207
  828PEP     CB29420  19.951  22.906   4.166 -0.1842  0.0746  0.0207
  828PEP     CB29421  20.388  22.765   3.952  0.0171 -0.3556  0.0676
  828PEP     CB29422  20.592  22.389   3.940  0.1242  0.0625 -0.2522
  828PEP     CB29423  20.577  21.896   4.155 -0.1142 -0.1201 -0.1752
  828PEP     CB29424  20.828  21.461   4.246  0.2774 -0.1957  0.1008
  828PEP     CB29425  21.361  21.450   4.264 -0.1546 -0.1418  0.0155
  828PEP     CB29426  21.837  21.512   4.357 -0.0775 -0.0765 -0.0396
  828PEP     CB29427  22.198  21.596   4.265 -0.1759  0.0772  0.1984
  828PEP     CB29428  22.254  21.815   3.940  0.0998 -0.1034 -0.1498
  828PEP     CB29429  22.399  22.210   3.792  0.3776  0.0639 -0.4992
  828PEP     CB29430  22.297  22.665   3.709  0.4850  0.5245 -0.2796
  828PEP     CB29431  22.045  23.008   3.493  0.0084 -0.0592 -0.0467
  828PEP     CB29432  21.703  23.218   3.206 -0.0308  0.4151  0.1297
  828PEP     CB29433  21.677  23.293   2.820  0.3715  0.2081 -0.1705
  828PEP     CB29434  21.702  23.397   2.493  0.2745 -0.1194  0.1233
  828PEP     CB29435  21.587  23.557   2.084 -0.1387 -0.0485  0.1479
  828PEP     CB29436  21.330  23.441   1.737  0.3808  0.0381 -0.0789
  828PEP     CB29437  21.203  23.512   1.358  0.0919  0.0104 -0.0398
  828PEP     CB29438  21.625  23.642   1.132  0.2076  0.1719 -0.5251
  828PEP     CB29439  21.913  24.018   1.180 -0.0118  0.0703 -0.0000
  828PEP     CB29440  21.957  24.506   1.267  0.1290 -0.0144 -0.0332
  829PEP     CB29441  19.449   6.252  12.460  0.2021 -0.1150  0.2256
  829PEP     CB29442  19.525   6.139  12.903  0.0206 -0.1790 -0.1646
  829PEP     CB29443  19.648   6.185  13.295  0.3505 -0.0297  0.1618
  829PEP     CB29444  19.708   5.984  13.607 -0.0822  0.0500 -0.0613
  829PEP     CB29445  19.732   5.906  14.103 -0.0228  0.2597 -0.0842
  829PEP     CB29446  19.658   5.776  14.519 -0.1092 -0.2340 -0.2639
  829PEP     CB29447  19.590   5.791  14.999 -0.1656  0.0817  0.4154
  829PEP     CB29448  19.232   5.764  15.266  0.1254  0.0803 -0.1171
  829PEP     CB29449  18.770   5.485  15.210 -0.3862  0.0103  0.0920
  829PEP     CB29450  18.452   5.217  15.259 -0.1339 -0.1477  0.2585
  829PEP     CB29451  18.111   4.993  15.381  0.1377 -0.1137 -0.1797
  829PEP     CB29452  17.736   4.982  15.210 -0.1000  0.0978 -0.0077
  829PEP     CB29453  17.359   5.273  15.094 -0.0999  0.4567 -0.1460
  829PEP     CB29454  17.370   5.614  15.347  0.0249  0.2603  0.2723
  829PEP     CB29455  17.336   6.005  15.534  0.2621 -0.3488 -0.2544
  829PEP     CB29456  17.215   6.162  15.942 -0.2652 -0.1706  0.5372
  829PEP     CB29457  16.903   6.086  16.261 -0.0211  0.1519  0.4010
  829PEP     CB29458  16.483   5.901  16.459  0.0356  0.0510  0.0031
  829PEP     CB29459  16.038   5.744  16.579 -0.2475 -0.1852  0.1192
  829PEP     CB29460  15.824   5.543  16.911  0.1384  0.4063 -0.2867
  829PEP     CB29461  15.623   5.359  17.127  0.0531  0.0994 -0.0171
  829PEP     CB29462  15.184   5.384  17.224  0.1798  0.2711 -0.4642
  829PEP     CB29463  14.676   5.377  17.417  0.1211  0.0523  0.3680
  829PEP     CB29464  14.340   5.616  17.558 -0.0456  0.1554 -0.4746
  829PEP     CB29465  14.007   5.581  17.588 -0.4393  0.2552  0.1051
  829PEP     CB29466  13.697   5.533  17.937  0.3742  0.2671  0.0743
  829PEP     CB29467  13.385   5.235  18.192  0.1411 -0.1844 -0.1559
  829PEP     CB29468  13.356   4.870  18.549 -0.0618 -0.0375 -0.3572
  829PEP     CB29469  13.546   4.517  18.784  0.0897  0.2783 -0.0446
  829PEP     CB29470  13.594   4.124  18.892 -0.1519 -0.2898 -0.1030
  829PEP     CB29471  13.461   3.751  18.929  0.4950  0.5791  0.3222
  829PEP     CB29472  13.032   3.546  18.874 -0.1063 -0.3839 -0.1072
  829PEP     CB29473  12.694   3.577  19.146  0.2183 -0.0733 -0.3091
  829PEP     CB29474  12.597   3.480  19.493  0.1755  0.0752  0.1076
  829PEP     CB29475  12.686   3.223  19.799  0.1678 -0.0337 -0.1514
  829PEP     CB29476  12.889   3.029  20.171  0.0155 -0.0433  0.0722
  829PEP     CB29477  13.062   2.701  20.394 -0.1731  0.2627 -0.2527
  829PEP     CB29478  12.809   2.250  20.510  0.0746 -0.1881 -0.0210
  829PEP     CB29479  12.857   1.873  20.372  0.3504  0.1695 -0.3836
  829PEP     CB29480  12.998   1.501  20.493  0.5803  0.1467 -0.0448
  830PEP     CB29481   9.991  19.041   5.292  0.2192  0.0638  0.6123
  830PEP     CB29482  10.268  18.668   5.239  0.3337  0.0289 -0.0190
  830PEP     CB29483  10.574  18.397   5.217  0.0416 -0.1029  0.1777
  830PEP     CB29484  11.004  18.222   5.322  0.1057  0.1598 -0.0067
  830PEP     CB29485  11.346  17.952   5.192 -0.1390 -0.1191 -0.0803
  830PEP     CB29486  11.603  17.591   5.371 -0.2765  0.3647  0.5242
  830PEP     CB29487  11.488  17.332   5.759 -0.0845 -0.0090 -0.3509
  830PEP     CB29488  11.548  16.935   5.884 -0.1066 -0.1119 -0.4039
  830PEP     CB29489  11.791  16.693   5.632 -0.4816 -0.0897 -0.1805
  830PEP     CB29490  12.135  16.839   5.472  0.1903  0.4012 -0.3296
  830PEP     CB29491  12.412  16.954   5.196  0.2338  0.6041  0.4499
  830PEP     CB29492  12.551  16.996   4.737  0.1507 -0.2111  0.1500
  830PEP     CB29493  12.904  17.096   4.465 -0.1128 -0.0158 -0.2811
  830PEP     CB29494  13.482  17.161   4.409  0.1647  0.1851  0.2322
  830PEP     CB29495  13.795  17.542   4.618  0.0399  0.0479 -0.3377
  830PEP     CB29496  13.886  17.654   5.060  0.2769  0.2016  0.0592
  830PEP     CB29497  13.558  17.729   5.364 -0.0242 -0.2034  0.0407
  830PEP     CB29498  13.407  17.422   5.696  0.2236 -0.2830  0.4086
  830PEP     CB29499  13.122  17.210   6.017  0.2214 -0.4357  0.1915
  830PEP     CB29500  12.839  17.198   6.360 -0.1941 -0.1823  0.3506
  830PEP     CB29501  12.613  16.823   6.377  0.2222 -0.0777  0.1467
  830PEP     CB29502  12.404  16.454   6.377  0.2671 -0.1756  0.2623
  830PEP     CB29503  12.026  16.125   6.513 -0.0593  0.2687  0.3093
  830PEP     CB29504  11.890  15.683   6.750 -0.1146  0.1776 -0.3591
  830PEP     CB29505  11.465  15.596   7.011  0.3219  0.3975 -0.2349
  830PEP     CB29506  11.223  15.539   7.336  0.1152 -0.3577  0.3694
  830PEP     CB29507  10.903  15.241   7.621  0.1205 -0.0859 -0.3419
  830PEP     CB29508  10.975  15.025   7.979  0.0689  0.2753  0.1407
  830PEP     CB29509  11.087  15.255   8.382  0.2691 -0.2098 -0.0835
  830PEP     CB29510  11.261  15.332   8.796  0.2766 -0.1505 -0.1898
  830PEP     CB29511  11.083  15.230   9.156 -0.1654  0.4789  0.1365
  830PEP     CB29512  10.693  15.269   9.193 -0.1106  0.1731  0.0816
  830PEP     CB29513  10.603  15.542   8.835  0.1619 -0.0945  0.0135
  830PEP     CB29514  10.828  15.822   8.638  0.0929 -0.3494 -0.3540
  830PEP     CB29515  11.232  15.765   8.508  0.1307  0.0389 -0.1287
  830PEP     CB29516  11.663  15.601   8.603 -0.3982  0.0302 -0.0694
  830PEP     CB29517  12.093  15.658   8.627  0.0945  0.0498  0.4154
  830PEP     CB29518  12.384  15.741   8.303 -0.4611 -0.2146  0.5231
  830PEP     CB29519  12.753  15.805   7.974  0.2741  0.0869 -0.0465
  830PEP     CB29520  13.040  15.925   7.723  0.0215 -0.1453 -0.0756
  831PEP     CB29521  18.120   9.984   9.868 -0.0634 -0.5436  0.2432
  831PEP     CB29522  18.055  10.167  10.295  0.0890  0.1067 -0.2255
  831PEP     CB29523  18.073  10.441  10.543  0.4688 -0.1589 -0.1989
  831PEP     CB29524  18.023  10.475  10.983  0.1100 -0.3161  0.0101
  831PEP     CB29525  17.992  10.578  11.379  0.2599  0.2448 -0.2488
  831PEP     CB29526  17.736  10.599  11.847 -0.4280  0.3055 -0.1121
  831PEP     CB29527  17.348  10.764  11.943  0.1272 -0.2216  0.1431
  831PEP     CB29528  17.324  11.196  11.817  0.2135  0.2154 -0.0326
  831PEP     CB29529  17.413  11.412  11.450  0.1508  0.3952  0.2145
  831PEP     CB29530  17.579  11.824  11.350 -0.3759  0.0891 -0.2094
  831PEP     CB29531  17.910  11.967  11.542 -0.0346  0.2621  0.0391
  831PEP     CB29532  18.227  11.703  11.704 -0.1728  0.3022 -0.4528
  831PEP     CB29533  18.242  11.317  11.545 -0.0871  0.0149 -0.0322
  831PEP     CB29534  18.071  11.061  11.200  0.1688  0.2342 -0.2397
  831PEP     CB29535  17.730  11.178  11.025  0.2668 -0.2360 -0.2159
  831PEP     CB29536  17.663  11.601  10.855 -0.2788 -0.3254 -0.1650
  831PEP     CB29537  17.965  11.830  10.657 -0.0927 -0.3000  0.1163
  831PEP     CB29538  18.336  12.070  10.678 -0.2201  0.3792 -0.0903
  831PEP     CB29539  18.801  12.227  10.728 -0.1888 -0.1713  0.2969
  831PEP     CB29540  19.155  12.237  10.497 -0.4323  0.0644 -0.2566
  831PEP     CB29541  19.141  12.396  10.071  0.1473 -0.0746  0.3998
  831PEP     CB29542  19.173  12.787   9.715  0.1624  0.2958 -0.0755
  831PEP     CB29543  19.349  13.152   9.511  0.0711 -0.1280  0.0267
  831PEP     CB29544  19.120  13.505   9.298 -0.0866 -0.3134  0.0190
  831PEP     CB29545  19.035  13.909   9.129  0.3085 -0.3739  0.0522
  831PEP     CB29546  18.900  14.101   8.787 -0.1234 -0.2935 -0.1583
  831PEP     CB29547  18.866  13.911   8.322 -0.2135 -0.0793 -0.0891
  831PEP     CB29548  19.033  13.754   7.980  0.2580  0.3224 -0.0097
  831PEP     CB29549  19.250  13.773   7.622 -0.4378  0.1532 -0.2789
  831PEP     CB29550  19.372  13.726   7.150  0.2970  0.1682  0.3872
  831PEP     CB29551  19.512  13.422   6.769  0.0510  0.0938 -0.0312
  831PEP     CB29552  19.591  13.231   6.264 -0.0287 -0.3554  0.1954
  831PEP     CB29553  19.448  13.313   5.918 -0.1721 -0.0511  0.5043
  831PEP     CB29554  19.197  13.532   5.607  0.2705 -0.2585  0.0301
  831PEP     CB29555  19.017  13.719   5.336 -0.0320  0.1021  0.0448
  831PEP     CB29556  18.631  13.751   5.164  0.4868  0.2697 -0.1232
  831PEP     CB29557  18.237  13.820   5.439 -0.2695  0.3480  0.2229
  831PEP     CB29558  17.849  13.755   5.729 -0.0321 -0.2678 -0.2977
  831PEP     CB29559  17.534  13.844   6.057 -0.3700 -0.3520 -0.2117
  831PEP     CB29560  17.194  14.110   6.086 -0.1040  0.0674 -0.0039
  832PEP     CB29561  18.050  17.054   1.103 -0.0073 -0.3983  0.0172
  832PEP     CB29562  18.153  17.364   1.477  0.2272  0.3818  0.2244
  832PEP     CB29563  18.208  17.832   1.533  0.2994  0.2928  0.0992
  832PEP     CB29564  18.447  18.161   1.344 -0.0357 -0.0827 -0.2152
  832PEP     CB29565  18.285  18.506   0.976 -0.3334 -0.0355 -0.0390
  832PEP     CB29566  17.975  18.403   0.645  0.0703  0.1241 -0.0428
  832PEP     CB29567  17.890  18.028   0.434 -0.3216  0.0823 -0.1216
  832PEP     CB29568  18.130  17.713   0.222  0.0034 -0.4950  0.2269
  832PEP     CB29569  18.246  17.550  -0.137 -0.0852  0.1817  0.0095
  832PEP     CB29570  18.159  17.555  -0.618 -0.3938  0.0904  0.0953
  832PEP     CB29571  17.749  17.468  -0.866  0.3986 -0.1678 -0.0495
  832PEP     CB29572  17.455  17.625  -0.969  0.1217  0.0868 -0.1572
  832PEP     CB29573  17.221  18.004  -1.046 -0.4047  0.2283  0.1727
  832PEP     CB29574  17.062  18.382  -0.964 -0.1967  0.2904 -0.0015
  832PEP     CB29575  17.130  18.701  -1.289 -0.3317  0.0987  0.0776
  832PEP     CB29576  17.522  18.891  -1.175 -0.0016  0.1209 -0.0249
  832PEP     CB29577  17.427  19.117  -0.785 -0.1522  0.0538 -0.4289
  832PEP     CB29578  17.060  19.261  -0.554  0.2967 -0.0366 -0.0412
  832PEP     CB29579  16.975  19.556  -0.195 -0.3201  0.2091 -0.2122
  832PEP     CB29580  16.578  19.572   0.042 -0.0592  0.1148  0.2489
  832PEP     CB29581  16.302  19.438   0.297  0.2022  0.3271 -0.1848
  832PEP     CB29582  16.175  19.548   0.681 -0.4846  0.2776 -0.2311
  832PEP     CB29583  16.386  19.633   1.051 -0.0017 -0.1944 -0.1412
  832PEP     CB29584  16.704  19.855   1.272 -0.1317 -0.5495  0.2607
  832PEP     CB29585  16.982  19.787   1.628 -0.0942  0.0773  0.1846
  832PEP     CB29586  17.301  19.692   1.969  0.3936 -0.3737  0.3359
  832PEP     CB29587  17.369  19.556   2.350  0.1635 -0.0460  0.4411
  832PEP     CB29588  17.585  19.664   2.740  0.4029  0.0899  0.2288
  832PEP     CB29589  17.866  19.613   3.078  0.1166 -0.1326  0.0309
  832PEP     CB29590  18.119  19.243   3.250  0.0640 -0.1066 -0.0711
  832PEP     CB29591  18.280  18.912   3.489 -0.3402 -0.3978  0.3216
  832PEP     CB29592  18.130  18.540   3.622 -0.5041  0.2902  0.1756
  832PEP     CB29593  18.245  18.179   3.374  0.0989 -0.1073  0.0995
  832PEP     CB29594  18.616  18.010   3.187  0.0704 -0.0351  0.0942
  832PEP     CB29595  18.974  17.975   3.420 -0.0858 -0.3260 -0.1445
  832PEP     CB29596  18.930  17.807   3.856  0.2176 -0.2844 -0.0787
  832PEP     CB29597  18.637  18.072   4.099  0.2422  0.1589  0.3035
  832PEP     CB29598  18.355  18.159   4.073  0.0335 -0.0453  0.0208
  832PEP     CB29599  18.008  18.283   3.993  0.2851  0.2774  0.0563
  832PEP     CB29600  17.595  18.464   4.139  0.0985 -0.4628  0.1655
  833PEP     CB29601  12.876  20.096  21.960  0.0553 -0.1002  0.4701
  833PEP     CB29602  13.149  19.780  21.958  0.0011 -0.0060 -0.0936
  833PEP     CB29603  13.327  19.597  21.501  0.3353  0.1416  0.3291
  833PEP     CB29604  13.358  19.813  21.149  0.0853 -0.0963 -0.1393
  833PEP     CB29605  13.098  19.832  20.893  0.4099  0.0844  0.3638
  833PEP     CB29606  12.816  19.553  20.613  0.2688 -0.3878  0.0841
  833PEP     CB29607  12.356  19.299  20.707 -0.0437 -0.1285  0.2909
  833PEP     CB29608  11.926  19.592  20.672 -0.5581 -0.2433 -0.3575
  833PEP     CB29609  11.675  19.900  20.853 -0.4313 -0.0935 -0.4242
  833PEP     CB29610  11.570  20.269  21.083 -0.0206 -0.0234  0.1127
  833PEP     CB29611  11.717  20.703  21.277  0.0865  0.1030  0.1770
  833PEP     CB29612  11.860  21.068  21.484 -0.3474 -0.0496 -0.1204
  833PEP     CB29613  11.879  21.471  21.348 -0.3218  0.2113 -0.3788
  833PEP     CB29614  11.711  21.665  20.947 -0.0612  0.2291 -0.3470
  833PEP     CB29615  11.584  21.487  20.629 -0.0685 -0.0297  0.0485
  833PEP     CB29616  11.108  21.456  20.383 -0.4104 -0.1806  0.1442
  833PEP     CB29617  10.905  21.532  19.937 -0.0916  0.3783 -0.0689
  833PEP     CB29618  10.525  21.551  19.743  0.5129  0.4262 -0.0373
  833PEP     CB29619  10.334  21.992  19.530  0.0075  0.4373  0.3523
  833PEP     CB29620  10.457  22.484  19.562  0.0159 -0.0789  0.3565
  833PEP     CB29621  10.709  22.632  19.237  0.1751 -0.4572 -0.1307
  833PEP     CB29622  10.651  22.515  18.777 -0.1481 -0.0195  0.0392
  833PEP     CB29623  10.388  22.673  18.440 -0.1803  0.0037  0.3085
  833PEP     CB29624   9.943  22.882  18.523 -0.0902 -0.0951  0.4286
  833PEP     CB29625   9.714  23.033  18.899  0.1570  0.0212  0.0460
  833PEP     CB29626   9.621  22.706  19.242 -0.0072 -0.1403  0.0263
  833PEP     CB29627   9.927  22.419  19.296  0.2725 -0.1115 -0.0710
  833PEP     CB29628  10.286  22.239  19.090 -0.0368 -0.1304  0.0685
  833PEP     CB29629  10.603  21.879  19.178 -0.1420  0.0853  0.2461
  833PEP     CB29630  10.906  21.545  19.390  0.1399 -0.0773 -0.1453
  833PEP     CB29631  11.137  21.174  19.440 -0.1286 -0.0650  0.0473
  833PEP     CB29632  11.612  21.100  19.308 -0.1145  0.0058 -0.3533
  833PEP     CB29633  12.048  21.045  19.468 -0.5244  0.2749  0.1326
  833PEP     CB29634  12.467  21.147  19.710 -0.5016 -0.2717 -0.0177
  833PEP     CB29635  12.751  21.563  19.659 -0.1852 -0.0280 -0.0225
  833PEP     CB29636  12.750  21.976  19.666  0.0396 -0.3089 -0.3426
  833PEP     CB29637  12.726  22.390  20.006  0.6366  0.3029  0.3994
  833PEP     CB29638  12.407  22.534  20.246 -0.0466 -0.0065  0.1236
  833PEP     CB29639  12.209  22.957  20.258 -0.2486 -0.2174  0.1431
  833PEP     CB29640  11.856  23.190  20.222 -0.0858 -0.0006 -0.1154
  834PEP     CB29641  17.669  18.897   4.445 -0.0551  0.3005  0.0632
  834PEP     CB29642  17.318  18.649   4.532 -0.1684  0.1340  0.2091
  834PEP     CB29643  16.902  18.584   4.541 -0.0263 -0.2082 -0.0906
  834PEP     CB29644  16.550  18.277   4.525 -0.1836 -0.2350 -0.0761
  834PEP     CB29645  16.329  17.945   4.440  0.1282  0.0258  0.0896
  834PEP     CB29646  15.958  17.797   4.498  0.1036 -0.0883 -0.1534
  834PEP     CB29647  15.708  17.961   4.793 -0.2579 -0.1243 -0.0204
  834PEP     CB29648  15.797  17.974   5.224 -0.1050  0.0315  0.1301
  834PEP     CB29649  15.969  18.251   5.492 -0.0235 -0.2630  0.1636
  834PEP     CB29650  16.103  18.616   5.337 -0.0620  0.2237 -0.2471
  834PEP     CB29651  15.937  18.796   4.929  0.0182  0.0314 -0.1428
  834PEP     CB29652  15.487  18.617   4.708 -0.2172 -0.1350  0.1841
  834PEP     CB29653  15.094  18.571   4.928  0.0657  0.0395 -0.1942
  834PEP     CB29654  14.987  18.833   5.384  0.3381  0.1632 -0.2283
  834PEP     CB29655  15.167  19.220   5.475 -0.2658  0.3232 -0.1015
  834PEP     CB29656  15.513  19.412   5.377 -0.0538  0.1694 -0.0475
  834PEP     CB29657  15.807  19.753   5.389  0.3237 -0.0358  0.2150
  834PEP     CB29658  15.751  20.147   5.185 -0.0143 -0.1289  0.4486
  834PEP     CB29659  15.501  20.470   5.109  0.3503  0.3223  0.4460
  834PEP     CB29660  15.451  20.785   4.772 -0.1993  0.4697 -0.2390
  834PEP     CB29661  15.822  21.013   4.444 -0.0601  0.3609  0.4328
  834PEP     CB29662  16.068  21.330   4.183 -0.3410  0.0356 -0.1522
  834PEP     CB29663  16.326  21.723   3.955 -0.2326 -0.0203 -0.0408
  834PEP     CB29664  16.416  21.956   3.536 -0.0724 -0.1887 -0.0784
  834PEP     CB29665  16.247  22.291   3.417  0.4207 -0.0796  0.2522
  834PEP     CB29666  16.090  22.512   3.768  0.1287  0.0144  0.1583
  834PEP     CB29667  15.778  22.418   4.051 -0.1220 -0.0680  0.0191
  834PEP     CB29668  15.447  22.338   4.220  0.1838  0.0617  0.3153
  834PEP     CB29669  15.103  22.417   4.322  0.0593  0.1303 -0.2857
  834PEP     CB29670  14.815  22.597   4.820 -0.0513 -0.0339  0.3190
  834PEP     CB29671  14.397  22.849   4.917  0.0891  0.1120 -0.0297
  834PEP     CB29672  14.154  23.259   4.746 -0.2028  0.0237 -0.5362
  834PEP     CB29673  14.145  23.651   4.379 -0.2928  0.1826 -0.2245
  834PEP     CB29674  14.049  23.789   3.971 -0.3764  0.0144  0.0758
  834PEP     CB29675  13.802  23.834   3.521 -0.0906  0.0850 -0.4288
  834PEP     CB29676  13.786  24.130   3.167 -0.1751  0.1650 -0.2618
  834PEP     CB29677  13.890  24.518   3.265  0.2946  0.3977 -0.1016
  834PEP     CB29678  13.861  24.640   3.773  0.1843  0.1167  0.1415
  834PEP     CB29679  13.570  24.612   4.116  0.1136  0.1175 -0.1521
  834PEP     CB29680  13.172  24.378   4.093 -0.0551 -0.0531  0.0629
  835PEP     CB29681   0.992  21.390   6.293  0.0319 -0.1246  0.0225
  835PEP     CB29682   1.033  21.271   5.821  0.0115  0.3748  0.0115
  835PEP     CB29683   1.284  21.223   5.455 -0.2265 -0.1672  0.2416
  835PEP     CB29684   1.469  20.936   5.235 -0.2297 -0.2420 -0.2502
  835PEP     CB29685   1.330  20.490   5.220 -0.1961  0.1069  0.1549
  835PEP     CB29686   1.003  20.255   5.432 -0.3597 -0.1810 -0.2066
  835PEP     CB29687   0.827  20.203   5.775 -0.0604 -0.1657 -0.1209
  835PEP     CB29688   0.587  20.058   6.072  0.3269  0.0288 -0.1498
  835PEP     CB29689   0.199  19.922   6.068  0.1220  0.0055  0.2059
  835PEP     CB29690  -0.036  19.900   5.642 -0.0057 -0.7405 -0.0334
  835PEP     CB29691  -0.086  19.798   5.123 -0.2353  0.4987  0.0977
  835PEP     CB29692  -0.492  19.924   4.868 -0.3521  0.3054 -0.1874
  835PEP     CB29693  -0.760  20.400   4.913 -0.1500  0.0534  0.2005
  835PEP     CB29694  -0.675  20.745   5.121 -0.0777  0.2627  0.4529
  835PEP     CB29695  -0.788  21.065   5.430 -0.1555  0.3522 -0.4278
  835PEP     CB29696  -0.607  21.245   5.814  0.2831  0.2247 -0.0689
  835PEP     CB29697  -0.261  21.507   6.035  0.0017 -0.0933 -0.2618
  835PEP     CB29698  -0.035  21.733   6.304 -0.0251  0.0057  0.1008
  835PEP     CB29699   0.300  21.937   6.647  0.0797 -0.2391  0.0064
  835PEP     CB29700   0.605  22.085   6.915 -0.0761 -0.3312  0.2572
  835PEP     CB29701   1.024  22.320   7.129  0.0609 -0.2897  0.2453
  835PEP     CB29702   1.438  22.137   7.137  0.4406  0.1944  0.1865
  835PEP     CB29703   1.843  22.036   6.959 -0.0952  0.0884 -0.0100
  835PEP     CB29704   2.194  21.881   6.781  0.0471  0.2010 -0.0258
  835PEP     CB29705   2.506  21.688   6.484  0.2418  0.0001 -0.2530
  835PEP     CB29706   2.717  21.828   6.145  0.0915  0.3205  0.1877
  835PEP     CB29707   2.872  22.008   5.766 -0.4026 -0.2599 -0.2833
  835PEP     CB29708   3.253  22.153   5.648 -0.0005 -0.1089  0.1653
  835PEP     CB29709   3.591  22.142   5.900 -0.0041 -0.1799  0.1682
  835PEP     CB29710   3.746  21.900   6.168 -0.2901 -0.0709  0.0275
  835PEP     CB29711   3.958  21.533   6.051 -0.1736 -0.3192 -0.2619
  835PEP     CB29712   4.123  21.463   5.684 -0.1797  0.0035  0.1904
  835PEP     CB29713   4.406  21.736   5.498 -0.3192 -0.0247  0.3508
  835PEP     CB29714   4.781  21.884   5.273 -0.4659  0.4494  0.1512
  835PEP     CB29715   4.878  21.996   4.768 -0.4536 -0.0200  0.1576
  835PEP     CB29716   4.816  22.097   4.304  0.2419 -0.1924 -0.0180
  835PEP     CB29717   4.821  22.339   3.926  0.1007 -0.1280 -0.1745
  835PEP     CB29718   4.796  22.168   3.553 -0.0980 -0.0152  0.1699
  835PEP     CB29719   4.527  21.738   3.321  0.2711 -0.2148 -0.2934
  835PEP     CB29720   4.410  21.532   3.102 -0.0039 -0.0303  0.0166
  836PEP     CB29721   9.176   0.297   3.299  0.2668  0.4168 -0.4371
  836PEP     CB29722   9.113  -0.223   3.282 -0.0920 -0.3350  0.1360
  836PEP     CB29723   8.965  -0.552   3.028  0.0405  0.2639 -0.3457
  836PEP     CB29724   8.511  -0.605   2.789  0.3580 -0.0487  0.1025
  836PEP     CB29725   8.017  -0.652   2.690  0.4481 -0.1014  0.3711
  836PEP     CB29726   7.704  -0.863   2.634 -0.1097  0.2418  0.1677
  836PEP     CB29727   7.380  -1.239   2.590 -0.2187  0.0663  0.2573
  836PEP     CB29728   7.347  -1.526   2.337  0.4755 -0.0566  0.0858
  836PEP     CB29729   7.527  -1.507   1.895 -0.1035  0.2737 -0.0816
  836PEP     CB29730   7.425  -1.400   1.533  0.1600  0.2192  0.1311
  836PEP     CB29731   7.234  -1.192   1.220  0.0158  0.0091 -0.1243
  836PEP     CB29732   7.209  -0.787   1.119 -0.0308  0.3113  0.3368
  836PEP     CB29733   6.913  -0.521   1.110  0.1327  0.0423  0.1988
  836PEP     CB29734   6.555  -0.359   1.391 -0.2653  0.0736  0.3328
  836PEP     CB29735   6.468  -0.472   1.780  0.2702 -0.1789 -0.0663
  836PEP     CB29736   6.419  -0.515   2.145  0.5442 -0.2888  0.0692
  836PEP     CB29737   6.221  -0.717   2.449  0.0089  0.1882  0.0818
  836PEP     CB29738   6.246  -0.928   2.795 -0.2025  0.0147  0.4023
  836PEP     CB29739   6.264  -0.749   3.241  0.3680 -0.1952  0.0097
  836PEP     CB29740   5.966  -0.506   3.422  0.1631 -0.0873  0.5695
  836PEP     CB29741   5.591  -0.377   3.198  0.0920 -0.0327  0.0329
  836PEP     CB29742   5.311  -0.654   3.044  0.2212 -0.1748 -0.2065
  836PEP     CB29743   5.203  -1.025   3.296  0.0318 -0.1042  0.3700
  836PEP     CB29744   5.072  -1.320   3.590  0.3382 -0.1792 -0.0409
  836PEP     CB29745   5.325  -1.448   3.870  0.2724 -0.0774 -0.0707
  836PEP     CB29746   5.664  -1.143   3.888 -0.0463 -0.1833 -0.1554
  836PEP     CB29747   5.504  -0.732   3.678 -0.2717  0.2438  0.0964
  836PEP     CB29748   5.130  -0.596   3.526 -0.0419 -0.3745  0.2928
  836PEP     CB29749   4.798  -0.872   3.549 -0.0283 -0.0416 -0.1895
  836PEP     CB29750   4.397  -0.968   3.265 -0.3120  0.2662  0.0153
  836PEP     CB29751   4.087  -1.256   3.025  0.1027  0.1274  0.2400
  836PEP     CB29752   3.746  -1.345   2.746 -0.0096  0.0090  0.0314
  836PEP     CB29753   3.370  -1.588   2.664  0.0459  0.0722  0.4035
  836PEP     CB29754   3.480  -1.913   2.705  0.2839  0.3590 -0.1100
  836PEP     CB29755   3.694  -2.201   2.416  0.1640 -0.3987  0.2997
  836PEP     CB29756   4.062  -2.116   2.194  0.1492  0.1937  0.0518
  836PEP     CB29757   4.340  -1.843   2.432  0.2863 -0.1830  0.0655
  836PEP     CB29758   4.383  -1.490   2.747  0.0419 -0.0229 -0.1926
  836PEP     CB29759   4.584  -1.115   2.792  0.3735 -0.2986 -0.2593
  836PEP     CB29760   4.792  -0.875   2.971  0.0233  0.0111  0.1013
  837PEP     CB29761   1.661  21.577   0.116 -0.0669  0.4243 -0.1158
  837PEP     CB29762   1.662  21.086   0.280  0.2967 -0.1942 -0.0740
  837PEP     CB29763   1.632  20.604   0.142  0.0635  0.5443  0.1108
  837PEP     CB29764   1.538  20.385  -0.252  0.1294 -0.4172 -0.3346
  837PEP     CB29765   1.739  20.421  -0.617 -0.2692  0.0438 -0.0632
  837PEP     CB29766   1.975  20.241  -0.866 -0.3988 -0.2118  0.0059
  837PEP     CB29767   2.298  20.224  -1.175  0.1960  0.1666 -0.2280
  837PEP     CB29768   2.762  20.001  -1.124  0.0260 -0.0615 -0.1495
  837PEP     CB29769   3.019  19.811  -0.788 -0.0659 -0.1415 -0.0785
  837PEP     CB29770   3.031  19.528  -0.522 -0.1669  0.1695  0.0243
  837PEP     CB29771   2.774  19.293  -0.193 -0.1038  0.2526  0.2458
  837PEP     CB29772   2.612  18.938   0.164 -0.2841  0.1037 -0.3375
  837PEP     CB29773   2.420  18.759   0.511  0.1585  0.1157  0.1597
  837PEP     CB29774   2.374  19.026   0.927  0.1962 -0.0530  0.0410
  837PEP     CB29775   2.669  19.244   1.253  0.5379  0.1910 -0.0253
  837PEP     CB29776   2.969  19.558   1.387 -0.0786 -0.5205  0.2836
  837PEP     CB29777   3.385  19.755   1.299  0.4454  0.1287  0.0270
  837PEP     CB29778   3.822  19.775   1.295  0.0355 -0.5444  0.0247
  837PEP     CB29779   4.211  19.522   1.366  0.0095  0.6132 -0.3396
  837PEP     CB29780   4.571  19.375   1.151  0.1919  0.0769  0.0639
  837PEP     CB29781   4.577  19.315   0.676 -0.0338  0.4669 -0.0526
  837PEP     CB29782   4.837  19.400   0.303  0.0643  0.0517 -0.1009
  837PEP     CB29783   4.849  19.578  -0.038  0.1734 -0.0523  0.1342
  837PEP     CB29784   4.646  20.013  -0.196 -0.0681  0.3412 -0.4105
  837PEP     CB29785   4.459  20.192  -0.573  0.0152  0.0259  0.2604
  837PEP     CB29786   4.037  20.472  -0.670 -0.1049 -0.4386  0.1773
  837PEP     CB29787   3.776  20.906  -0.444  0.1655 -0.3189 -0.0547
  837PEP     CB29788   3.788  21.286  -0.218  0.1456 -0.2936 -0.1487
  837PEP     CB29789   3.617  21.482   0.140 -0.2126  0.4011  0.3397
  837PEP     CB29790   3.321  21.732   0.386  0.1257  0.1348 -0.0002
  837PEP     CB29791   3.313  22.149   0.432  0.0565  0.1168  0.3644
  837PEP     CB29792   3.544  22.457   0.578  0.2599 -0.2408 -0.2521
  837PEP     CB29793   3.675  22.886   0.528 -0.2675 -0.1149 -0.2225
  837PEP     CB29794   4.035  23.134   0.377  0.6166  0.0105  0.2027
  837PEP     CB29795   4.385  23.094   0.094  0.2567  0.1051 -0.0790
  837PEP     CB29796   4.534  22.866  -0.056 -0.2965  0.2733  0.0413
  837PEP     CB29797   4.702  22.477   0.151 -0.2808 -0.2112 -0.1307
  837PEP     CB29798   4.676  22.429   0.637 -0.0317  0.3071  0.1133
  837PEP     CB29799   4.669  22.683   0.946 -0.0185  0.0278  0.0701
  837PEP     CB29800   4.360  22.978   1.203  0.1192  0.0067  0.2175
  838PEP     CB29801   2.467   7.795   2.681 -0.0054 -0.0668  0.0114
  838PEP     CB29802   2.305   8.153   2.940  0.1513 -0.3359 -0.0977
  838PEP     CB29803   2.343   8.156   3.407 -0.4349 -0.0571  0.1261
  838PEP     CB29804   2.190   7.986   3.859 -0.1852 -0.1323  0.0594
  838PEP     CB29805   2.149   8.096   4.234 -0.0425  0.1283 -0.0158
  838PEP     CB29806   1.850   7.965   4.525 -0.3195  0.5784  0.0821
  838PEP     CB29807   1.444   7.838   4.591  0.0629 -0.1126 -0.2046
  838PEP     CB29808   1.080   7.715   4.196  0.1608 -0.0443  0.2134
  838PEP     CB29809   0.823   7.445   3.982 -0.0979  0.1947 -0.4129
  838PEP     CB29810   0.388   7.206   3.928 -0.0194 -0.4111 -0.1268
  838PEP     CB29811   0.167   6.942   3.600  0.3497  0.2544 -0.0860
  838PEP     CB29812   0.121   7.122   3.198 -0.1796 -0.0951  0.1707
  838PEP     CB29813   0.319   7.161   2.744 -0.3588 -0.0074 -0.1400
  838PEP     CB29814   0.710   7.032   2.623  0.2298 -0.3881 -0.1336
  838PEP     CB29815   0.914   6.791   2.600 -0.1209  0.5246  0.0616
  838PEP     CB29816   0.950   6.409   2.642 -0.2090  0.1498  0.4382
  838PEP     CB29817   1.212   6.160   2.873  0.0225  0.0271  0.0528
  838PEP     CB29818   1.365   6.100   3.299  0.2328 -0.2335  0.2204
  838PEP     CB29819   1.268   6.256   3.758  0.1549  0.0638 -0.1723
  838PEP     CB29820   1.070   6.558   4.015  0.0310  0.0371  0.3983
  838PEP     CB29821   0.715   6.813   4.095  0.2096  0.2522 -0.0086
  838PEP     CB29822   0.221   6.833   4.243  0.2577  0.0937 -0.0208
  838PEP     CB29823  -0.211   6.946   4.145  0.0287  0.2823  0.1451
  838PEP     CB29824  -0.549   7.214   3.931  0.1258  0.1252 -0.1634
  838PEP     CB29825  -0.870   7.410   3.951 -0.1281 -0.1960 -0.1944
  838PEP     CB29826  -1.120   7.601   3.693  0.0496 -0.1116  0.5772
  838PEP     CB29827  -1.018   7.895   3.307 -0.0506  0.1595 -0.1909
  838PEP     CB29828  -0.749   7.734   3.037 -0.5645 -0.0729  0.2319
  838PEP     CB29829  -0.549   7.398   2.894  0.5970  0.1025 -0.0569
  838PEP     CB29830  -0.256   7.003   2.778  0.2698  0.2691  0.0666
  838PEP     CB29831  -0.010   6.611   2.722 -0.0163 -0.0548  0.1881
  838PEP     CB29832   0.248   6.212   2.871 -0.2178  0.0690 -0.1460
  838PEP     CB29833   0.329   5.861   3.171 -0.2757 -0.4837  0.0221
  838PEP     CB29834   0.327   5.471   3.439  0.0051  0.3081 -0.1427
  838PEP     CB29835   0.738   5.243   3.495  0.2526 -0.1248 -0.1275
  838PEP     CB29836   1.207   5.277   3.230 -0.1885  0.2195 -0.1724
  838PEP     CB29837   1.111   5.608   2.791 -0.0752 -0.3602  0.1893
  838PEP     CB29838   0.717   5.597   2.468 -0.1764 -0.3603  0.1840
  838PEP     CB29839   0.356   5.666   2.540  0.2052  0.1169  0.0053
  838PEP     CB29840   0.031   5.882   2.658  0.1120  0.1543 -0.2892
  839PEP     CB29841   2.792   0.855   5.880  0.5363 -0.3036 -0.3633
  839PEP     CB29842   2.869   0.461   6.024 -0.1545  0.1797  0.0125
  839PEP     CB29843   3.106   0.057   6.186  0.1909  0.2182 -0.1098
  839PEP     CB29844   3.238  -0.396   6.248 -0.0799  0.3174  0.1842
  839PEP     CB29845   3.488  -0.648   6.037 -0.1381  0.1467 -0.3610
  839PEP     CB29846   3.854  -0.988   6.168  0.4174  0.1695  0.2367
  839PEP     CB29847   4.125  -0.992   6.514 -0.1654 -0.0660 -0.3282
  839PEP     CB29848   4.431  -0.713   6.535  0.1549 -0.0313  0.2364
  839PEP     CB29849   4.705  -0.411   6.456  0.0018 -0.1164 -0.0100
  839PEP     CB29850   4.954  -0.183   6.619  0.5577  0.0712  0.2858
  839PEP     CB29851   5.276  -0.204   6.870  0.3107  0.0384  0.0104
  839PEP     CB29852   5.511  -0.392   7.215 -0.1754 -0.3507  0.2975
  839PEP     CB29853   5.756  -0.698   7.401  0.0033  0.0653 -0.1338
  839PEP     CB29854   5.926  -1.101   7.578  0.0170 -0.0422 -0.3809
  839PEP     CB29855   6.376  -1.358   7.636  0.3151  0.4245  0.0730
  839PEP     CB29856   6.842  -1.414   7.845 -0.0826  0.0462  0.2589
  839PEP     CB29857   7.159  -1.321   8.174 -0.0142 -0.3628 -0.3917
  839PEP     CB29858   7.244  -1.424   8.646 -0.2986  0.2223 -0.6907
  839PEP     CB29859   7.410  -1.201   9.017  0.3209 -0.0724  0.0837
  839PEP     CB29860   7.205  -1.054   9.465 -0.0377 -0.2646 -0.1108
  839PEP     CB29861   7.024  -0.640   9.517  0.2312 -0.1926 -0.3247
  839PEP     CB29862   6.927  -0.162   9.375 -0.1604 -0.1104  0.0193
  839PEP     CB29863   6.737   0.339   9.363 -0.4950  0.0587  0.5425
  839PEP     CB29864   6.610   0.755   9.275 -0.1674 -0.5948  0.0299
  839PEP     CB29865   6.539   1.111   8.945  0.0426 -0.1251 -0.0313
  839PEP     CB29866   6.754   1.242   8.498 -0.1833 -0.1723  0.1123
  839PEP     CB29867   7.129   1.259   8.381 -0.0207 -0.0799  0.2152
  839PEP     CB29868   7.477   1.152   8.092 -0.2373 -0.1171 -0.0559
  839PEP     CB29869   7.821   1.010   8.126 -0.0369 -0.0220  0.2297
  839PEP     CB29870   7.921   0.754   8.408 -0.2092 -0.2710 -0.1308
  839PEP     CB29871   8.036   0.469   8.699  0.4326 -0.0219  0.2002
  839PEP     CB29872   8.253   0.136   8.564 -0.0068 -0.1717 -0.0663
  839PEP     CB29873   8.068   0.009   8.186  0.5691  0.0611 -0.1077
  839PEP     CB29874   7.852   0.306   7.898  0.2361  0.1291  0.2609
  839PEP     CB29875   7.694   0.648   7.583 -0.1740 -0.3113  0.6273
  839PEP     CB29876   7.342   0.793   7.399 -0.3052  0.2458 -0.0485
  839PEP     CB29877   7.098   0.823   6.957  0.0769  0.1524 -0.0114
  839PEP     CB29878   7.126   0.772   6.570 -0.3918  0.2683  0.0914
  839PEP     CB29879   6.876   0.834   6.240 -0.1676 -0.1610  0.0676
  839PEP     CB29880   6.907   0.986   5.798 -0.0094 -0.1199 -0.0347
  840PEP     CB29881  20.616   7.873   6.127 -0.0024 -0.3090 -0.3186
  840PEP     CB29882  20.305   8.020   5.977 -0.0431  0.2144 -0.0076
  840PEP     CB29883  19.869   8.162   6.030  0.0421 -0.3297  0.3634
  840PEP     CB29884  19.408   8.016   6.177 -0.3298  0.1108  0.1818
  840PEP     CB29885  18.986   8.142   6.065 -0.3247  0.0586 -0.0635
  840PEP     CB29886  18.688   8.440   5.940 -0.2184 -0.0607 -0.0363
  840PEP     CB29887  18.449   8.575   5.610  0.3211  0.2133  0.0419
  840PEP     CB29888  18.114   8.625   5.315  0.2834 -0.1058 -0.3705
  840PEP     CB29889  17.840   8.931   5.166 -0.3528  0.0445  0.2541
  840PEP     CB29890  17.719   9.193   4.975 -0.3039  0.3719  0.0736
  840PEP     CB29891  17.674   9.209   4.551 -0.0015 -0.0276 -0.6426
  840PEP     CB29892  17.476   9.034   4.224 -0.0699  0.1834 -0.0747
  840PEP     CB29893  17.312   8.774   3.913 -0.2118 -0.0833 -0.2164
  840PEP     CB29894  17.015   8.615   3.684  0.3748 -0.2134 -0.1380
  840PEP     CB29895  16.601   8.497   3.583 -0.3021 -0.1307  0.2046
  840PEP     CB29896  16.424   8.524   3.303  0.1736 -0.0986  0.1458
  840PEP     CB29897  16.132   8.346   2.953 -0.3811 -0.0026 -0.2183
  840PEP     CB29898  16.207   8.283   2.522  0.0526 -0.3652 -0.0338
  840PEP     CB29899  16.162   8.261   2.101  0.1883 -0.1527 -0.0215
  840PEP     CB29900  16.328   7.975   1.774 -0.3598  0.1389 -0.0216
  840PEP     CB29901  16.277   7.528   1.834 -0.0975  0.0665  0.0630
  840PEP     CB29902  16.153   7.301   2.272 -0.3234 -0.2476  0.2207
  840PEP     CB29903  16.021   7.608   2.606  0.4063  0.4180 -0.3318
  840PEP     CB29904  15.993   7.825   2.995 -0.0681 -0.3874  0.1591
  840PEP     CB29905  15.896   8.187   3.336  0.1167  0.1447 -0.3298
  840PEP     CB29906  16.017   8.659   3.571  0.1405  0.2127 -0.3215
  840PEP     CB29907  15.992   9.181   3.603  0.1056  0.0498  0.0880
  840PEP     CB29908  15.733   9.493   3.851  0.0333 -0.0955 -0.0555
  840PEP     CB29909  15.304   9.700   3.969  0.2536 -0.3244  0.3697
  840PEP     CB29910  14.939   9.882   3.746  0.1982  0.1918 -0.3520
  840PEP     CB29911  14.745   9.871   3.404 -0.1382 -0.0361 -0.0270
  840PEP     CB29912  14.791   9.778   2.920  0.0812 -0.2677  0.1108
  840PEP     CB29913  14.758   9.707   2.442 -0.3008  0.5030 -0.0615
  840PEP     CB29914  14.924   9.725   2.113 -0.3946 -0.3658  0.4268
  840PEP     CB29915  14.991   9.562   1.653  0.1984  0.1699  0.0882
  840PEP     CB29916  15.238   9.482   1.221 -0.0916  0.0757  0.1847
  840PEP     CB29917  15.533   9.221   0.987 -0.1661 -0.2471 -0.4941
  840PEP     CB29918  15.663   8.839   0.757  0.1338  0.1475 -0.3710
  840PEP     CB29919  15.658   8.629   0.348  0.1618 -0.0281 -0.1334
  840PEP     CB29920  15.823   8.749  -0.090  0.4290  0.0035 -0.1000
  841PEP     CB29921   5.051  11.082   1.244 -0.0003  0.1663 -0.1878
  841PEP     CB29922   5.160  11.557   1.123  0.1337 -0.0235 -0.0768
  841PEP     CB29923   5.392  11.765   0.768 -0.1755 -0.0708 -0.0983
  841PEP     CB29924   5.326  11.913   0.439 -0.5647 -0.0614  0.0570
  841PEP     CB29925   5.286  11.762   0.005  0.2013  0.0358  0.2099
  841PEP     CB29926   5.000  11.521  -0.247  0.0637 -0.0271 -0.0463
  841PEP     CB29927   4.564  11.501  -0.253 -0.0131 -0.0190  0.2810
  841PEP     CB29928   4.342  11.826  -0.037 -0.0217 -0.1066  0.1376
  841PEP     CB29929   4.211  12.177  -0.122  0.4352  0.1916 -0.2874
  841PEP     CB29930   4.201  12.618  -0.325  0.1746  0.1593 -0.4008
  841PEP     CB29931   4.533  12.793  -0.581 -0.1079 -0.1786  0.3610
  841PEP     CB29932   4.997  12.798  -0.779  0.2531 -0.2535 -0.1579
  841PEP     CB29933   5.260  12.878  -0.994 -0.0452 -0.0352 -0.3958
  841PEP     CB29934   5.560  12.719  -1.406 -0.0380  0.0422 -0.2835
  841PEP     CB29935   5.591  12.610  -1.847 -0.0312 -0.4078  0.2714
  841PEP     CB29936   5.353  12.551  -2.287  0.3256  0.1440 -0.1825
  841PEP     CB29937   5.120  12.867  -2.627  0.1445 -0.1178 -0.1577
  841PEP     CB29938   4.862  13.015  -2.958  0.0813 -0.2232  0.1753
  841PEP     CB29939   4.524  12.892  -3.166 -0.3168 -0.0722 -0.2192
  841PEP     CB29940   4.200  12.879  -3.429 -0.4694 -0.1195 -0.1835
  841PEP     CB29941   3.872  12.724  -3.546 -0.2141 -0.1283 -0.1492
  841PEP     CB29942   3.441  12.599  -3.532 -0.2544  0.0106  0.0059
  841PEP     CB29943   3.113  12.692  -3.198 -0.2164 -0.1734  0.4913
  841PEP     CB29944   3.088  12.974  -2.932 -0.1114  0.1099  0.0509
  841PEP     CB29945   3.042  13.237  -2.616  0.1103  0.4501  0.4595
  841PEP     CB29946   2.881  13.551  -2.513 -0.1233  0.0830  0.0728
  841PEP     CB29947   2.561  13.840  -2.509 -0.0481  0.2868 -0.2108
  841PEP     CB29948   2.426  14.055  -2.940  0.2815 -0.0986  0.1544
  841PEP     CB29949   2.309  13.769  -3.309  0.3238 -0.0377  0.0525
  841PEP     CB29950   2.423  13.261  -3.393  0.1796 -0.3991 -0.1495
  841PEP     CB29951   2.612  12.801  -3.434  0.0680  0.0908 -0.0625
  841PEP     CB29952   2.760  12.593  -3.759 -0.1282 -0.0684 -0.1718
  841PEP     CB29953   2.927  12.542  -4.166 -0.1411  0.1566 -0.0030
  841PEP     CB29954   2.932  12.410  -4.626  0.0926 -0.0026 -0.2523
  841PEP     CB29955   2.895  12.074  -4.897 -0.2141  0.2137  0.3887
  841PEP     CB29956   3.039  11.714  -4.831  0.1381  0.4285 -0.0306
  841PEP     CB29957   3.244  11.564  -4.468 -0.3110  0.1835 -0.1485
  841PEP     CB29958   3.496  11.813  -4.023  0.1486  0.0021  0.4213
  841PEP     CB29959   3.318  12.076  -3.702 -0.1617  0.1829 -0.0716
  841PEP     CB29960   2.889  12.135  -3.393  0.0177 -0.2388 -0.2488
  842PEP     CB29961   4.914  17.793  21.427 -0.3289  0.0269 -0.2929
  842PEP     CB29962   4.847  17.421  21.537  0.1997  0.2955 -0.0135
  842PEP     CB29963   4.938  17.009  21.285 -0.3295  0.2158 -0.0929
  842PEP     CB29964   5.134  17.090  20.941  0.1526  0.0638 -0.1746
  842PEP     CB29965   5.301  17.533  20.946  0.0891  0.7358 -0.3702
  842PEP     CB29966   5.378  17.771  21.305 -0.1713  0.4501 -0.2218
  842PEP     CB29967   5.297  18.213  21.457 -0.1650  0.0827  0.1782
  842PEP     CB29968   4.911  18.298  21.303 -0.2036  0.3660  0.1489
  842PEP     CB29969   4.530  18.052  21.388 -0.2027 -0.3114 -0.1133
  842PEP     CB29970   4.347  17.678  21.330 -0.2163 -0.0156  0.0668
  842PEP     CB29971   4.274  17.320  21.126  0.1656  0.1097  0.0847
  842PEP     CB29972   4.108  16.980  20.881  0.1525 -0.2170 -0.2128
  842PEP     CB29973   4.102  16.696  20.629 -0.0622  0.2386  0.0888
  842PEP     CB29974   3.821  16.472  20.386  0.0081 -0.0489 -0.1186
  842PEP     CB29975   3.724  16.123  19.933  0.1327  0.0071 -0.4138
  842PEP     CB29976   3.893  15.820  19.763 -0.0070  0.4628 -0.0848
  842PEP     CB29977   3.836  15.315  19.797 -0.1159  0.1026  0.2261
  842PEP     CB29978   3.705  14.912  19.640 -0.1659 -0.0495 -0.1289
  842PEP     CB29979   3.771  14.516  19.677 -0.2695 -0.0004 -0.2839
  842PEP     CB29980   3.686  14.131  19.438 -0.4060  0.1451  0.1234
  842PEP     CB29981   3.451  14.030  18.995 -0.0713 -0.3135 -0.0453
  842PEP     CB29982   3.127  14.039  18.703  0.1368  0.0390  0.0111
  842PEP     CB29983   2.991  14.234  18.254  0.2018  0.0028  0.1848
  842PEP     CB29984   3.064  14.159  17.897 -0.2442 -0.2751 -0.1167
  842PEP     CB29985   3.365  14.086  17.578  0.1230 -0.0723  0.0605
  842PEP     CB29986   3.517  13.960  17.234 -0.2871 -0.2092 -0.2507
  842PEP     CB29987   3.653  13.673  16.984 -0.0244  0.0412  0.1620
  842PEP     CB29988   3.983  13.403  16.913 -0.0250 -0.0764 -0.1006
  842PEP     CB29989   4.433  13.327  16.920  0.3051 -0.0285  0.5649
  842PEP     CB29990   4.806  13.259  16.821 -0.2393 -0.4338 -0.2378
  842PEP     CB29991   5.157  13.212  17.133 -0.0599  0.0792  0.0086
  842PEP     CB29992   5.078  12.932  17.445  0.0605  0.3176 -0.3080
  842PEP     CB29993   5.023  12.843  17.908  0.0414  0.2670 -0.1864
  842PEP     CB29994   4.792  12.815  18.143 -0.0336  0.2044  0.1244
  842PEP     CB29995   4.408  12.513  18.173 -0.5493  0.4490 -0.0574
  842PEP     CB29996   4.111  12.377  17.835  0.1133 -0.1689 -0.0514
  842PEP     CB29997   4.093  12.606  17.398 -0.1101  0.1460  0.3581
  842PEP     CB29998   4.223  12.759  16.890  0.0914 -0.1648  0.2581
  842PEP     CB29999   4.347  13.011  16.539 -0.0834 -0.0688  0.3109
  842PEP     CB30000   4.610  13.090  16.193 -0.0428  0.3569 -0.2905
  843PEP     CB30001   7.192  20.394  11.625  0.4114  0.1456  0.1035
  843PEP     CB30002   6.754  20.312  11.569 -0.3396  0.0039  0.5484
  843PEP     CB30003   6.363  20.279  11.436 -0.1318 -0.0556 -0.1536
  843PEP     CB30004   5.847  20.295  11.515 -0.1145 -0.0333 -0.2825
  843PEP     CB30005   5.477  20.376  11.471  0.2820 -0.2039  0.0911
  843PEP     CB30006   5.088  20.281  11.406 -0.2720 -0.2132  0.0303
  843PEP     CB30007   4.596  20.204  11.547  0.0985 -0.1387  0.0012
  843PEP     CB30008   4.312  19.951  11.721  0.0013  0.0733 -0.4276
  843PEP     CB30009   3.883  19.859  11.570  0.1350 -0.3746  0.2223
  843PEP     CB30010   3.774  20.170  11.285 -0.2793 -0.2118  0.1281
  843PEP     CB30011   3.844  20.615  11.165  0.1304  0.2417 -0.0089
  843PEP     CB30012   4.054  20.755  10.798 -0.2722  0.0758 -0.0438
  843PEP     CB30013   4.316  20.552  10.464  0.3395 -0.1615  0.3133
  843PEP     CB30014   4.353  20.342  10.118 -0.0398  0.0725  0.1257
  843PEP     CB30015   4.574  20.266   9.709  0.1252 -0.1234 -0.1967
  843PEP     CB30016   4.884  20.141   9.387  0.0367 -0.0922  0.0648
  843PEP     CB30017   5.103  20.232   8.915 -0.1479  0.2982 -0.2139
  843PEP     CB30018   5.430  20.448   8.735  0.0562 -0.3619  0.0335
  843PEP     CB30019   5.819  20.166   8.575  0.0027 -0.2477 -0.0753
  843PEP     CB30020   5.899  19.764   8.773 -0.4116 -0.1414 -0.3108
  843PEP     CB30021   5.763  19.456   8.711  0.4153 -0.3697  0.3528
  843PEP     CB30022   5.752  19.123   8.494 -0.3532  0.0143  0.4364
  843PEP     CB30023   5.455  18.792   8.334  0.3275 -0.2318  0.0779
  843PEP     CB30024   5.472  18.389   8.129 -0.2808  0.2956 -0.1892
  843PEP     CB30025   5.722  18.167   7.953  0.0109 -0.0695  0.1389
  843PEP     CB30026   6.010  17.861   7.874 -0.2296  0.2609 -0.0747
  843PEP     CB30027   6.260  17.470   7.921  0.3038 -0.0261  0.0820
  843PEP     CB30028   6.254  17.006   7.726  0.2170 -0.0547 -0.1673
  843PEP     CB30029   6.066  16.973   7.265 -0.3897  0.0579 -0.2998
  843PEP     CB30030   5.728  17.205   7.130 -0.0580 -0.2060 -0.0785
  843PEP     CB30031   5.588  17.671   7.016 -0.0596  0.0379 -0.1563
  843PEP     CB30032   5.586  18.064   6.759  0.2321  0.0983 -0.1151
  843PEP     CB30033   5.298  18.323   6.646 -0.0953 -0.2034 -0.5206
  843PEP     CB30034   4.933  18.413   7.014  0.2145 -0.4589 -0.0070
  843PEP     CB30035   4.857  18.232   7.432  0.2416  0.0851  0.1784
  843PEP     CB30036   5.166  17.960   7.666  0.0612  0.2650 -0.1350
  843PEP     CB30037   5.582  17.755   7.623  0.2265 -0.3846  0.0051
  843PEP     CB30038   5.718  17.342   7.641 -0.1734  0.0445 -0.0243
  843PEP     CB30039   5.662  16.960   7.527 -0.0750  0.1839  0.5086
  843PEP     CB30040   5.752  16.619   7.354 -0.1856  0.2226  0.1160
  844PEP     CB30041  13.046   6.477   2.950  0.3154  0.0483 -0.0733
  844PEP     CB30042  12.749   6.542   2.646 -0.2447  0.3049 -0.3656
  844PEP     CB30043  12.657   6.518   2.184 -0.0687 -0.1415  0.1407
  844PEP     CB30044  12.630   6.854   1.900 -0.0567 -0.3601  0.1526
  844PEP     CB30045  12.774   7.151   1.573 -0.2239  0.0567 -0.0374
  844PEP     CB30046  12.725   7.600   1.584 -0.2225 -0.3387  0.2717
  844PEP     CB30047  12.318   7.857   1.714  0.1425  0.1284  0.1307
  844PEP     CB30048  12.019   8.124   1.981  0.0088  0.3368  0.1918
  844PEP     CB30049  11.923   8.260   2.339  0.1457 -0.0473  0.2374
  844PEP     CB30050  11.637   8.294   2.683  0.2113 -0.2378 -0.7884
  844PEP     CB30051  11.467   8.475   3.073 -0.4214  0.2629  0.0029
  844PEP     CB30052  11.201   8.657   3.380 -0.0815  0.2191 -0.0459
  844PEP     CB30053  10.744   8.629   3.456 -0.0967 -0.0442 -0.1140
  844PEP     CB30054  10.288   8.614   3.715 -0.2611  0.2041 -0.0362
  844PEP     CB30055   9.994   8.920   3.735  0.0077 -0.2015 -0.2439
  844PEP     CB30056   9.700   9.234   3.925 -0.0122  0.1682  0.4273
  844PEP     CB30057   9.466   9.502   4.194 -0.2869 -0.1024  0.0639
  844PEP     CB30058   9.233   9.388   4.543 -0.1121 -0.1313 -0.1867
  844PEP     CB30059   8.859   9.310   4.443  0.0897 -0.2376 -0.2211
  844PEP     CB30060   8.745   9.588   3.975  0.0901 -0.0520 -0.2736
  844PEP     CB30061   8.587   9.903   3.757 -0.1391 -0.2090  0.1547
  844PEP     CB30062   8.633  10.348   3.552 -0.2701  0.1303 -0.4134
  844PEP     CB30063   8.575  10.829   3.466 -0.3341 -0.0538 -0.1250
  844PEP     CB30064   8.763  11.172   3.242  0.1037  0.0125  0.0977
  844PEP     CB30065   9.162  11.387   3.298 -0.1240 -0.0007 -0.0735
  844PEP     CB30066   9.588  11.200   3.274 -0.1998 -0.0921 -0.0218
  844PEP     CB30067   9.663  10.712   3.220  0.3699  0.2372 -0.7860
  844PEP     CB30068   9.436  10.408   3.405  0.3407  0.0743 -0.0431
  844PEP     CB30069   9.193  10.142   3.682 -0.0303  0.2364  0.0754
  844PEP     CB30070   9.033  10.214   4.027 -0.0705  0.2153  0.3554
  844PEP     CB30071   9.156  10.371   4.351 -0.0607 -0.1630 -0.0537
  844PEP     CB30072   9.186  10.680   4.597 -0.0951  0.2659 -0.1079
  844PEP     CB30073   9.107  11.033   4.785 -0.1192 -0.2508  0.2573
  844PEP     CB30074   8.862  11.320   5.076 -0.3141 -0.0412 -0.0533
  844PEP     CB30075   8.801  11.390   5.578 -0.0138 -0.2095 -0.0419
  844PEP     CB30076   8.817  11.082   5.831 -0.5965 -0.4890  0.0528
  844PEP     CB30077   8.922  10.920   6.269 -0.3626 -0.0826  0.1356
  844PEP     CB30078   9.153  10.824   6.639 -0.1661 -0.2518 -0.1505
  844PEP     CB30079   9.528  10.520   6.740 -0.3095  0.3031 -0.3255
  844PEP     CB30080   9.794  10.306   7.006  0.0874 -0.1834 -0.1722
  845PEP     CB30081  16.353   1.412  11.661 -0.2766 -0.0054  0.2619
  845PEP     CB30082  16.247   1.715  11.892 -0.0536 -0.0148 -0.2656
  845PEP     CB30083  16.040   2.054  12.071  0.1052  0.2571  0.2728
  845PEP     CB30084  16.076   2.409  12.319 -0.1642  0.1196  0.0349
  845PEP     CB30085  16.133   2.754  12.589 -0.0563 -0.1497 -0.3669
  845PEP     CB30086  16.466   3.038  12.725  0.3022 -0.2178  0.5141
  845PEP     CB30087  16.833   3.324  12.884  0.2961 -0.1263 -0.1926
  845PEP     CB30088  17.139   3.682  13.013  0.1137 -0.2027 -0.0012
  845PEP     CB30089  17.279   3.712  13.348  0.0278 -0.0451 -0.0874
  845PEP     CB30090  17.266   3.345  13.631 -0.0792 -0.0334 -0.0615
  845PEP     CB30091  17.113   2.936  13.543  0.1132  0.1222  0.2161
  845PEP     CB30092  16.852   2.631  13.602 -0.1354 -0.0685  0.0314
  845PEP     CB30093  16.484   2.349  13.396  0.1620 -0.1208  0.1178
  845PEP     CB30094  16.278   2.329  12.998  0.0636 -0.1498 -0.0115
  845PEP     CB30095  16.503   2.433  12.541  0.1126  0.1135  0.3884
  845PEP     CB30096  16.834   2.730  12.444 -0.3459  0.0937 -0.2784
  845PEP     CB30097  17.153   2.933  12.685 -0.1585 -0.2547  0.1781
  845PEP     CB30098  17.298   3.180  13.004 -0.2042 -0.1395  0.0162
  845PEP     CB30099  17.580   3.159  13.291 -0.0782 -0.1526  0.0732
  845PEP     CB30100  17.628   2.941  13.613 -0.0164  0.1914  0.2624
  845PEP     CB30101  17.659   2.842  14.022  0.3348 -0.0381  0.0659
  845PEP     CB30102  17.656   2.468  14.200  0.1678 -0.0743 -0.0662
  845PEP     CB30103  17.500   2.055  14.215  0.2290  0.1650 -0.0068
  845PEP     CB30104  17.325   1.632  14.254  0.1719 -0.0125 -0.4832
  845PEP     CB30105  17.060   1.369  14.322  0.1000 -0.1392  0.0444
  845PEP     CB30106  16.700   1.417  14.451  0.4115  0.0123  0.0342
  845PEP     CB30107  16.528   1.793  14.344 -0.1356 -0.1337 -0.1638
  845PEP     CB30108  16.496   1.907  13.882  0.1345  0.1211 -0.3607
  845PEP     CB30109  16.435   1.817  13.411  0.1363 -0.0029  0.0542
  845PEP     CB30110  16.072   1.820  13.096 -0.1518  0.1753  0.2647
  845PEP     CB30111  15.635   2.036  13.095  0.3037  0.0944  0.1309
  845PEP     CB30112  15.468   2.350  13.285  0.0863 -0.2312  0.0325
  845PEP     CB30113  15.440   2.764  13.220  0.0309 -0.0483  0.3859
  845PEP     CB30114  15.605   3.245  13.030  0.1538  0.0734  0.1331
  845PEP     CB30115  15.666   3.692  12.720 -0.0100  0.1091  0.0469
  845PEP     CB30116  15.356   3.874  12.485 -0.2491  0.0415 -0.1983
  845PEP     CB30117  15.162   3.795  12.085 -0.1807 -0.1511  0.2146
  845PEP     CB30118  14.921   3.914  11.780  0.0692 -0.6816 -0.2426
  845PEP     CB30119  14.515   3.734  11.613  0.0088  0.1605 -0.3609
  845PEP     CB30120  14.036   3.701  11.769 -0.4876  0.2570 -0.0614
  846PEP     CB30121   7.896  20.255  15.126 -0.2618 -0.2264  0.0529
  846PEP     CB30122   7.494  20.113  15.227  0.2963 -0.1512 -0.1792
  846PEP     CB30123   7.038  19.982  15.124  0.0459  0.0926  0.0433
  846PEP     CB30124   6.725  19.812  15.400 -0.2532 -0.3213 -0.2858
  846PEP     CB30125   6.282  19.759  15.578  0.0304 -0.0951  0.2021
  846PEP     CB30126   5.908  19.746  15.835  0.1390  0.3784 -0.0291
  846PEP     CB30127   5.828  19.372  16.015  0.4670  0.0625  0.3506
  846PEP     CB30128   5.604  19.178  16.326  0.2291  0.4167  0.5051
  846PEP     CB30129   5.505  19.159  16.772  0.1716 -0.1784  0.2581
  846PEP     CB30130   5.171  19.152  17.062  0.0140  0.0012  0.1199
  846PEP     CB30131   4.817  19.436  17.237 -0.3767 -0.1404 -0.2042
  846PEP     CB30132   4.446  19.220  17.560  0.0510  0.5238 -0.6965
  846PEP     CB30133   4.394  18.934  17.831  0.1835  0.1876 -0.0686
  846PEP     CB30134   4.331  18.736  18.280  0.4353  0.1743  0.0488
  846PEP     CB30135   4.402  18.470  18.612 -0.0607  0.3521  0.3169
  846PEP     CB30136   4.437  18.052  18.973 -0.1018 -0.4354 -0.3744
  846PEP     CB30137   4.367  17.569  18.950 -0.1090  0.3768 -0.2173
  846PEP     CB30138   4.465  17.392  18.603 -0.1004 -0.2556 -0.1426
  846PEP     CB30139   4.436  17.614  18.134 -0.1498 -0.2078  0.2757
  846PEP     CB30140   4.590  18.005  17.988 -0.2909  0.6503  0.2016
  846PEP     CB30141   4.699  18.473  17.957 -0.2033  0.1334 -0.5050
  846PEP     CB30142   4.821  18.668  17.601  0.1602 -0.5698 -0.0402
  846PEP     CB30143   5.144  18.930  17.519 -0.0060  0.1804  0.1028
  846PEP     CB30144   5.344  19.294  17.773  0.2895 -0.1537 -0.1433
  846PEP     CB30145   5.342  19.571  18.103 -0.3457  0.3852 -0.2404
  846PEP     CB30146   5.489  19.740  18.497 -0.0114  0.0809  0.0921
  846PEP     CB30147   5.294  19.724  18.863 -0.1337  0.2559 -0.3007
  846PEP     CB30148   4.958  19.898  18.989  0.1642 -0.0841 -0.0910
  846PEP     CB30149   4.757  20.316  19.072 -0.3359  0.2529 -0.0667
  846PEP     CB30150   4.643  20.673  19.117  0.2613  0.2537 -0.0956
  846PEP     CB30151   4.649  20.992  19.222 -0.3723 -0.5857  0.2594
  846PEP     CB30152   4.792  21.210  19.599 -0.5379  0.5002  0.0766
  846PEP     CB30153   4.850  21.040  19.983 -0.0612 -0.0880  0.2448
  846PEP     CB30154   4.558  20.723  20.266  0.2752  0.3481  0.0226
  846PEP     CB30155   4.306  20.318  20.237 -0.0125 -0.0230  0.4943
  846PEP     CB30156   3.979  20.031  20.293  0.0018  0.3943 -0.2264
  846PEP     CB30157   3.818  19.587  20.227  0.0907 -0.4391 -0.1927
  846PEP     CB30158   3.887  19.256  19.894  0.3195  0.1333  0.0549
  846PEP     CB30159   4.032  19.337  19.519  0.1995  0.3735  0.1971
  846PEP     CB30160   4.018  19.618  19.139  0.0342  0.5273 -0.3369
  847PEP     CB30161  17.664  19.959  17.982  0.1596  0.0135  0.0613
  847PEP     CB30162  18.007  19.713  18.142 -0.3972 -0.2599 -0.0692
  847PEP     CB30163  18.199  19.383  18.263  0.0746  0.0616  0.0879
  847PEP     CB30164  18.350  19.068  18.003  0.0942  0.4927  0.1726
  847PEP     CB30165  18.200  18.924  17.591 -0.0647 -0.1480  0.3845
  847PEP     CB30166  17.888  18.880  17.276  0.1074  0.0695  0.1649
  847PEP     CB30167  17.456  18.737  17.309 -0.4054 -0.0711  0.1154
  847PEP     CB30168  17.176  18.599  17.589 -0.1286  0.2668 -0.3423
  847PEP     CB30169  17.122  18.619  17.965 -0.1682  0.0087 -0.2391
  847PEP     CB30170  17.273  18.779  18.341 -0.3042 -0.2299 -0.1223
  847PEP     CB30171  17.457  18.946  18.744  0.0389  0.1636 -0.2280
  847PEP     CB30172  17.574  18.989  19.215  0.1790 -0.2968 -0.0622
  847PEP     CB30173  17.877  18.811  19.511  0.5065  0.1257  0.0122
  847PEP     CB30174  17.828  18.630  19.915 -0.1547  0.0379 -0.0660
  847PEP     CB30175  17.730  18.223  19.996 -0.1254 -0.2453  0.2551
  847PEP     CB30176  17.392  17.940  20.182  0.3209 -0.1046 -0.2165
  847PEP     CB30177  17.249  17.478  20.146  0.3333  0.0013 -0.0657
  847PEP     CB30178  17.475  17.017  20.280 -0.0139 -0.1008  0.0329
  847PEP     CB30179  17.979  16.902  20.383  0.0645  0.2643 -0.1758
  847PEP     CB30180  18.363  17.102  20.415  0.2048 -0.3173 -0.2179
  847PEP     CB30181  18.448  17.540  20.577  0.2252 -0.4394  0.0512
  847PEP     CB30182  18.305  17.777  20.945  0.0231 -0.0296  0.4833
  847PEP     CB30183  18.002  18.002  21.248  0.0092 -0.2263 -0.1246
  847PEP     CB30184  17.985  18.346  21.547  0.1086  0.3214 -0.2296
  847PEP     CB30185  17.980  18.591  21.937 -0.2542 -0.0823  0.2598
  847PEP     CB30186  17.798  18.966  22.117 -0.0852 -0.0675 -0.1188
  847PEP     CB30187  17.433  18.772  22.387  0.1888  0.1740  0.1091
  847PEP     CB30188  17.334  18.368  22.453 -0.0448 -0.1406 -0.4328
  847PEP     CB30189  17.479  18.097  22.103  0.0263  0.4869 -0.0640
  847PEP     CB30190  17.293  18.213  21.736 -0.0349 -0.0358 -0.0742
  847PEP     CB30191  16.845  18.183  21.454 -0.0286  0.0228  0.1609
  847PEP     CB30192  16.347  18.255  21.477  0.2297 -0.3430 -0.1569
  847PEP     CB30193  16.002  18.163  21.736 -0.1018  0.0979 -0.3408
  847PEP     CB30194  15.551  18.254  21.886 -0.0001  0.0392  0.1300
  847PEP     CB30195  15.049  18.037  21.982  0.2481  0.0344  0.2388
  847PEP     CB30196  14.569  18.126  21.886 -0.1287  0.2937  0.4165
  847PEP     CB30197  14.110  18.077  21.985  0.1120  0.1189 -0.0517
  847PEP     CB30198  13.815  17.794  22.029 -0.1318  0.2744  0.2545
  847PEP     CB30199  13.719  17.366  22.152 -0.3099  0.1677  0.1849
  847PEP     CB30200  13.468  17.269  22.508 -0.3910  0.3219 -0.0040
  848PEP     CB30201  13.464  13.084  21.697  0.1877 -0.2261 -0.2438
  848PEP     CB30202  13.776  13.160  21.431 -0.0671  0.0964 -0.3507
  848PEP     CB30203  13.983  13.133  20.983 -0.2032 -0.2203 -0.2755
  848PEP     CB30204  14.165  13.292  20.580  0.0730  0.0424 -0.3136
  848PEP     CB30205  14.237  13.445  20.186  0.0056  0.2780 -0.4085
  848PEP     CB30206  14.163  13.574  19.889 -0.2013  0.1105 -0.1919
  848PEP     CB30207  14.242  13.747  19.417  0.1027 -0.5836  0.1045
  848PEP     CB30208  14.530  13.591  19.159  0.3081  0.4462 -0.0213
  848PEP     CB30209  14.719  13.196  19.116  0.3440  0.1838 -0.2127
  848PEP     CB30210  14.741  12.842  19.389  0.1909  0.4268 -0.3636
  848PEP     CB30211  14.467  12.422  19.441  0.3575  0.2194  0.1620
  848PEP     CB30212  14.493  11.972  19.470 -0.1610 -0.1927  0.3643
  848PEP     CB30213  14.473  11.542  19.374 -0.3026  0.2938 -0.0975
  848PEP     CB30214  14.520  11.096  19.350  0.0237 -0.1446  0.0211
  848PEP     CB30215  14.713  10.717  19.393 -0.2613  0.2942  0.2788
  848PEP     CB30216  14.574  10.312  19.528 -0.1118 -0.0962  0.1218
  848PEP     CB30217  14.676   9.920  19.330  0.1041  0.2298 -0.5408
  848PEP     CB30218  14.760   9.802  18.891 -0.1673  0.5329 -0.5140
  848PEP     CB30219  15.079   9.435  18.810 -0.2395 -0.2314  0.0757
  848PEP     CB30220  15.111   9.149  19.126 -0.4296  0.4201 -0.0569
  848PEP     CB30221  14.750   8.931  19.357 -0.1405 -0.1348  0.1961
  848PEP     CB30222  14.499   9.193  19.603  0.2113 -0.0111 -0.0865
  848PEP     CB30223  14.496   9.597  19.659  0.4558 -0.2422 -0.0866
  848PEP     CB30224  14.481   9.934  19.922  0.1102  0.2784 -0.0869
  848PEP     CB30225  14.825   9.949  20.257  0.3510  0.2616 -0.0723
  848PEP     CB30226  15.004   9.529  20.420 -0.0619 -0.0643  0.1020
  848PEP     CB30227  15.146   9.053  20.405 -0.3537 -0.1752 -0.3394
  848PEP     CB30228  15.164   8.743  20.671 -0.1113  0.0295  0.0343
  848PEP     CB30229  15.007   8.359  20.759 -0.2808 -0.0956  0.1102
  848PEP     CB30230  14.710   8.174  20.948  0.2079  0.1326  0.2389
  848PEP     CB30231  14.532   7.741  21.078 -0.0331 -0.3751 -0.1671
  848PEP     CB30232  14.871   7.424  21.157  0.2110 -0.1864 -0.2890
  848PEP     CB30233  15.147   7.269  20.856 -0.0252 -0.0496 -0.2905
  848PEP     CB30234  15.316   6.781  20.867 -0.0039  0.1881  0.3239
  848PEP     CB30235  15.046   6.414  20.964  0.0012  0.0099  0.0688
  848PEP     CB30236  14.657   6.315  20.761 -0.1556  0.2532 -0.4956
  848PEP     CB30237  14.435   6.226  20.467  0.2350  0.5050  0.3050
  848PEP     CB30238  13.943   6.248  20.256 -0.0515 -0.1189 -0.3366
  848PEP     CB30239  13.595   6.189  20.107 -0.1250  0.0097 -0.4465
  848PEP     CB30240  13.244   6.142  19.746 -0.2218 -0.0387  0.7177
  849PEP     CB30241   1.870  16.655   6.976  0.3435 -0.2601 -0.0975
  849PEP     CB30242   1.708  16.856   7.332  0.0408  0.4254  0.1867
  849PEP     CB30243   1.695  17.060   7.657 -0.1349 -0.1136 -0.2207
  849PEP     CB30244   1.886  17.083   8.148 -0.1632  0.1652 -0.1923
  849PEP     CB30245   1.950  16.979   8.543 -0.0231  0.0180  0.1292
  849PEP     CB30246   2.336  16.904   8.862 -0.2002 -0.1023  0.0948
  849PEP     CB30247   2.834  16.921   9.117 -0.0725 -0.3134  0.0970
  849PEP     CB30248   3.308  17.017   9.333 -0.0949 -0.3189 -0.3782
  849PEP     CB30249   3.682  16.749   9.324 -0.1736 -0.2225  0.2049
  849PEP     CB30250   3.736  16.334   9.189  0.0412  0.2934 -0.2021
  849PEP     CB30251   3.906  15.971   9.285 -0.1548 -0.2466  0.0927
  849PEP     CB30252   4.175  15.607   9.091  0.0020  0.2229 -0.0126
  849PEP     CB30253   4.589  15.701   8.942 -0.1512 -0.2019 -0.2779
  849PEP     CB30254   4.852  15.965   8.661  0.0481 -0.2430  0.0288
  849PEP     CB30255   4.936  16.233   8.319 -0.3252  0.0909 -0.0769
  849PEP     CB30256   5.240  16.307   7.959  0.2345 -0.1435  0.2795
  849PEP     CB30257   5.568  16.155   7.745 -0.1781 -0.2650  0.0070
  849PEP     CB30258   5.895  16.191   7.683 -0.0736 -0.0598  0.0483
  849PEP     CB30259   6.245  16.513   7.542  0.0082  0.4383 -0.0929
  849PEP     CB30260   6.529  16.790   7.356 -0.1394  0.3670  0.3299
  849PEP     CB30261   6.721  17.125   7.592 -0.1818 -0.0159 -0.3232
  849PEP     CB30262   7.135  17.284   7.481 -0.3121  0.2458 -0.0551
  849PEP     CB30263   7.245  17.671   7.446  0.3435 -0.0695  0.1509
  849PEP     CB30264   7.705  17.918   7.502 -0.1323  0.0712  0.1705
  849PEP     CB30265   8.013  18.208   7.763 -0.4395 -0.0066  0.1748
  849PEP     CB30266   7.890  18.346   8.164 -0.2612  0.4097  0.2123
  849PEP     CB30267   7.851  18.626   8.545 -0.2327 -0.1150 -0.3118
  849PEP     CB30268   8.161  18.896   8.820  0.5000  0.1226  0.2657
  849PEP     CB30269   8.613  18.940   8.889  0.0477 -0.1121  0.5990
  849PEP     CB30270   9.059  19.066   8.976  0.4462  0.0342 -0.1112
  849PEP     CB30271   9.335  19.340   9.099  0.4300 -0.1527 -0.2045
  849PEP     CB30272   9.748  19.584   9.167 -0.2617  0.1060  0.1574
  849PEP     CB30273  10.159  19.725   9.273 -0.0532  0.3165 -0.0033
  849PEP     CB30274  10.480  19.984   9.054 -0.2557 -0.3102 -0.2305
  849PEP     CB30275  10.799  20.052   8.787 -0.0955  0.0882  0.1342
  849PEP     CB30276  11.051  20.237   8.550  0.1120  0.0357 -0.2228
  849PEP     CB30277  11.093  20.701   8.260 -0.2356  0.1096  0.1121
  849PEP     CB30278  11.222  20.968   7.943  0.1993 -0.0288  0.2809
  849PEP     CB30279  11.174  20.770   7.526  0.1015  0.0548 -0.1144
  849PEP     CB30280  11.159  20.409   7.293 -0.1829 -0.0494  0.1950
  850PEP     CB30281  19.836  21.849   1.611  0.3117  0.2290  0.2781
  850PEP     CB30282  20.162  21.616   1.743  0.0115  0.5832  0.0308
  850PEP     CB30283  20.626  21.684   1.749  0.2836  0.0481  0.0270
  850PEP     CB30284  21.084  21.745   1.766 -0.0792 -0.2260  0.3658
  850PEP     CB30285  21.372  21.529   2.037  0.0826  0.1308  0.3638
  850PEP     CB30286  21.267  21.465   2.569 -0.0614 -0.4335  0.0237
  850PEP     CB30287  21.201  21.200   2.935  0.1767 -0.4076 -0.2493
  850PEP     CB30288  21.141  20.989   3.331 -0.6448  0.1150  0.1274
  850PEP     CB30289  21.188  20.566   3.406  0.1654  0.3205 -0.3532
  850PEP     CB30290  21.304  20.230   3.123  0.2179 -0.2789 -0.3907
  850PEP     CB30291  21.133  20.144   2.716  0.1557 -0.3939 -0.2910
  850PEP     CB30292  21.020  20.428   2.420  0.0588  0.2106 -0.0194
  850PEP     CB30293  20.876  20.859   2.462 -0.1420 -0.2143  0.2488
  850PEP     CB30294  20.773  21.125   2.795  0.1138 -0.0419  0.0871
  850PEP     CB30295  20.613  20.931   3.088 -0.3549  0.0654  0.2205
  850PEP     CB30296  20.314  21.004   3.434  0.1072 -0.0684  0.0765
  850PEP     CB30297  20.113  21.188   3.739 -0.0411  0.3592 -0.1483
  850PEP     CB30298  20.308  21.468   4.063  0.2478 -0.3408 -0.2418
  850PEP     CB30299  20.401  21.340   4.455 -0.2378  0.4069 -0.4854
  850PEP     CB30300  20.406  20.850   4.637 -0.0427 -0.0610 -0.0392
  850PEP     CB30301  20.531  20.432   4.498 -0.0160 -0.1893  0.1361
  850PEP     CB30302  20.800  20.045   4.391 -0.3773 -0.0583 -0.1391
  850PEP     CB30303  20.917  19.632   4.645  0.1348  0.4034 -0.4621
  850PEP     CB30304  21.260  19.447   4.907  0.0125 -0.2009  0.2082
  850PEP     CB30305  21.644  19.373   4.999  0.3166 -0.2459  0.0164
  850PEP     CB30306  22.114  19.263   4.874 -0.0866  0.4373 -0.1796
  850PEP     CB30307  22.539  19.221   4.984 -0.1448 -0.3205  0.0772
  850PEP     CB30308  22.897  19.522   5.145  0.1223 -0.0056 -0.2437
  850PEP     CB30309  22.997  20.008   4.982  0.1791  0.2641 -0.0386
  850PEP     CB30310  22.727  20.127   4.628  0.0859  0.0150 -0.5080
  850PEP     CB30311  22.368  20.081   4.408  0.0375  0.0030  0.2119
  850PEP     CB30312  21.956  20.157   4.560 -0.1382 -0.1577  0.0647
  850PEP     CB30313  21.840  20.571   4.792  0.2887  0.3856 -0.0366
  850PEP     CB30314  22.050  21.031   4.615 -0.0467  0.2528  0.2208
  850PEP     CB30315  22.552  20.940   4.507  0.3110 -0.0622  0.2820
  850PEP     CB30316  22.860  20.979   4.768  0.2061 -0.1185 -0.3089
  850PEP     CB30317  23.075  21.300   5.022 -0.0790 -0.5494 -0.3631
  850PEP     CB30318  23.237  21.734   5.193  0.0039 -0.1023  0.1877
  850PEP     CB30319  23.599  21.855   5.212  0.1526  0.3452 -0.3361
  850PEP     CB30320  24.107  21.767   5.221  0.1459  0.3152 -0.2952
  851PEP     CB30321   1.565   2.705   6.307 -0.0878 -0.0359 -0.0425
  851PEP     CB30322   1.972   2.506   6.374 -0.5340  0.1972 -0.0661
  851PEP     CB30323   2.255   2.308   6.476 -0.1301 -0.0046 -0.1001
  851PEP     CB30324   2.760   2.392   6.451 -0.1404  0.1400  0.2648
  851PEP     CB30325   3.074   2.613   6.336 -0.1016 -0.0866  0.1086
  851PEP     CB30326   3.382   2.638   6.101  0.3582  0.1415  0.3058
  851PEP     CB30327   3.751   2.715   6.157 -0.0895  0.1324  0.1143
  851PEP     CB30328   4.033   2.630   6.469 -0.0963 -0.3829  0.1366
  851PEP     CB30329   4.028   2.267   6.678  0.0869  0.4854 -0.0072
  851PEP     CB30330   3.893   1.928   6.514  0.2804 -0.0234 -0.1815
  851PEP     CB30331   4.061   1.740   6.164  0.0359 -0.2937  0.1290
  851PEP     CB30332   4.219   1.570   5.786  0.4578 -0.0444 -0.0244
  851PEP     CB30333   4.262   1.299   5.518 -0.1538  0.0341  0.1281
  851PEP     CB30334   4.525   1.067   5.032  0.0475  0.1843  0.1879
  851PEP     CB30335   4.911   1.018   4.884  0.0681 -0.1890 -0.1199
  851PEP     CB30336   5.335   1.016   5.090  0.0735 -0.3091  0.4257
  851PEP     CB30337   5.670   0.756   5.296  0.2100  0.3482 -0.0856
  851PEP     CB30338   6.114   0.558   5.118  0.1701  0.1245 -0.0425
  851PEP     CB30339   6.309   0.692   4.709 -0.0596 -0.2946  0.0594
  851PEP     CB30340   6.194   0.889   4.236 -0.4083  0.0864  0.1723
  851PEP     CB30341   6.034   1.068   3.853 -0.0603  0.1144  0.0689
  851PEP     CB30342   6.107   1.500   3.563  0.2273  0.1113  0.0617
  851PEP     CB30343   6.092   1.978   3.717  0.1067  0.0819  0.2107
  851PEP     CB30344   6.169   2.196   4.065 -0.2042 -0.3495 -0.1090
  851PEP     CB30345   5.979   1.924   4.433  0.2362 -0.1450  0.5599
  851PEP     CB30346   5.724   1.592   4.494 -0.0679 -0.5350  0.1038
  851PEP     CB30347   5.695   1.149   4.378  0.0546  0.0122 -0.0613
  851PEP     CB30348   5.584   1.028   3.961 -0.3247 -0.3955  0.3397
  851PEP     CB30349   5.297   1.337   3.731 -0.4037  0.1638  0.1848
  851PEP     CB30350   5.007   1.753   3.663 -0.1593 -0.1811  0.5824
  851PEP     CB30351   4.532   1.916   3.550 -0.0408  0.2322  0.1827
  851PEP     CB30352   4.374   2.116   3.205 -0.0447 -0.2857  0.0324
  851PEP     CB30353   4.273   2.411   2.952 -0.0237 -0.1528  0.1982
  851PEP     CB30354   4.335   2.656   2.566  0.1958  0.0749 -0.3732
  851PEP     CB30355   4.089   3.069   2.399  0.0281  0.1411 -0.2781
  851PEP     CB30356   3.850   3.515   2.427  0.4914 -0.0427 -0.0443
  851PEP     CB30357   3.794   3.802   2.103 -0.1219 -0.2873  0.3757
  851PEP     CB30358   3.614   3.807   1.761  0.0225 -0.1825 -0.0227
  851PEP     CB30359   3.465   4.026   1.414 -0.0541  0.1145 -0.3143
  851PEP     CB30360   3.372   4.169   0.942  0.0425  0.0108 -0.0290
  852PEP     CB30361  20.365  10.816   6.951  0.0697  0.0671  0.0732
  852PEP     CB30362  20.491  10.832   7.420  0.2405  0.2271  0.0059
  852PEP     CB30363  20.375  10.659   7.820 -0.0961  0.3975 -0.2539
  852PEP     CB30364  20.143  10.189   7.875  0.0825  0.2987 -0.3698
  852PEP     CB30365  19.908   9.934   7.516 -0.2411 -0.0577  0.0387
  852PEP     CB30366  19.761  10.208   7.112  0.1217 -0.2381  0.0003
  852PEP     CB30367  19.379  10.372   7.036 -0.1904  0.1128  0.1731
  852PEP     CB30368  19.094  10.399   7.383 -0.3527 -0.3014  0.1903
  852PEP     CB30369  18.933  10.144   7.694  0.0472  0.1222  0.0637
  852PEP     CB30370  18.839  10.033   8.060 -0.3778 -0.1818  0.1117
  852PEP     CB30371  18.646   9.746   8.366 -0.0827 -0.1732 -0.1158
  852PEP     CB30372  18.385   9.424   8.540 -0.2136  0.3722 -0.2013
  852PEP     CB30373  18.140   9.069   8.651  0.3972 -0.1525 -0.0956
  852PEP     CB30374  18.206   8.691   8.495 -0.3366 -0.1750 -0.0713
  852PEP     CB30375  17.971   8.490   8.144 -0.1736  0.1107  0.3278
  852PEP     CB30376  17.674   8.745   7.915  0.2975 -0.1060  0.2770
  852PEP     CB30377  17.588   9.167   7.954 -0.3522  0.1083  0.1364
  852PEP     CB30378  17.372   9.574   8.058  0.3417  0.3044 -0.0687
  852PEP     CB30379  17.098   9.926   8.336  0.0478 -0.2147 -0.0689
  852PEP     CB30380  17.079  10.158   8.745  0.2812 -0.3528 -0.1118
  852PEP     CB30381  16.926  10.107   9.245 -0.4599  0.0921  0.2673
  852PEP     CB30382  16.793  10.373   9.611 -0.3296  0.1190 -0.4762
  852PEP     CB30383  16.903  10.650   9.906  0.1460 -0.0164  0.2310
  852PEP     CB30384  16.897  10.880  10.339 -0.2404 -0.1530  0.2192
  852PEP     CB30385  16.835  10.913  10.698 -0.2516 -0.1059  0.0973
  852PEP     CB30386  16.909  11.172  11.091 -0.1564  0.0462 -0.1710
  852PEP     CB30387  16.599  11.529  11.245 -0.3798  0.2750  0.2302
  852PEP     CB30388  16.237  11.523  11.532 -0.1262 -0.6260 -0.4661
  852PEP     CB30389  16.315  11.352  11.875  0.1363 -0.3104  0.0184
  852PEP     CB30390  16.697  11.103  12.033 -0.0557 -0.0761  0.0305
  852PEP     CB30391  16.781  10.667  12.079  0.0340  0.0373  0.0941
  852PEP     CB30392  16.477  10.503  12.348 -0.2023 -0.0913  0.1470
  852PEP     CB30393  16.264  10.708  12.649  0.1632 -0.3337 -0.5008
  852PEP     CB30394  15.974  10.680  13.041  0.0441 -0.2830  0.1560
  852PEP     CB30395  15.770  10.790  13.393  0.0647 -0.0447  0.3052
  852PEP     CB30396  15.831  11.070  13.756 -0.0581 -0.0327  0.0039
  852PEP     CB30397  16.042  11.431  14.004 -0.1534 -0.1114 -0.1869
  852PEP     CB30398  16.060  11.852  14.148  0.3486  0.3172  0.0524
  852PEP     CB30399  16.116  12.174  14.391 -0.1469 -0.4431  0.0483
  852PEP     CB30400  16.316  12.659  14.369 -0.0377  0.4709 -0.1206
  853PEP     CB30401  17.987   4.419  18.906 -0.1096 -0.3621  0.1220
  853PEP     CB30402  17.587   4.399  19.135 -0.0035 -0.2980 -0.0084
  853PEP     CB30403  17.683   4.248  19.671  0.0566 -0.1070 -0.0056
  853PEP     CB30404  18.099   4.135  19.781 -0.1667 -0.2073  0.5142
  853PEP     CB30405  18.527   4.045  19.975  0.2094 -0.0253 -0.6935
  853PEP     CB30406  18.654   3.980  20.431  0.2264 -0.2228  0.2364
  853PEP     CB30407  18.984   3.928  20.716  0.0828 -0.3488  0.0743
  853PEP     CB30408  19.097   4.028  21.133 -0.2031  0.1308 -0.0678
  853PEP     CB30409  18.851   4.019  21.522 -0.0688 -0.0275  0.1095
  853PEP     CB30410  18.455   4.130  21.727 -0.0145  0.3440 -0.0097
  853PEP     CB30411  18.176   4.210  22.040 -0.0396  0.0259  0.1343
  853PEP     CB30412  17.811   4.286  22.423 -0.1886  0.3936  0.0960
  853PEP     CB30413  17.521   4.418  22.487 -0.3223  0.4983 -0.3344
  853PEP     CB30414  17.153   4.649  22.562  0.2866  0.2470  0.0638
  853PEP     CB30415  16.723   4.502  22.662  0.1702 -0.1025 -0.0778
  853PEP     CB30416  16.410   4.143  22.688  0.1663 -0.2238 -0.1004
  853PEP     CB30417  16.050   4.046  22.951 -0.0448 -0.1657 -0.0201
  853PEP     CB30418  15.810   4.410  23.119  0.2365  0.2453 -0.1777
  853PEP     CB30419  15.964   4.648  23.345 -0.2240 -0.1916  0.3518
  853PEP     CB30420  16.281   4.948  23.145  0.2441 -0.1748  0.1631
  853PEP     CB30421  16.535   5.263  22.988  0.0839 -0.1803  0.0479
  853PEP     CB30422  16.983   5.456  23.015 -0.2405 -0.2187  0.0916
  853PEP     CB30423  17.298   5.734  22.819 -0.3709  0.1850  0.1072
  853PEP     CB30424  17.606   5.994  22.844 -0.2597  0.1671 -0.0820
  853PEP     CB30425  17.838   6.070  22.473 -0.3586 -0.1459 -0.3124
  853PEP     CB30426  18.140   5.827  22.258 -0.0931  0.5027  0.2552
  853PEP     CB30427  18.051   5.468  22.102  0.0014  0.1181 -0.1326
  853PEP     CB30428  17.652   5.215  22.015  0.0539 -0.1746  0.2196
  853PEP     CB30429  17.258   5.049  22.069 -0.2180  0.3359 -0.2466
  853PEP     CB30430  17.050   4.559  22.076 -0.0412  0.0402  0.1041
  853PEP     CB30431  17.044   4.201  21.938  0.0677  0.3897  0.1930
  853PEP     CB30432  16.953   3.778  21.878 -0.0346  0.2028  0.1758
  853PEP     CB30433  16.987   3.395  22.042  0.0892 -0.0373  0.1673
  853PEP     CB30434  17.249   3.291  22.340  0.0693 -0.3890 -0.4546
  853PEP     CB30435  17.206   3.262  22.716  0.0684 -0.1155  0.1307
  853PEP     CB30436  17.022   3.512  23.035 -0.1239  0.2722 -0.0462
  853PEP     CB30437  17.223   3.734  23.380 -0.2355  0.1985 -0.2716
  853PEP     CB30438  17.516   4.107  23.491 -0.4037  0.1561  0.3651
  853PEP     CB30439  17.565   4.476  23.411  0.1140 -0.1320  0.6909
  853PEP     CB30440  17.349   4.741  23.235  0.3036  0.1402  0.2115
  854PEP     CB30441  11.602   0.834   9.006 -0.1833 -0.2350 -0.0410
  854PEP     CB30442  11.546   0.416   8.928 -0.0081  0.1464  0.0331
  854PEP     CB30443  11.436   0.012   8.854  0.1385 -0.1677 -0.1339
  854PEP     CB30444  11.189  -0.322   9.168  0.0646 -0.0567 -0.1540
  854PEP     CB30445  11.252  -0.329   9.599 -0.2784 -0.0484  0.1579
  854PEP     CB30446  11.374  -0.543   9.876 -0.0679  0.0795 -0.1614
  854PEP     CB30447  11.242  -0.976   9.793  0.0474 -0.0680 -0.0603
  854PEP     CB30448  10.735  -1.047   9.676 -0.2802 -0.3384  0.1073
  854PEP     CB30449  10.440  -0.805   9.448  0.1968 -0.1093  0.2983
  854PEP     CB30450  10.216  -0.627   9.124  0.1534  0.4934  0.2105
  854PEP     CB30451   9.893  -0.516   8.864 -0.1244 -0.3755  0.0230
  854PEP     CB30452   9.716  -0.272   8.600 -0.0984  0.0126 -0.2082
  854PEP     CB30453   9.518   0.111   8.397  0.0488 -0.1198  0.1365
  854PEP     CB30454   9.291   0.412   8.141  0.0134 -0.0578 -0.1833
  854PEP     CB30455   9.236   0.615   7.891  0.3656 -0.0192 -0.0527
  854PEP     CB30456   9.477   0.701   7.572 -0.2213 -0.1409  0.2929
  854PEP     CB30457   9.851   0.863   7.553  0.0865  0.0132 -0.3458
  854PEP     CB30458  10.306   1.041   7.543  0.1052 -0.3145  0.0688
  854PEP     CB30459  10.822   1.131   7.535 -0.4950 -0.1339 -0.0282
  854PEP     CB30460  11.251   1.064   7.366  0.4912 -0.0311 -0.3045
  854PEP     CB30461  11.562   0.808   7.319  0.1303 -0.0158 -0.1342
  854PEP     CB30462  11.911   0.583   7.506 -0.2724  0.0210 -0.1711
  854PEP     CB30463  12.270   0.691   7.774 -0.2074 -0.3492 -0.1024
  854PEP     CB30464  12.629   0.752   8.110 -0.2095 -0.2026 -0.2717
  854PEP     CB30465  12.778   0.836   8.487 -0.1956  0.1137 -0.2928
  854PEP     CB30466  12.868   0.548   8.713 -0.2434 -0.2006 -0.1112
  854PEP     CB30467  13.002   0.113   8.521  0.2419  0.2206  0.1069
  854PEP     CB30468  13.297  -0.332   8.411 -0.0037  0.3388  0.1554
  854PEP     CB30469  13.716  -0.394   8.358 -0.1555  0.0960 -0.1329
  854PEP     CB30470  14.040  -0.025   8.328  0.0510  0.1281  0.3448
  854PEP     CB30471  13.949   0.328   8.671 -0.0559  0.0522 -0.0574
  854PEP     CB30472  13.570   0.645   8.521 -0.1916  0.0499  0.0651
  854PEP     CB30473  13.266   0.594   8.283  0.1257  0.1883 -0.1174
  854PEP     CB30474  13.050   0.652   7.913 -0.0084 -0.1176 -0.1236
  854PEP     CB30475  12.964   1.030   7.687 -0.2890  0.3893 -0.1204
  854PEP     CB30476  13.100   1.459   7.665  0.3022  0.0733  0.0608
  854PEP     CB30477  13.249   1.881   7.627 -0.1082 -0.0910  0.4540
  854PEP     CB30478  13.306   2.288   7.437  0.0667  0.3909  0.0941
  854PEP     CB30479  13.076   2.600   7.200  0.2099 -0.0088 -0.0548
  854PEP     CB30480  12.711   2.835   7.178 -0.4576  0.3197  0.3147
  855PEP     CB30481  17.651   3.736   0.571  0.4839 -0.1452 -0.2818
  855PEP     CB30482  17.901   3.879   0.153  0.2201 -0.1413 -0.1593
  855PEP     CB30483  17.952   3.678  -0.432  0.2132 -0.2772  0.0710
  855PEP     CB30484  17.901   3.322  -0.698 -0.0512 -0.1010  0.2077
  855PEP     CB30485  18.082   2.969  -0.979 -0.1159 -0.0645 -0.1525
  855PEP     CB30486  17.991   2.552  -1.142  0.0577  0.1659  0.1114
  855PEP     CB30487  18.046   2.214  -1.517 -0.1738  0.3039 -0.3196
  855PEP     CB30488  17.895   1.834  -1.813 -0.0741 -0.0414  0.3154
  855PEP     CB30489  17.779   1.453  -1.969 -0.0846 -0.3142  0.1297
  855PEP     CB30490  17.647   1.096  -2.244 -0.2838 -0.0260 -0.0920
  855PEP     CB30491  17.421   0.700  -2.215  0.0135 -0.0032 -0.4633
  855PEP     CB30492  17.018   0.505  -2.180  0.4115 -0.1729 -0.2812
  855PEP     CB30493  16.680   0.628  -2.356 -0.0343  0.0790  0.2652
  855PEP     CB30494  16.499   1.019  -2.510 -0.2498 -0.0522 -0.6230
  855PEP     CB30495  16.348   1.469  -2.620 -0.1748  0.0235 -0.4100
  855PEP     CB30496  16.405   1.901  -2.474  0.2047 -0.4041 -0.0057
  855PEP     CB30497  16.708   2.027  -2.343  0.0697  0.0626 -0.1813
  855PEP     CB30498  17.134   1.973  -2.138  0.0498 -0.5568  0.1268
  855PEP     CB30499  17.342   1.997  -1.690  0.1503 -0.1949 -0.0631
  855PEP     CB30500  17.052   2.008  -1.339 -0.1567  0.4052 -0.0166
  855PEP     CB30501  16.542   1.772  -1.401  0.2060 -0.0031 -0.3207
  855PEP     CB30502  16.386   1.469  -1.764  0.0977  0.1136  0.1934
  855PEP     CB30503  16.136   1.428  -2.220 -0.1443  0.1189  0.2046
  855PEP     CB30504  15.850   1.587  -2.506  0.2023  0.0067 -0.1869
  855PEP     CB30505  15.487   1.895  -2.521 -0.1555 -0.0507  0.0303
  855PEP     CB30506  15.200   2.169  -2.281 -0.1521 -0.2464  0.0536
  855PEP     CB30507  15.266   2.616  -2.094  0.2626 -0.0015  0.1196
  855PEP     CB30508  15.580   2.821  -2.260 -0.0451 -0.4925  0.0560
  855PEP     CB30509  15.995   2.696  -2.504 -0.0067 -0.6023 -0.0548
  855PEP     CB30510  16.047   2.564  -2.963 -0.2050  0.0544 -0.0738
  855PEP     CB30511  15.850   2.612  -3.319  0.0556  0.1962  0.1826
  855PEP     CB30512  15.705   2.372  -3.737 -0.0223 -0.2506  0.0548
  855PEP     CB30513  15.855   2.029  -3.843  0.1583  0.1381 -0.3688
  855PEP     CB30514  16.055   1.790  -3.687 -0.2350  0.0891 -0.9877
  855PEP     CB30515  16.067   1.754  -3.221 -0.1742  0.1215 -0.6595
  855PEP     CB30516  15.848   1.513  -2.994 -0.1794 -0.1394  0.2240
  855PEP     CB30517  15.452   1.386  -3.054  0.1071 -0.2428 -0.3949
  855PEP     CB30518  15.071   1.196  -3.062 -0.3267  0.4782  0.1756
  855PEP     CB30519  14.728   0.907  -3.204 -0.1818 -0.2416  0.1491
  855PEP     CB30520  14.642   0.480  -3.368  0.2279 -0.0690  0.0940
  856PEP     CB30521   0.484  19.005  21.070  0.1080 -0.4491 -0.2150
  856PEP     CB30522   0.244  19.208  20.765  0.0616 -0.3863  0.1683
  856PEP     CB30523  -0.160  19.121  20.632  0.4356  0.0977  0.1194
  856PEP     CB30524  -0.454  18.863  20.792 -0.4630  0.0567 -0.0491
  856PEP     CB30525  -0.324  18.425  20.820 -0.2492 -0.7358  0.1083
  856PEP     CB30526  -0.213  18.060  21.184  0.2208 -0.0006  0.2780
  856PEP     CB30527  -0.042  17.803  21.505  0.0730  0.3026  0.1234
  856PEP     CB30528  -0.080  17.320  21.690  0.1700 -0.2004 -0.0827
  856PEP     CB30529  -0.393  17.051  21.691 -0.3323  0.0038  0.0795
  856PEP     CB30530  -0.437  16.566  21.596  0.1001  0.2174  0.3015
  856PEP     CB30531  -0.313  16.301  21.975 -0.0183  0.3446 -0.0185
  856PEP     CB30532  -0.271  16.261  22.334 -0.1432  0.0357  0.0176
  856PEP     CB30533  -0.274  16.098  22.788  0.3541  0.1547 -0.1759
  856PEP     CB30534  -0.443  16.015  23.241 -0.1901  0.0539 -0.3944
  856PEP     CB30535  -0.226  15.999  23.637  0.0265  0.0467 -0.0431
  856PEP     CB30536   0.065  15.901  23.991  0.0173  0.0138  0.2929
  856PEP     CB30537   0.258  15.786  24.268 -0.3091 -0.0063  0.1089
  856PEP     CB30538   0.164  15.707  24.700 -0.3911  0.3442 -0.1295
  856PEP     CB30539  -0.050  15.362  24.861  0.2119 -0.0504  0.1347
  856PEP     CB30540  -0.528  15.311  24.811 -0.0101 -0.5211  0.1276
  856PEP     CB30541  -0.942  15.584  24.889 -0.1496  0.1503 -0.2233
  856PEP     CB30542  -1.386  15.611  24.946  0.2854  0.3162  0.2571
  856PEP     CB30543  -1.744  15.690  24.798 -0.2419  0.1026  0.0052
  856PEP     CB30544  -1.851  15.684  24.360  0.1538 -0.2149  0.0573
  856PEP     CB30545  -1.496  15.909  24.050 -0.2893 -0.1091  0.3099
  856PEP     CB30546  -1.389  16.303  24.172  0.1909  0.0767 -0.0699
  856PEP     CB30547  -1.109  16.516  24.473 -0.0116  0.2370 -0.3283
  856PEP     CB30548  -1.052  16.944  24.431 -0.2665  0.1350  0.1228
  856PEP     CB30549  -1.405  17.092  24.381  0.1308 -0.0617  0.0052
  856PEP     CB30550  -1.657  16.869  24.597  0.4171  0.1277 -0.3055
  856PEP     CB30551  -1.613  16.545  24.936  0.1810 -0.2518  0.1405
  856PEP     CB30552  -1.523  16.128  25.143  0.0882 -0.1560 -0.3295
  856PEP     CB30553  -1.740  15.968  25.554  0.0132 -0.4469 -0.1996
  856PEP     CB30554  -1.867  16.119  25.995 -0.0929 -0.2320 -0.3458
  856PEP     CB30555  -2.135  16.476  26.148 -0.0448  0.1273 -0.0873
  856PEP     CB30556  -2.477  16.667  26.053  0.1803 -0.1440 -0.0781
  856PEP     CB30557  -2.932  16.775  26.156 -0.0566 -0.2107  0.0529
  856PEP     CB30558  -3.287  16.882  26.083  0.1584  0.0162  0.0130
  856PEP     CB30559  -3.501  17.119  26.355 -0.1406  0.4255 -0.0473
  856PEP     CB30560  -3.526  17.120  26.836  0.1618  0.3960  0.0915
  857PEP     CB30561  15.276   0.090  12.952  0.0111 -0.1375  0.2166
  857PEP     CB30562  14.917   0.087  13.213  0.2227 -0.1127 -0.0413
  857PEP     CB30563  14.645   0.093  13.663  0.2815 -0.1915 -0.2652
  857PEP     CB30564  14.383   0.178  14.013 -0.0209 -0.1645  0.1381
  857PEP     CB30565  14.444   0.431  14.323 -0.2427  0.1481  0.0159
  857PEP     CB30566  14.537   0.724  14.432 -0.0725 -0.3564  0.4084
  857PEP     CB30567  14.627   1.200  14.391 -0.1987  0.1961  0.0668
  857PEP     CB30568  14.680   1.631  14.368 -0.4589  0.1056 -0.3737
  857PEP     CB30569  14.813   1.898  14.637  0.2726  0.3005  0.0785
  857PEP     CB30570  15.080   2.004  14.969  0.3721  0.1252 -0.3360
  857PEP     CB30571  15.334   1.826  15.315 -0.2352 -0.0637  0.1550
  857PEP     CB30572  15.252   1.611  15.675 -0.1933 -0.3223 -0.1956
  857PEP     CB30573  14.959   1.245  15.799  0.1117 -0.1094 -0.3634
  857PEP     CB30574  14.580   1.059  15.548  0.0842 -0.1847 -0.0251
  857PEP     CB30575  14.387   1.337  15.294  0.2397  0.2488  0.0365
  857PEP     CB30576  14.322   1.778  15.409  0.2264  0.0689  0.1032
  857PEP     CB30577  14.390   2.008  15.742  0.0888  0.2019 -0.0423
  857PEP     CB30578  14.563   2.314  16.066 -0.2793 -0.5399 -0.0355
  857PEP     CB30579  14.935   2.574  15.943  0.2252 -0.0620  0.0241
  857PEP     CB30580  15.175   2.536  15.600 -0.4292  0.1262  0.0662
  857PEP     CB30581  15.587   2.370  15.398 -0.3542  0.1212  0.0499
  857PEP     CB30582  15.796   2.028  15.249 -0.2415 -0.1083 -0.1726
  857PEP     CB30583  16.066   1.785  15.004 -0.0248  0.1042 -0.1700
  857PEP     CB30584  16.303   1.478  14.800 -0.0163 -0.2240 -0.1648
  857PEP     CB30585  16.440   1.073  14.792  0.5591 -0.4197 -0.0345
  857PEP     CB30586  16.527   0.619  14.662  0.0820  0.0655  0.1596
  857PEP     CB30587  16.718   0.403  14.380  0.2271  0.2719 -0.0411
  857PEP     CB30588  17.103   0.389  14.126  0.1710 -0.3629 -0.1840
  857PEP     CB30589  17.486   0.470  14.352  0.4317 -0.0005  0.1273
  857PEP     CB30590  17.558   0.431  14.803  0.0360  0.0386  0.0212
  857PEP     CB30591  17.708   0.317  15.171 -0.0691 -0.4596  0.0221
  857PEP     CB30592  17.728   0.139  15.540  0.1522  0.2898 -0.0345
  857PEP     CB30593  17.876   0.076  15.879 -0.2376  0.3349  0.2184
  857PEP     CB30594  17.695  -0.138  16.268  0.0371 -0.2124  0.3769
  857PEP     CB30595  17.476  -0.585  16.272 -0.3638 -0.3118 -0.0689
  857PEP     CB30596  17.672  -1.052  16.191  0.0395  0.0252  0.1304
  857PEP     CB30597  17.942  -1.264  16.256 -0.1843  0.1161 -0.3102
  857PEP     CB30598  18.157  -1.200  16.683 -0.4812 -0.1253 -0.7173
  857PEP     CB30599  18.050  -0.892  17.085 -0.1304 -0.2711 -0.3875
  857PEP     CB30600  17.826  -0.769  17.449 -0.0498 -0.2549 -0.0779
  858PEP     CB30601   4.740   6.676  22.038  0.0087 -0.0668  0.2412
  858PEP     CB30602   4.540   7.025  22.034  0.1959 -0.1472  0.4010
  858PEP     CB30603   4.054   7.105  22.105 -0.1491  0.1546 -0.1905
  858PEP     CB30604   3.801   6.837  22.377  0.1181  0.2902  0.1219
  858PEP     CB30605   3.629   6.386  22.586 -0.0594 -0.4079 -0.0912
  858PEP     CB30606   3.208   6.241  22.509  0.0608  0.2325  0.5669
  858PEP     CB30607   2.971   6.370  22.082  0.2978 -0.0570 -0.1815
  858PEP     CB30608   2.987   6.513  21.639 -0.0335  0.2730 -0.3916
  858PEP     CB30609   3.054   6.784  21.352  0.0735  0.2089  0.2359
  858PEP     CB30610   3.072   7.085  21.062  0.1636  0.1581  0.0167
  858PEP     CB30611   3.211   7.561  21.017  0.0101 -0.1951 -0.0158
  858PEP     CB30612   3.557   7.867  20.920  0.0603 -0.0948 -0.0373
  858PEP     CB30613   3.706   8.351  20.933  0.1070 -0.0538 -0.3247
  858PEP     CB30614   3.572   8.662  20.616 -0.0245  0.0014 -0.1361
  858PEP     CB30615   3.725   8.777  20.191  0.1937  0.0098  0.0026
  858PEP     CB30616   4.045   8.926  19.960  0.2556  0.2843 -0.4133
  858PEP     CB30617   4.400   9.256  20.043  0.3696 -0.1325 -0.2059
  858PEP     CB30618   4.806   9.493  19.888 -0.2633  0.2414 -0.0424
  858PEP     CB30619   5.009   9.825  19.542  0.2618  0.2227 -0.0848
  858PEP     CB30620   5.119  10.279  19.456  0.1091  0.1793 -0.0547
  858PEP     CB30621   5.120  10.485  19.063 -0.0789 -0.2685 -0.1448
  858PEP     CB30622   5.478  10.577  18.721  0.2642  0.3144  0.0292
  858PEP     CB30623   5.761  10.847  18.832 -0.0603  0.0849  0.3800
  858PEP     CB30624   6.155  11.117  18.972  0.0577 -0.4677 -0.3445
  858PEP     CB30625   6.430  11.301  18.799  0.1601 -0.4789 -0.1076
  858PEP     CB30626   6.849  11.062  18.595 -0.1722  0.0516  0.1810
  858PEP     CB30627   7.008  11.092  18.201 -0.4085  0.0569 -0.1416
  858PEP     CB30628   6.924  11.375  17.803 -0.2369  0.0882  0.3835
  858PEP     CB30629   6.756  11.253  17.406  0.0929 -0.3567  0.0454
  858PEP     CB30630   6.399  11.116  17.231  0.5602 -0.2003 -0.3070
  858PEP     CB30631   6.033  10.730  17.346 -0.1622 -0.0451 -0.2599
  858PEP     CB30632   5.978  10.346  17.422 -0.1279 -0.4958  0.0778
  858PEP     CB30633   6.150   9.922  17.492 -0.3300 -0.1192 -0.2608
  858PEP     CB30634   6.493   9.712  17.534 -0.0344  0.1319 -0.1538
  858PEP     CB30635   6.876   9.908  17.661  0.3803  0.1294 -0.1731
  858PEP     CB30636   7.050  10.241  17.298 -0.1326 -0.0532  0.3450
  858PEP     CB30637   6.994  10.461  16.881 -0.3006 -0.1499 -0.0138
  858PEP     CB30638   6.845  10.720  16.515  0.3536  0.7982 -0.2848
  858PEP     CB30639   7.083  11.184  16.474  0.0120 -0.1395 -0.3169
  858PEP     CB30640   7.330  11.523  16.447  0.1320  0.0054  0.0435
  859PEP     CB30641   1.068   9.406  18.440 -0.0078 -0.3611 -0.0200
  859PEP     CB30642   0.716   9.233  18.149  0.1224  0.1959  0.0072
  859PEP     CB30643   0.445   9.029  17.868 -0.1342 -0.2457 -0.5827
  859PEP     CB30644   0.221   9.147  17.468  0.0631  0.0162  0.0870
  859PEP     CB30645   0.311   9.352  17.115 -0.0931  0.2699 -0.0028
  859PEP     CB30646   0.488   9.401  16.765  0.0819 -0.0082 -0.0323
  859PEP     CB30647   0.673   9.086  16.436 -0.0937  0.7142  0.2153
  859PEP     CB30648   0.675   8.843  16.079 -0.3845 -0.1451  0.0855
  859PEP     CB30649   0.580   8.488  15.900  0.5314  0.0862  0.1216
  859PEP     CB30650   0.313   8.216  15.845  0.0923  0.2472 -0.2345
  859PEP     CB30651   0.115   7.790  15.890 -0.2285  0.2247  0.1047
  859PEP     CB30652  -0.347   7.778  15.953 -0.0275  0.1269 -0.0543
  859PEP     CB30653  -0.541   8.070  16.207 -0.0639  0.2449  0.3504
  859PEP     CB30654  -0.570   8.230  16.633 -0.0434  0.0247 -0.3469
  859PEP     CB30655  -0.540   8.429  17.042  0.1925 -0.1794 -0.3634
  859PEP     CB30656  -0.168   8.893  17.008  0.2255 -0.0899  0.1831
  859PEP     CB30657   0.152   8.946  16.679 -0.3586 -0.1157  0.1700
  859PEP     CB30658   0.193   9.059  16.251  0.1093 -0.5125  0.1171
  859PEP     CB30659   0.087   9.416  15.949  0.4500 -0.3383  0.1381
  859PEP     CB30660  -0.059   9.871  15.782  0.0276 -0.0855  0.0145
  859PEP     CB30661  -0.072  10.313  15.754  0.0882 -0.1037  0.0380
  859PEP     CB30662  -0.139  10.618  15.360 -0.2301 -0.1135  0.2547
  859PEP     CB30663  -0.294  10.989  15.276  0.0054 -0.1294  0.3430
  859PEP     CB30664  -0.628  11.286  15.148 -0.1640 -0.2090  0.0361
  859PEP     CB30665  -0.625  11.647  14.873 -0.0869 -0.1753  0.0498
  859PEP     CB30666  -0.339  12.000  14.633 -0.3544  0.1240 -0.2011
  859PEP     CB30667  -0.305  12.451  14.557  0.5583  0.1886 -0.1237
  859PEP     CB30668  -0.484  12.847  14.501  0.0266  0.2649  0.2436
  859PEP     CB30669  -0.414  13.211  14.592 -0.2926  0.5096  0.4186
  859PEP     CB30670  -0.283  13.646  14.435 -0.2399 -0.2582 -0.2150
  859PEP     CB30671   0.076  13.932  14.451  0.6042 -0.1714  0.2535
  859PEP     CB30672   0.488  14.101  14.397 -0.3562  0.1000  0.3139
  859PEP     CB30673   0.734  14.145  14.070  0.4046 -0.3767 -0.1339
  859PEP     CB30674   0.612  13.863  13.750 -0.2033  0.3176  0.4638
  859PEP     CB30675   0.474  13.517  13.472 -0.0890  0.2553  0.1809
  859PEP     CB30676   0.440  13.466  12.971  0.1764  0.1436 -0.0949
  859PEP     CB30677   0.656  13.276  12.696 -0.3631 -0.0031 -0.3640
  859PEP     CB30678   0.948  12.942  12.531  0.1837  0.1285 -0.1739
  859PEP     CB30679   0.967  12.568  12.244 -0.1604  0.3975 -0.3627
  859PEP     CB30680   0.880  12.573  11.834 -0.1177  0.1447  0.2659
  860PEP     CB30681  20.216  14.287  20.883 -0.0059  0.0065 -0.2635
  860PEP     CB30682  19.805  14.604  20.950 -0.1976 -0.2528 -0.0411
  860PEP     CB30683  19.401  14.409  21.025 -0.1341  0.0112 -0.0611
  860PEP     CB30684  19.091  14.116  21.034  0.1145 -0.2446  0.1224
  860PEP     CB30685  18.954  13.697  21.196  0.0386  0.3965  0.1436
  860PEP     CB30686  19.049  13.495  21.579 -0.2946 -0.0126 -0.4116
  860PEP     CB30687  18.711  13.334  21.805  0.0006  0.2207 -0.0177
  860PEP     CB30688  18.467  12.978  21.872  0.0803 -0.2596  0.2213
  860PEP     CB30689  18.439  12.596  22.082 -0.1263 -0.1293 -0.0470
  860PEP     CB30690  18.719  12.369  22.180 -0.3403 -0.1255  0.2784
  860PEP     CB30691  19.151  12.414  22.258  0.1111  0.1555  0.3701
  860PEP     CB30692  19.450  12.793  22.102 -0.1312  0.0876 -0.1257
  860PEP     CB30693  19.417  13.287  22.092 -0.1854  0.3526 -0.1969
  860PEP     CB30694  19.106  13.597  22.098 -0.0588 -0.0246  0.1474
  860PEP     CB30695  18.645  13.708  22.106  0.1271 -0.2431 -0.2349
  860PEP     CB30696  18.332  13.659  21.725  0.1515 -0.2972 -0.2781
  860PEP     CB30697  18.166  13.587  21.318 -0.0770 -0.2561 -0.5621
  860PEP     CB30698  18.312  13.454  20.862 -0.0585  0.0841 -0.2303
  860PEP     CB30699  18.227  13.216  20.441 -0.1664 -0.0512  0.4482
  860PEP     CB30700  18.048  13.122  20.099 -0.1966  0.0122 -0.1263
  860PEP     CB30701  18.035  12.723  19.827  0.0703 -0.2043  0.3893
  860PEP     CB30702  18.080  12.211  19.847 -0.1521  0.1802  0.0459
  860PEP     CB30703  18.130  11.894  20.122  0.2935  0.2583 -0.1689
  860PEP     CB30704  17.884  11.454  20.272 -0.1103  0.3253  0.2722
  860PEP     CB30705  17.849  11.014  20.056  0.1339  0.2319  0.2589
  860PEP     CB30706  18.016  10.561  19.905 -0.1635  0.1436 -0.0062
  860PEP     CB30707  17.648  10.245  19.552  0.1493  0.3496  0.1819
  860PEP     CB30708  17.308  10.387  19.452 -0.2096  0.1018 -0.0823
  860PEP     CB30709  16.862  10.356  19.635 -0.1424  0.3148  0.3082
  860PEP     CB30710  16.606  10.562  19.906  0.4137 -0.0953 -0.1540
  860PEP     CB30711  16.453  10.916  20.094  0.2178 -0.4387  0.2554
  860PEP     CB30712  16.208  11.313  19.965  0.0466  0.4357  0.4152
  860PEP     CB30713  16.112  11.724  20.167 -0.3942  0.2302  0.0823
  860PEP     CB30714  15.797  11.785  20.412 -0.1659 -0.3316 -0.1040
  860PEP     CB30715  15.841  11.673  20.853  0.4833 -0.2128 -0.1231
  860PEP     CB30716  15.940  11.785  21.252  0.0440 -0.0311  0.1724
  860PEP     CB30717  15.779  11.797  21.714 -0.0875  0.5687  0.0601
  860PEP     CB30718  15.455  11.828  22.046 -0.1362 -0.1654  0.2364
  860PEP     CB30719  15.169  11.718  22.351 -0.0258  0.0017  0.0875
  860PEP     CB30720  14.790  11.763  22.393 -0.3151  0.0272 -0.0869
  861PEP     CB30721  15.760   3.095  20.606 -0.4499  0.2077 -0.1882
  861PEP     CB30722  15.690   3.500  20.502 -0.2380 -0.2405 -0.4320
  861PEP     CB30723  15.948   3.902  20.433 -0.0832  0.0717  0.0849
  861PEP     CB30724  16.332   4.032  20.290  0.1588  0.3860  0.3905
  861PEP     CB30725  16.491   4.263  19.950  0.1737 -0.0099  0.2076
  861PEP     CB30726  16.487   4.666  19.683  0.2084 -0.2033  0.1854
  861PEP     CB30727  16.330   5.177  19.623  0.1851 -0.1231  0.3517
  861PEP     CB30728  15.968   5.533  19.697  0.0791  0.3843  0.2449
  861PEP     CB30729  15.612   5.529  20.008 -0.0569 -0.0345  0.2494
  861PEP     CB30730  15.705   5.313  20.332  0.0407 -0.0930 -0.4101
  861PEP     CB30731  15.708   4.905  20.365  0.3213 -0.1122 -0.1563
  861PEP     CB30732  15.917   4.501  20.475  0.2137  0.0618  0.0278
  861PEP     CB30733  15.805   4.189  20.809  0.3422 -0.0167  0.0620
  861PEP     CB30734  15.365   4.189  20.894 -0.1927 -0.0455 -0.3931
  861PEP     CB30735  15.218   4.599  21.021 -0.1830 -0.0468 -0.1687
  861PEP     CB30736  14.776   4.775  21.073  0.1007  0.0552  0.2562
  861PEP     CB30737  14.371   4.813  21.165 -0.1515 -0.1511  0.1521
  861PEP     CB30738  14.114   5.247  21.111  0.2921  0.2062 -0.1118
  861PEP     CB30739  14.031   5.539  20.739  0.0782  0.5073 -0.0788
  861PEP     CB30740  13.900   5.514  20.218  0.3846  0.1202 -0.1896
  861PEP     CB30741  13.821   5.368  19.853  0.2187 -0.1687 -0.0811
  861PEP     CB30742  13.935   5.072  19.438 -0.3414  0.2405  0.1636
  861PEP     CB30743  13.821   4.723  19.237  0.1401  0.0417  0.0936
  861PEP     CB30744  14.018   4.429  18.964 -0.1333  0.1392  0.0302
  861PEP     CB30745  14.480   4.263  18.848 -0.0608  0.1260  0.3692
  861PEP     CB30746  14.707   3.947  18.811 -0.1565 -0.2114 -0.1388
  861PEP     CB30747  14.977   3.530  18.741 -0.2002 -0.5419  0.0489
  861PEP     CB30748  15.065   3.106  18.763 -0.1576 -0.0646 -0.2659
  861PEP     CB30749  15.049   2.854  19.044 -0.1884 -0.2928  0.0316
  861PEP     CB30750  15.417   2.975  19.365  0.3386 -0.1189 -0.0381
  861PEP     CB30751  15.869   3.052  19.206 -0.0820  0.5380  0.2669
  861PEP     CB30752  15.999   3.165  18.818  0.4265  0.1116 -0.2731
  861PEP     CB30753  15.808   2.974  18.267 -0.1921  0.3106 -0.1090
  861PEP     CB30754  16.021   2.665  18.079  0.3013  0.0216 -0.2212
  861PEP     CB30755  16.233   2.319  18.315 -0.0694 -0.3825 -0.0591
  861PEP     CB30756  16.338   2.243  18.758 -0.2027 -0.2282  0.2430
  861PEP     CB30757  16.555   2.130  19.087 -0.3963 -0.0500  0.0211
  861PEP     CB30758  16.902   1.834  19.255 -0.2130 -0.1395 -0.0573
  861PEP     CB30759  17.310   1.729  19.355  0.1308 -0.0341  0.0081
  861PEP     CB30760  17.769   1.686  19.208  0.5127 -0.5111 -0.0441
  862PEP     CB30761   0.237   9.285   2.025  0.0767  0.0038  0.2654
  862PEP     CB30762  -0.043   9.034   1.747  0.2648 -0.1686 -0.2410
  862PEP     CB30763  -0.482   8.691   1.764  0.2599  0.4094 -0.1704
  862PEP     CB30764  -0.635   8.295   1.635 -0.0743 -0.0046 -0.0725
  862PEP     CB30765  -0.490   7.862   1.609 -0.1362  0.3863 -0.0645
  862PEP     CB30766  -0.401   7.609   1.322 -0.0080 -0.4619  0.1231
  862PEP     CB30767  -0.521   7.255   1.015  0.0322 -0.2625 -0.0110
  862PEP     CB30768  -0.673   7.180   0.593 -0.3142 -0.2999  0.0645
  862PEP     CB30769  -0.827   6.904   0.317  0.3968  0.1604  0.3003
  862PEP     CB30770  -0.614   6.543   0.350 -0.3003 -0.2154  0.2559
  862PEP     CB30771  -0.174   6.453   0.253 -0.1253  0.0289 -0.4376
  862PEP     CB30772   0.111   6.693   0.059 -0.1278 -0.0433 -0.1031
  862PEP     CB30773   0.263   7.120   0.041  0.2400 -0.0746  0.1326
  862PEP     CB30774   0.391   7.477  -0.161  0.1731  0.0769  0.2097
  862PEP     CB30775   0.643   7.885  -0.062  0.0681  0.1009 -0.3459
  862PEP     CB30776   1.026   8.097  -0.240 -0.4442  0.1938  0.0670
  862PEP     CB30777   1.423   8.327  -0.148  0.3036  0.1885 -0.3730
  862PEP     CB30778   1.824   8.450   0.088  0.1012  0.0330 -0.0329
  862PEP     CB30779   2.170   8.319   0.240 -0.3199  0.0544  0.3780
  862PEP     CB30780   2.474   8.362   0.039  0.3438  0.6109 -0.2778
  862PEP     CB30781   2.548   8.340  -0.426 -0.0861 -0.4435  0.0279
  862PEP     CB30782   2.257   8.427  -0.883 -0.1150 -0.0053  0.2816
  862PEP     CB30783   1.870   8.271  -1.124  0.4854 -0.0208 -0.1251
  862PEP     CB30784   1.353   8.375  -1.084 -0.0001 -0.0252  0.2715
  862PEP     CB30785   0.916   8.453  -1.081 -0.2133  0.1333  0.3292
  862PEP     CB30786   0.620   8.209  -1.360 -0.1047  0.3502  0.4882
  862PEP     CB30787   0.521   7.842  -1.516  0.4866 -0.1016  0.1343
  862PEP     CB30788   0.410   7.474  -1.503  0.5464  0.3137  0.2087
  862PEP     CB30789   0.308   7.290  -1.122 -0.0309  0.2536 -0.1134
  862PEP     CB30790   0.312   7.356  -0.685  0.0146 -0.0441 -0.0068
  862PEP     CB30791   0.008   7.307  -0.427 -0.1805 -0.3234  0.0360
  862PEP     CB30792  -0.147   7.442  -0.065 -0.3824  0.1276  0.0973
  862PEP     CB30793  -0.276   7.514   0.405  0.1098  0.0517  0.1516
  862PEP     CB30794  -0.557   7.618   0.756 -0.3391 -0.2188  0.1324
  862PEP     CB30795  -0.868   7.705   1.071 -0.3284 -0.2627  0.1502
  862PEP     CB30796  -0.982   7.921   1.381  0.0731 -0.2439  0.0662
  862PEP     CB30797  -0.939   7.909   1.791  0.1983  0.0872 -0.4583
  862PEP     CB30798  -1.011   7.690   2.171  0.1826  0.0453  0.3296
  862PEP     CB30799  -0.808   7.357   2.413  0.3657  0.1469 -0.1514
  862PEP     CB30800  -0.449   7.029   2.292  0.0866  0.1314 -0.3186
  863PEP     CB30801  22.037   3.740  21.792  0.1620  0.0498 -0.0979
  863PEP     CB30802  21.635   3.533  21.837 -0.2126 -0.1255 -0.4088
  863PEP     CB30803  21.357   3.175  21.770 -0.2285  0.0815 -0.2277
  863PEP     CB30804  20.968   3.002  21.617  0.0192 -0.0801 -0.1737
  863PEP     CB30805  20.582   3.234  21.586  0.0849 -0.0903  0.4314
  863PEP     CB30806  20.658   3.667  21.631 -0.0956  0.1332 -0.2628
  863PEP     CB30807  21.134   3.794  21.553  0.3337  0.2074  0.2342
  863PEP     CB30808  21.384   3.666  21.300  0.2856  0.4065  0.4609
  863PEP     CB30809  21.372   3.260  21.212  0.0049 -0.1077 -0.1501
  863PEP     CB30810  20.933   2.980  21.068  0.1304 -0.0618 -0.0092
  863PEP     CB30811  20.632   3.221  20.700  0.4191  0.1236 -0.3056
  863PEP     CB30812  20.237   3.243  20.422  0.3958  0.2242 -0.3583
  863PEP     CB30813  19.791   3.313  20.231  0.2142  0.3789  0.2599
  863PEP     CB30814  19.624   3.354  19.798  0.1075  0.2949 -0.2682
  863PEP     CB30815  19.830   3.459  19.431  0.1534  0.0287 -0.3847
  863PEP     CB30816  20.081   3.496  19.003 -0.0484  0.0928 -0.0897
  863PEP     CB30817  20.339   3.397  18.714  0.3595 -0.0393  0.0682
  863PEP     CB30818  20.387   3.133  18.340 -0.1644  0.0142 -0.0613
  863PEP     CB30819  20.167   3.152  17.944  0.2448 -0.3610 -0.1728
  863PEP     CB30820  19.931   3.465  17.721 -0.3021 -0.3554 -0.1924
  863PEP     CB30821  19.922   3.865  17.746 -0.0174 -0.4260  0.1550
  863PEP     CB30822  20.187   4.155  17.863 -0.2427 -0.2342 -0.4055
  863PEP     CB30823  20.649   4.087  17.707  0.1612  0.2143 -0.0022
  863PEP     CB30824  21.071   4.113  17.707  0.1309 -0.1187  0.4361
  863PEP     CB30825  21.448   4.024  17.567 -0.3284  0.1671 -0.2481
  863PEP     CB30826  21.908   3.920  17.469 -0.4188 -0.2316  0.2467
  863PEP     CB30827  22.308   3.709  17.448  0.2211 -0.2052 -0.2905
  863PEP     CB30828  22.481   3.323  17.494 -0.1263  0.0474 -0.0625
  863PEP     CB30829  22.345   2.962  17.248 -0.1056 -0.2103  0.0056
  863PEP     CB30830  22.020   2.746  17.224 -0.5430 -0.1754 -0.1448
  863PEP     CB30831  21.604   2.563  17.216  0.0239 -0.3392  0.0262
  863PEP     CB30832  21.376   2.351  16.992  0.0020  0.2237 -0.0639
  863PEP     CB30833  21.502   1.899  16.970  0.2462 -0.4027 -0.0023
  863PEP     CB30834  21.806   1.653  17.045  0.0680  0.3712 -0.0935
  863PEP     CB30835  22.221   1.768  16.990  0.0947 -0.1375 -0.3462
  863PEP     CB30836  22.415   2.009  16.705 -0.1587 -0.0864 -0.0406
  863PEP     CB30837  22.485   2.100  16.301  0.0492 -0.0773 -0.4646
  863PEP     CB30838  22.684   2.091  15.855  0.2278  0.1912 -0.3066
  863PEP     CB30839  22.792   1.768  15.513 -0.1926 -0.4541  0.1004
  863PEP     CB30840  22.628   1.431  15.311 -0.2496 -0.1328 -0.0451
  864PEP     CB30841   8.276  17.519  14.638 -0.0145 -0.1475 -0.1669
  864PEP     CB30842   8.334  17.975  14.499  0.1076 -0.0699  0.2332
  864PEP     CB30843   8.705  18.284  14.420  0.0163 -0.4429  0.0499
  864PEP     CB30844   9.060  18.442  14.537 -0.7881 -0.0424  0.3821
  864PEP     CB30845   9.433  18.460  14.816  0.1919  0.0062 -0.0772
  864PEP     CB30846   9.765  18.347  14.793  0.0527 -0.0347  0.1905
  864PEP     CB30847  10.088  18.075  14.930 -0.0353  0.0019  0.3049
  864PEP     CB30848  10.341  18.031  15.277 -0.1159 -0.0376  0.0340
  864PEP     CB30849  10.322  17.906  15.704 -0.1425  0.2774 -0.0489
  864PEP     CB30850   9.991  17.836  16.015 -0.2394 -0.2578 -0.2631
  864PEP     CB30851   9.620  17.560  16.066  0.0309  0.0983  0.2555
  864PEP     CB30852   9.275  17.301  16.215  0.2641  0.4370  0.2370
  864PEP     CB30853   8.811  17.311  16.130 -0.2421 -0.0309  0.3783
  864PEP     CB30854   8.525  17.592  16.022 -0.3957  0.0533 -0.0278
  864PEP     CB30855   8.549  17.948  15.726  0.1477  0.0583 -0.0176
  864PEP     CB30856   8.830  18.099  15.367  0.2155 -0.0126  0.0582
  864PEP     CB30857   9.072  17.787  15.247 -0.1287 -0.4789  0.2727
  864PEP     CB30858   9.529  17.598  15.214 -0.1647 -0.0321 -0.1677
  864PEP     CB30859   9.860  17.330  15.099  0.1678 -0.3452  0.6132
  864PEP     CB30860  10.259  17.268  15.292 -0.0639  0.2849 -0.0734
  864PEP     CB30861  10.617  17.157  15.570 -0.2430 -0.1102  0.1348
  864PEP     CB30862  11.109  17.094  15.543  0.1419 -0.1640 -0.3501
  864PEP     CB30863  11.480  16.772  15.509 -0.1018  0.2178  0.0418
  864PEP     CB30864  11.599  16.500  15.252  0.2445 -0.0348  0.1832
  864PEP     CB30865  12.009  16.542  14.915 -0.2715  0.0714 -0.1244
  864PEP     CB30866  12.313  16.842  14.882  0.0118 -0.0181 -0.1693
  864PEP     CB30867  12.761  17.025  14.827 -0.2281 -0.3194 -0.2803
  864PEP     CB30868  13.073  17.220  14.630 -0.3417  0.2525 -0.0314
  864PEP     CB30869  13.401  17.051  14.355  0.0995 -0.2144  0.3427
  864PEP     CB30870  13.800  17.032  14.177  0.2509  0.1529 -0.0794
  864PEP     CB30871  14.079  17.007  13.825  0.4069 -0.1646 -0.2606
  864PEP     CB30872  14.464  17.076  13.564 -0.4675 -0.1437 -0.2761
  864PEP     CB30873  14.899  17.101  13.712 -0.0006  0.0875 -0.0789
  864PEP     CB30874  15.035  17.124  14.023  0.0671 -0.1016  0.5213
  864PEP     CB30875  14.851  17.247  14.373  0.1406 -0.2983 -0.0677
  864PEP     CB30876  14.408  17.435  14.442  0.0636  0.1044  0.1683
  864PEP     CB30877  14.080  17.408  14.142 -0.0646 -0.0734 -0.1663
  864PEP     CB30878  13.760  17.340  13.783 -0.0702  0.0391 -0.1579
  864PEP     CB30879  13.547  17.081  13.477 -0.4128 -0.5613  0.3189
  864PEP     CB30880  13.485  16.700  13.342 -0.4422 -0.1461  0.0832
  865PEP     CB30881  10.273  19.949   2.211 -0.2963  0.0387 -0.0135
  865PEP     CB30882  10.252  20.216   2.660 -0.3629  0.0598 -0.6028
  865PEP     CB30883  10.546  20.355   3.039  0.3946 -0.4170  0.0861
  865PEP     CB30884  10.893  20.170   3.147  0.2463  0.0334 -0.3024
  865PEP     CB30885  11.284  20.038   3.357 -0.0511  0.2421 -0.3302
  865PEP     CB30886  11.684  19.660   3.418  0.0266  0.2060  0.0729
  865PEP     CB30887  11.820  19.523   3.887 -0.4129  0.1087  0.0267
  865PEP     CB30888  11.952  19.885   4.138 -0.1573 -0.3678 -0.1556
  865PEP     CB30889  12.346  20.180   4.122  0.0162 -0.1287 -0.2250
  865PEP     CB30890  12.760  20.050   4.208 -0.0342 -0.2304 -0.1496
  865PEP     CB30891  12.866  19.693   4.238  0.1007 -0.4053  0.3223
  865PEP     CB30892  12.802  19.391   4.011  0.0348 -0.2899 -0.4047
  865PEP     CB30893  12.764  19.278   3.623  0.1139  0.0858 -0.1418
  865PEP     CB30894  12.635  19.284   3.142 -0.5010 -0.2986 -0.1765
  865PEP     CB30895  12.248  19.450   2.976  0.2750 -0.1504  0.2611
  865PEP     CB30896  12.138  19.838   3.162  0.0404  0.0437 -0.1258
  865PEP     CB30897  11.940  20.107   3.306 -0.1644  0.2244 -0.0882
  865PEP     CB30898  11.991  20.584   3.324  0.0477 -0.0130  0.2805
  865PEP     CB30899  12.305  20.771   3.656 -0.1567  0.0507 -0.0163
  865PEP     CB30900  12.636  20.643   3.980  0.2307  0.4059  0.3379
  865PEP     CB30901  13.000  20.752   3.920  0.4306  0.1021 -0.1754
  865PEP     CB30902  13.273  21.083   3.973 -0.0263  0.0686  0.1650
  865PEP     CB30903  13.442  21.369   3.667 -0.3518 -0.0389 -0.1988
  865PEP     CB30904  13.298  21.592   3.330 -0.0611 -0.0813  0.0866
  865PEP     CB30905  13.198  21.757   2.953 -0.1769 -0.2468  0.3088
  865PEP     CB30906  13.139  22.050   2.649 -0.0965  0.1998 -0.3766
  865PEP     CB30907  13.282  22.396   2.402  0.1300 -0.1408  0.1034
  865PEP     CB30908  13.290  22.704   2.041  0.1172 -0.1952  0.2777
  865PEP     CB30909  12.962  22.911   1.747  0.2425 -0.1834  0.2526
  865PEP     CB30910  12.851  23.385   1.723 -0.2031 -0.0416 -0.4076
  865PEP     CB30911  12.942  23.722   1.988  0.1825  0.0324  0.6017
  865PEP     CB30912  12.788  23.862   2.348  0.1993 -0.1972 -0.1935
  865PEP     CB30913  12.347  24.020   2.522 -0.4469 -0.0334 -0.5326
  865PEP     CB30914  12.137  24.160   2.885  0.0709 -0.2501 -0.2816
  865PEP     CB30915  12.330  24.290   3.124 -0.1297 -0.1044 -0.1859
  865PEP     CB30916  12.747  24.063   3.378 -0.2471 -0.1664  0.3117
  865PEP     CB30917  13.014  23.677   3.304 -0.2427 -0.0771 -0.2104
  865PEP     CB30918  13.405  23.606   3.261  0.0964  0.2129 -0.0693
  865PEP     CB30919  13.631  23.658   2.933  0.1357  0.1255 -0.3743
  865PEP     CB30920  13.824  24.004   2.550 -0.0512 -0.3834  0.2714
  866PEP     CB30921  19.306   3.435  20.713 -0.0476 -0.2148 -0.1405
  866PEP     CB30922  19.736   3.320  20.756 -0.1833 -0.0223 -0.1061
  866PEP     CB30923  20.181   3.242  20.879  0.1621 -0.1949  0.3571
  866PEP     CB30924  20.403   2.886  21.014  0.1338 -0.4297 -0.1499
  866PEP     CB30925  20.745   2.553  20.948 -0.0532  0.2312 -0.1295
  866PEP     CB30926  21.027   2.129  21.028 -0.1956 -0.2679 -0.1200
  866PEP     CB30927  21.292   2.001  21.288  0.1341  0.2466  0.1035
  866PEP     CB30928  21.595   1.748  21.501  0.1335  0.0665 -0.4141
  866PEP     CB30929  21.959   1.702  21.903 -0.2653  0.3548 -0.1928
  866PEP     CB30930  22.324   1.516  22.109  0.1210 -0.1059  0.3040
  866PEP     CB30931  22.749   1.470  22.093  0.2649  0.0876 -0.4398
  866PEP     CB30932  23.152   1.513  21.868  0.1013 -0.1588 -0.1003
  866PEP     CB30933  23.498   1.640  21.555  0.3218 -0.2469 -0.3150
  866PEP     CB30934  23.808   1.893  21.478 -0.5737 -0.0096 -0.2993
  866PEP     CB30935  24.196   1.985  21.664 -0.0053  0.2566 -0.2826
  866PEP     CB30936  24.203   2.231  22.070 -0.2551 -0.1893  0.0155
  866PEP     CB30937  24.169   2.299  22.540 -0.5888 -0.1259 -0.0016
  866PEP     CB30938  23.955   2.255  22.952 -0.0106  0.2092 -0.1776
  866PEP     CB30939  23.808   1.905  23.259  0.4437 -0.2518 -0.2164
  866PEP     CB30940  23.536   1.555  23.350  0.2205 -0.1691 -0.0806
  866PEP     CB30941  23.461   1.185  23.488 -0.1642  0.0760  0.4814
  866PEP     CB30942  23.430   1.015  23.904 -0.1965  0.2727 -0.0253
  866PEP     CB30943  23.494   1.130  24.354  0.3922  0.0938  0.2489
  866PEP     CB30944  23.526   1.425  24.683 -0.0681 -0.2364  0.0934
  866PEP     CB30945  23.582   1.668  25.139  0.3207 -0.1162  0.4244
  866PEP     CB30946  23.465   2.059  25.298 -0.2554  0.2298 -0.5236
  866PEP     CB30947  23.357   2.463  25.300  0.0152  0.0131 -0.1116
  866PEP     CB30948  23.175   2.754  25.623  0.2058 -0.0406  0.0930
  866PEP     CB30949  23.136   3.221  25.612  0.0674 -0.0611  0.0553
  866PEP     CB30950  23.534   3.453  25.320  0.0185  0.0501 -0.1237
  866PEP     CB30951  23.699   3.179  25.044 -0.0924  0.1277 -0.4277
  866PEP     CB30952  23.426   2.880  25.033  0.0833  0.1293  0.2449
  866PEP     CB30953  23.078   3.061  25.141 -0.1596  0.1955  0.0625
  866PEP     CB30954  23.069   3.533  25.181  0.0636 -0.3123 -0.0061
  866PEP     CB30955  23.375   3.796  24.873  0.5516 -0.3326  0.0632
  866PEP     CB30956  23.816   4.068  24.862  0.2915 -0.1315  0.3570
  866PEP     CB30957  24.281   4.004  24.771 -0.1309  0.2164 -0.1530
  866PEP     CB30958  24.705   4.157  24.739 -0.0258  0.2063  0.0962
  866PEP     CB30959  25.083   3.855  24.683 -0.2403  0.0834  0.0533
  866PEP     CB30960  24.997   3.380  24.599 -0.0537 -0.1882  0.3448
  867PEP     CB30961  18.375  13.766  12.995 -0.1818 -0.0226 -0.0849
  867PEP     CB30962  18.202  14.109  13.144 -0.2788 -0.0607 -0.2819
  867PEP     CB30963  17.916  14.186  13.559  0.3061 -0.1094  0.0250
  867PEP     CB30964  17.426  14.143  13.535  0.0421 -0.0774 -0.1623
  867PEP     CB30965  17.212  13.794  13.478  0.0332  0.3318  0.3511
  867PEP     CB30966  17.370  13.355  13.346  0.1699 -0.1893 -0.0209
  867PEP     CB30967  17.710  13.113  13.466 -0.1440  0.0451  0.1923
  867PEP     CB30968  18.116  13.395  13.395 -0.4254  0.0396 -0.1390
  867PEP     CB30969  18.263  13.791  13.614  0.0718 -0.0058  0.3519
  867PEP     CB30970  18.118  13.893  14.089 -0.2269 -0.1307  0.6814
  867PEP     CB30971  17.806  13.853  14.347 -0.3610 -0.1896  0.1686
  867PEP     CB30972  17.624  13.586  14.624 -0.0382  0.4430 -0.0814
  867PEP     CB30973  17.272  13.526  14.888  0.0341 -0.3795  0.0764
  867PEP     CB30974  17.012  13.437  15.336  0.0495  0.0032 -0.4186
  867PEP     CB30975  16.898  13.076  15.639 -0.3158 -0.4461  0.1012
  867PEP     CB30976  16.938  12.677  15.564  0.2365  0.3296  0.1542
  867PEP     CB30977  17.111  12.481  15.158  0.1970  0.0135  0.1114
  867PEP     CB30978  17.355  12.049  15.014 -0.2132  0.5133 -0.1766
  867PEP     CB30979  17.516  11.747  15.206 -0.0449  0.0026 -0.3974
  867PEP     CB30980  17.569  11.688  15.650  0.1801 -0.0311 -0.1938
  867PEP     CB30981  17.881  11.793  15.975 -0.0298  0.1417 -0.0877
  867PEP     CB30982  18.069  12.086  16.248  0.3413 -0.1747  0.0379
  867PEP     CB30983  18.215  12.520  16.385 -0.0998  0.1710  0.0579
  867PEP     CB30984  17.983  12.939  16.549 -0.0892 -0.1335  0.0996
  867PEP     CB30985  17.830  13.263  16.800  0.1665 -0.7946 -0.5808
  867PEP     CB30986  17.585  13.397  17.110  0.4108  0.0632 -0.1280
  867PEP     CB30987  17.526  13.858  17.212 -0.3457 -0.1462 -0.1586
  867PEP     CB30988  17.282  14.242  17.074 -0.1037 -0.1140  0.0291
  867PEP     CB30989  16.909  14.393  17.252  0.2003  0.3244  0.4690
  867PEP     CB30990  16.834  14.516  17.559 -0.0683  0.3164 -0.2405
  867PEP     CB30991  16.878  14.689  17.955 -0.1684  0.1815  0.0981
  867PEP     CB30992  16.688  14.447  18.246  0.0690 -0.0998 -0.0612
  867PEP     CB30993  16.500  13.995  17.997 -0.1059  0.2028  0.0737
  867PEP     CB30994  16.703  13.839  17.594  0.0347  0.1670  0.0151
  867PEP     CB30995  17.173  13.883  17.524  0.1171 -0.0609 -0.1772
  867PEP     CB30996  17.605  13.872  17.726 -0.2222 -0.2218 -0.0281
  867PEP     CB30997  17.970  13.662  17.767 -0.0130  0.0340  0.2141
  867PEP     CB30998  18.338  13.479  17.672 -0.1251  0.1175 -0.0925
  867PEP     CB30999  18.728  13.292  17.417 -0.0065 -0.0329 -0.3429
  867PEP     CB31000  18.813  13.246  16.928  0.0867 -0.1207  0.3464
  868PEP     CB31001  21.903   9.980   6.445  0.1563  0.0483  0.5262
  868PEP     CB31002  21.593   9.743   6.628  0.0025 -0.1668  0.0819
  868PEP     CB31003  21.552   9.347   6.819 -0.0353 -0.1628 -0.4248
  868PEP     CB31004  21.487   9.119   7.188 -0.1087 -0.2341 -0.4591
  868PEP     CB31005  21.233   9.101   7.629  0.2058 -0.0789 -0.0827
  868PEP     CB31006  21.099   9.337   7.995  0.2709  0.2457  0.1094
  868PEP     CB31007  20.893   9.252   8.366 -0.0761 -0.1867 -0.3336
  868PEP     CB31008  20.622   9.215   8.659  0.0302 -0.0565 -0.1604
  868PEP     CB31009  20.171   9.055   8.739 -0.3660  0.2493  0.3905
  868PEP     CB31010  19.830   8.905   8.497  0.1580  0.0574  0.0713
  868PEP     CB31011  19.545   8.604   8.685 -0.1802 -0.3288 -0.5104
  868PEP     CB31012  19.507   8.215   8.934 -0.1861  0.2031  0.1573
  868PEP     CB31013  19.831   8.019   9.142 -0.2553 -0.1304 -0.0608
  868PEP     CB31014  20.251   8.068   9.320 -0.1322 -0.3362 -0.3435
  868PEP     CB31015  20.653   7.973   9.386 -0.0088 -0.1657 -0.1052
  868PEP     CB31016  21.004   7.620   9.419  0.0576 -0.0786 -0.0601
  868PEP     CB31017  21.153   7.215   9.198 -0.2073  0.1476 -0.4011
  868PEP     CB31018  21.245   7.160   8.854  0.2427  0.2827  0.4077
  868PEP     CB31019  21.221   6.882   8.439 -0.2703  0.2279 -0.1625
  868PEP     CB31020  20.912   6.841   8.137  0.3864 -0.0311  0.3533
  868PEP     CB31021  20.850   6.908   7.721  0.0847 -0.1863  0.4728
  868PEP     CB31022  20.918   6.899   7.278  0.0344 -0.0657  0.0067
  868PEP     CB31023  20.991   7.033   6.818 -0.3113  0.0407  0.0392
  868PEP     CB31024  21.256   7.306   6.589  0.2559 -0.0061  0.3508
  868PEP     CB31025  21.384   7.669   6.273 -0.0872 -0.0473  0.2669
  868PEP     CB31026  21.748   7.871   6.092  0.3717 -0.2230 -0.3514
  868PEP     CB31027  22.082   7.924   5.837 -0.1539 -0.1682 -0.1311
  868PEP     CB31028  22.418   8.110   5.742  0.2881  0.0441  0.0070
  868PEP     CB31029  22.584   8.356   5.535  0.2960  0.2078  0.1427
  868PEP     CB31030  22.790   8.715   5.603 -0.0070  0.0674  0.1096
  868PEP     CB31031  22.794   9.070   5.936 -0.1492 -0.0861 -0.0026
  868PEP     CB31032  22.633   9.034   6.322  0.0051  0.2762  0.1634
  868PEP     CB31033  22.226   9.026   6.399 -0.1448  0.0553  0.2387
  868PEP     CB31034  21.945   8.692   6.213 -0.0116  0.0122  0.2409
  868PEP     CB31035  21.930   8.546   5.731 -0.0944  0.0307  0.0506
  868PEP     CB31036  22.130   8.585   5.331 -0.0582 -0.1655 -0.0907
  868PEP     CB31037  22.479   8.791   5.100 -0.3750  0.2302 -0.2431
  868PEP     CB31038  22.470   9.058   4.755  0.0908 -0.3911 -0.0922
  868PEP     CB31039  22.151   8.984   4.473  0.3223 -0.0191 -0.2372
  868PEP     CB31040  21.825   8.740   4.302 -0.3691 -0.0871 -0.2687
  869PEP     CB31041  19.906  11.376   8.163 -0.0462 -0.2413 -0.0277
  869PEP     CB31042  20.301  11.568   8.220 -0.1236  0.2976 -0.1187
  869PEP     CB31043  20.693  11.627   8.105  0.4397  0.2135  0.0319
  869PEP     CB31044  21.060  11.564   8.232 -0.4604 -0.0165  0.2775
  869PEP     CB31045  21.283  11.269   8.441 -0.2739 -0.1097  0.1119
  869PEP     CB31046  21.417  11.125   8.866  0.1962 -0.0848  0.4379
  869PEP     CB31047  21.460  10.748   9.149 -0.4670 -0.0903  0.1418
  869PEP     CB31048  21.161  10.588   9.357 -0.1449  0.3428 -0.1369
  869PEP     CB31049  20.827  10.680   9.109  0.0102 -0.1330 -0.2799
  869PEP     CB31050  20.984  10.781   8.651  0.2482 -0.1325  0.2993
  869PEP     CB31051  21.461  10.745   8.478 -0.1605  0.0071 -0.0258
  869PEP     CB31052  21.903  10.904   8.512 -0.4288  0.1295 -0.4297
  869PEP     CB31053  22.315  11.134   8.581  0.0791  0.1523 -0.1343
  869PEP     CB31054  22.694  11.469   8.646  0.6260 -0.1138 -0.0120
  869PEP     CB31055  23.116  11.871   8.745 -0.0986 -0.3938  0.1911
  869PEP     CB31056  23.513  11.956   8.871  0.0483  0.0958  0.0151
  869PEP     CB31057  23.855  11.879   8.699  0.2969  0.2069  0.1591
  869PEP     CB31058  24.047  11.916   8.285  0.1384 -0.0165  0.1329
  869PEP     CB31059  23.946  12.006   7.945  0.1140  0.1819  0.1454
  869PEP     CB31060  23.587  11.962   7.852  0.6846 -0.0303  0.0967
  869PEP     CB31061  23.195  12.099   8.042  0.3413 -0.2159 -0.1363
  869PEP     CB31062  22.826  12.138   8.394 -0.0947 -0.2398 -0.1704
  869PEP     CB31063  22.656  12.104   8.747  0.1537 -0.0003  0.0466
  869PEP     CB31064  22.680  11.854   9.019 -0.1410 -0.4928  0.2608
  869PEP     CB31065  22.442  11.456   9.107 -0.0311  0.2194 -0.0444
  869PEP     CB31066  22.662  11.114   9.025 -0.1127 -0.2271 -0.0806
  869PEP     CB31067  22.856  10.668   9.147 -0.0130  0.0013 -0.1837
  869PEP     CB31068  22.943  10.243   9.272 -0.0108 -0.0465 -0.1005
  869PEP     CB31069  22.928   9.834   9.516 -0.2976 -0.1339  0.0241
  869PEP     CB31070  23.037   9.569   9.964  0.0187 -0.0434  0.1682
  869PEP     CB31071  23.494   9.411  10.194  0.2321  0.6039  0.0514
  869PEP     CB31072  23.825   9.489  10.406  0.2023 -0.3015 -0.6885
  869PEP     CB31073  24.077   9.586  10.653 -0.3395  0.3493  0.0803
  869PEP     CB31074  24.365   9.848  10.926  0.3337  0.3468  0.2255
  869PEP     CB31075  24.680  10.206  11.085  0.2436 -0.0665 -0.4781
  869PEP     CB31076  24.754  10.653  11.213  0.0687 -0.1101 -0.0896
  869PEP     CB31077  24.500  10.921  11.511 -0.0607  0.1052 -0.0375
  869PEP     CB31078  24.333  10.770  11.880 -0.1368  0.0477 -0.1463
  869PEP     CB31079  24.203  10.437  12.006 -0.1147  0.0672 -0.0844
  869PEP     CB31080  24.026  10.058  12.096 -0.0362  0.1462 -0.1186
  870PEP     CB31081  12.179  19.835  13.724  0.2706  0.0275  0.0171
  870PEP     CB31082  12.493  20.053  13.761  0.0622 -0.0694 -0.2221
  870PEP     CB31083  12.839  20.334  13.754  0.2003  0.4493  0.0574
  870PEP     CB31084  13.071  20.473  13.596  0.2169  0.3130 -0.0110
  870PEP     CB31085  13.536  20.638  13.617 -0.2406  0.3820  0.2839
  870PEP     CB31086  13.883  20.999  13.744  0.0131  0.3701  0.1202
  870PEP     CB31087  14.228  21.265  13.702  0.2558  0.1831 -0.3167
  870PEP     CB31088  14.481  21.552  13.483 -0.1208 -0.1896  0.0187
  870PEP     CB31089  14.858  21.701  13.594 -0.3855 -0.6815 -0.5173
  870PEP     CB31090  15.069  21.962  13.898 -0.1038  0.4028  0.2792
  870PEP     CB31091  15.017  21.953  14.371 -0.2260  0.1783  0.0956
  870PEP     CB31092  14.651  22.105  14.604 -0.0398 -0.1265 -0.0893
  870PEP     CB31093  14.451  22.394  14.832 -0.3722 -0.2228 -0.1038
  870PEP     CB31094  14.333  22.880  14.907 -0.2963 -0.2224  0.1102
  870PEP     CB31095  14.122  23.258  14.889  0.1192  0.4703 -0.0889
  870PEP     CB31096  13.920  23.594  14.999  0.0752  0.0730 -0.0234
  870PEP     CB31097  13.809  24.029  15.103  0.1918  0.0922  0.0500
  870PEP     CB31098  14.109  24.423  15.062  0.0193 -0.1043  0.3400
  870PEP     CB31099  14.522  24.685  15.125  0.3369  0.2359  0.0948
  870PEP     CB31100  14.730  24.835  15.478  0.0254 -0.3731 -0.0801
  870PEP     CB31101  15.146  25.080  15.778  0.2924 -0.1060 -0.2936
  870PEP     CB31102  15.350  25.413  15.601  0.1884 -0.0334 -0.1938
  870PEP     CB31103  15.383  25.824  15.432  0.2580  0.0346  0.1395
  870PEP     CB31104  15.429  26.260  15.359 -0.2183 -0.2098  0.3891
  870PEP     CB31105  15.491  26.616  15.106  0.1429  0.2736  0.2439
  870PEP     CB31106  15.688  27.052  14.969  0.0453  0.2482 -0.2287
  870PEP     CB31107  15.854  27.432  14.888  0.1894  0.1354  0.1598
  870PEP     CB31108  15.998  27.800  14.895  0.0374 -0.1179 -0.2668
  870PEP     CB31109  16.205  28.112  14.894 -0.0316 -0.2015  0.1002
  870PEP     CB31110  16.652  28.244  14.965 -0.1693 -0.0627 -0.4502
  870PEP     CB31111  17.066  28.203  14.749 -0.1397  0.1729 -0.2248
  870PEP     CB31112  17.248  28.015  14.376  0.0462  0.1536 -0.0716
  870PEP     CB31113  17.390  27.743  14.178 -0.1998  0.0887 -0.0971
  870PEP     CB31114  17.471  27.498  13.811  0.0844 -0.2082 -0.2683
  870PEP     CB31115  17.396  26.998  13.725  0.1148  0.3484  0.1489
  870PEP     CB31116  17.429  26.750  14.029 -0.3061 -0.5953 -0.0064
  870PEP     CB31117  17.571  26.833  14.365 -0.3008  0.1151 -0.0261
  870PEP     CB31118  17.886  26.798  14.687 -0.0940  0.0304  0.1174
  870PEP     CB31119  18.104  26.653  15.035 -0.3159 -0.0928  0.3777
  870PEP     CB31120  18.094  26.256  15.249  0.0698 -0.2927  0.1852
  871PEP     CB31121  14.381  20.054   0.273  0.0075 -0.5428 -0.0817
  871PEP     CB31122  14.517  20.450   0.046  0.0645  0.4964 -0.2642
  871PEP     CB31123  14.585  20.853  -0.220  0.2696  0.1626  0.1734
  871PEP     CB31124  14.771  21.222  -0.455  0.3384 -0.0603 -0.1304
  871PEP     CB31125  15.131  21.436  -0.767  0.2054  0.0205 -0.0943
  871PEP     CB31126  15.474  21.727  -1.022 -0.0580 -0.0308  0.1846
  871PEP     CB31127  15.386  21.957  -1.440  0.0409  0.0220  0.4013
  871PEP     CB31128  15.129  21.907  -1.863  0.0730 -0.1372 -0.5486
  871PEP     CB31129  14.794  21.629  -2.094 -0.1417 -0.1771 -0.0738
  871PEP     CB31130  14.480  21.923  -2.302 -0.3389  0.1564 -0.1168
  871PEP     CB31131  14.229  22.196  -2.456 -0.4009  0.0364  0.5016
  871PEP     CB31132  14.227  22.565  -2.749 -0.2558 -0.0982  0.2578
  871PEP     CB31133  14.238  22.919  -3.108  0.1392  0.3450  0.1728
  871PEP     CB31134  14.410  23.114  -3.496  0.0692 -0.0747 -0.2235
  871PEP     CB31135  14.340  23.065  -3.932  0.1088  0.3382 -0.1498
  871PEP     CB31136  14.345  22.880  -4.364  0.0768  0.0290 -0.0196
  871PEP     CB31137  14.291  22.948  -4.833 -0.0602  0.1374 -0.1980
  871PEP     CB31138  14.166  22.872  -5.317  0.0101 -0.0699  0.0385
  871PEP     CB31139  14.028  23.120  -5.601  0.0510  0.1612  0.1404
  871PEP     CB31140  14.124  23.510  -5.777 -0.3561  0.0378 -0.0999
  871PEP     CB31141  14.349  23.834  -5.619  0.2823  0.6065  0.0853
  871PEP     CB31142  14.848  23.692  -5.426  0.0647  0.0814 -0.2866
  871PEP     CB31143  15.026  23.469  -5.070  0.0777 -0.1419  0.0265
  871PEP     CB31144  15.188  23.518  -4.691  0.1869 -0.3847 -0.0039
  871PEP     CB31145  15.258  23.528  -4.309  0.2591 -0.1055 -0.0123
  871PEP     CB31146  15.420  23.704  -3.924 -0.2694  0.3255  0.1973
  871PEP     CB31147  15.464  23.961  -3.469 -0.1074  0.1728  0.1952
  871PEP     CB31148  15.629  24.104  -3.112 -0.0007  0.0738  0.0886
  871PEP     CB31149  15.923  24.161  -2.861  0.2612 -0.1434 -0.3547
  871PEP     CB31150  16.048  24.275  -2.473 -0.1721 -0.1426  0.0619
  871PEP     CB31151  16.342  24.487  -2.214 -0.0292 -0.1779  0.2079
  871PEP     CB31152  16.566  24.930  -2.130 -0.0822  0.1349  0.1160
  871PEP     CB31153  16.532  25.374  -2.310 -0.0442 -0.1378 -0.0266
  871PEP     CB31154  16.216  25.709  -2.369  0.0174  0.0749  0.2293
  871PEP     CB31155  16.104  25.983  -2.164 -0.4772 -0.2392 -0.0011
  871PEP     CB31156  15.744  26.266  -1.996  0.3149  0.1842  0.1371
  871PEP     CB31157  15.273  26.268  -2.038  0.4745 -0.3189  0.0463
  871PEP     CB31158  15.043  25.915  -2.340  0.1948 -0.1588 -0.1421
  871PEP     CB31159  15.096  25.515  -2.182  0.3109 -0.2907  0.3033
  871PEP     CB31160  15.442  25.249  -1.952 -0.1741 -0.4321  0.4626
  872PEP     CB31161   2.668   8.686  14.370 -0.4080  0.1329  0.2231
  872PEP     CB31162   2.934   8.786  14.674  0.2410 -0.0437 -0.4297
  872PEP     CB31163   3.084   8.971  15.017  0.0420  0.1010  0.4879
  872PEP     CB31164   3.003   9.153  15.376  0.2318  0.0733  0.0318
  872PEP     CB31165   2.933   9.045  15.806 -0.0478  0.2379  0.0959
  872PEP     CB31166   3.060   8.626  15.947  0.4753  0.0132 -0.2280
  872PEP     CB31167   3.149   8.305  16.251  0.0608 -0.0073  0.4054
  872PEP     CB31168   3.453   8.099  16.586 -0.2309  0.2699  0.0535
  872PEP     CB31169   3.710   7.835  16.991  0.0763 -0.0973 -0.0790
  872PEP     CB31170   3.794   7.506  17.335  0.1031 -0.4491  0.3489
  872PEP     CB31171   3.952   7.504  17.737 -0.0483 -0.2992  0.3884
  872PEP     CB31172   4.121   7.704  18.005 -0.0757 -0.0858 -0.1614
  872PEP     CB31173   4.350   8.084  18.091 -0.2670 -0.0053 -0.3675
  872PEP     CB31174   4.683   8.328  17.970  0.0053 -0.0857  0.0708
  872PEP     CB31175   4.966   8.565  18.262  0.3181  0.3267  0.0180
  872PEP     CB31176   5.140   8.680  18.621  0.1790  0.0010 -0.2263
  872PEP     CB31177   5.356   8.676  18.977 -0.0759  0.2868 -0.2735
  872PEP     CB31178   5.533   8.424  19.300  0.0584 -0.1256  0.1477
  872PEP     CB31179   5.675   8.602  19.658  0.4529 -0.0118 -0.1895
  872PEP     CB31180   5.985   8.870  19.791 -0.1042  0.1438 -0.0502
  872PEP     CB31181   6.077   9.274  20.020  0.2138 -0.1337 -0.1071
  872PEP     CB31182   5.842   9.409  20.295 -0.1423 -0.0074  0.3331
  872PEP     CB31183   5.654   9.624  20.636 -0.0226  0.3521 -0.1395
  872PEP     CB31184   5.358   9.945  20.683  0.2273  0.1572  0.3417
  872PEP     CB31185   4.935  10.010  20.770 -0.5644  0.0418 -0.3733
  872PEP     CB31186   4.555   9.746  20.615 -0.2702  0.0336  0.3406
  872PEP     CB31187   4.294   9.318  20.656 -0.2133  0.4735 -0.2206
  872PEP     CB31188   4.147   8.891  20.639  0.0696 -0.0051 -0.0125
  872PEP     CB31189   4.145   8.540  20.340 -0.3675 -0.0030  0.3780
  872PEP     CB31190   3.930   8.297  20.379  0.2689  0.0896  0.1015
  872PEP     CB31191   3.592   8.155  20.498  0.1166 -0.3203  0.2025
  872PEP     CB31192   3.292   7.888  20.384  0.5435  0.2362  0.1754
  872PEP     CB31193   3.296   7.575  20.152  0.5023 -0.3321  0.0515
  872PEP     CB31194   3.268   7.077  20.119 -0.0715 -0.2675 -0.4413
  872PEP     CB31195   3.358   6.715  19.931  0.0296 -0.0416 -0.0986
  872PEP     CB31196   3.378   6.491  19.556  0.2868 -0.0907  0.4245
  872PEP     CB31197   3.747   6.476  19.278  0.4414 -0.1828 -0.3275
  872PEP     CB31198   4.019   6.690  19.037  0.1213  0.4528  0.4689
  872PEP     CB31199   4.281   6.605  18.662  0.0103 -0.3720  0.2009
  872PEP     CB31200   4.416   6.502  18.244  0.0823 -0.2761 -0.1046
  873PEP     CB31201  15.059   9.045  17.172  0.3308  0.0133 -0.0581
  873PEP     CB31202  14.615   9.177  17.088  0.2256  0.1031  0.2086
  873PEP     CB31203  14.188   9.427  17.200  0.0804 -0.0485 -0.3443
  873PEP     CB31204  14.030   9.910  17.210  0.0649 -0.0730  0.1738
  873PEP     CB31205  14.339  10.273  17.042  0.3436 -0.1247 -0.2365
  873PEP     CB31206  14.726  10.436  17.236  0.0710 -0.1525  0.0834
  873PEP     CB31207  14.942  10.384  17.674  0.4352  0.1062  0.2526
  873PEP     CB31208  14.966  10.479  18.047  0.3119  0.2989  0.1051
  873PEP     CB31209  14.878  10.815  18.350  0.0163 -0.4727 -0.1026
  873PEP     CB31210  14.758  11.098  18.606 -0.1482 -0.1104 -0.1768
  873PEP     CB31211  14.667  11.340  18.949 -0.0291 -0.2229 -0.2604
  873PEP     CB31212  14.906  11.690  19.143 -0.1526  0.3063  0.0238
  873PEP     CB31213  14.943  12.108  19.337 -0.1273  0.3831 -0.2540
  873PEP     CB31214  15.187  12.540  19.269  0.2689  0.0582 -0.2754
  873PEP     CB31215  15.479  12.734  19.511  0.0921  0.1597 -0.3024
  873PEP     CB31216  15.486  12.636  19.965 -0.3297  0.5272  0.1450
  873PEP     CB31217  15.263  12.589  20.352  0.0250 -0.0473  0.3567
  873PEP     CB31218  14.909  12.359  20.464 -0.0026 -0.0430  0.1460
  873PEP     CB31219  14.610  12.018  20.480 -0.0940 -0.2571  0.0838
  873PEP     CB31220  14.442  11.543  20.606  0.2435  0.1216 -0.0311
  873PEP     CB31221  14.628  11.200  20.632  0.0659 -0.2612 -0.0515
  873PEP     CB31222  15.089  11.255  20.740  0.2174 -0.2253  0.2288
  873PEP     CB31223  15.228  11.683  20.898  0.1409  0.3134  0.3464
  873PEP     CB31224  15.176  12.093  20.755 -0.0757 -0.0431  0.3172
  873PEP     CB31225  15.338  12.522  20.864  0.0662  0.0231  0.3137
  873PEP     CB31226  15.494  12.829  21.135  0.0541 -0.0886 -0.3225
  873PEP     CB31227  15.936  12.914  21.283 -0.0723 -0.5008  0.1160
  873PEP     CB31228  16.317  13.098  21.077  0.4257  0.0534  0.1025
  873PEP     CB31229  16.539  13.165  20.620 -0.3004  0.0573 -0.1418
  873PEP     CB31230  16.893  12.890  20.398 -0.2039 -0.0701 -0.0420
  873PEP     CB31231  17.188  12.782  20.072  0.0048  0.2696  0.1528
  873PEP     CB31232  17.594  12.678  20.133  0.1527  0.0583  0.3484
  873PEP     CB31233  17.663  12.325  20.294  0.1574 -0.2633 -0.0735
  873PEP     CB31234  17.354  12.080  20.712  0.0456 -0.1029 -0.1806
  873PEP     CB31235  17.031  12.239  20.930  0.0140 -0.3034 -0.1011
  873PEP     CB31236  16.932  12.611  20.847  0.0698  0.0023 -0.2849
  873PEP     CB31237  17.014  13.053  20.874  0.0359 -0.0341 -0.3614
  873PEP     CB31238  16.717  13.395  21.036  0.4678  0.0081 -0.2707
  873PEP     CB31239  16.370  13.642  20.899 -0.0686  0.0807  0.0989
  873PEP     CB31240  16.182  13.988  20.599  0.1450  0.0893 -0.1353
  874PEP     CB31241   1.698   4.472  10.268  0.2566 -0.0080  0.0477
  874PEP     CB31242   1.389   4.318  10.565 -0.0764  0.0354  0.3390
  874PEP     CB31243   0.972   4.440  10.644 -0.1587  0.0694 -0.3046
  874PEP     CB31244   0.584   4.488  10.396  0.0101 -0.1537  0.1715
  874PEP     CB31245   0.602   4.582   9.973  0.0242  0.3143 -0.0599
  874PEP     CB31246   0.807   4.290   9.696  0.3100  0.0252 -0.0052
  874PEP     CB31247   1.119   3.992   9.515 -0.0499  0.0330 -0.2556
  874PEP     CB31248   1.586   3.915   9.510  0.1735  0.2349  0.0795
  874PEP     CB31249   1.892   4.000   9.257 -0.0042 -0.0629  0.7343
  874PEP     CB31250   1.893   4.170   8.859  0.3813 -0.0144 -0.0627
  874PEP     CB31251   1.725   4.552   8.801 -0.0107  0.4370 -0.1534
  874PEP     CB31252   1.383   4.694   8.850  0.0701 -0.0600  0.4053
  874PEP     CB31253   0.968   4.676   8.768 -0.2283  0.2512  0.2752
  874PEP     CB31254   0.802   4.371   8.637  0.3246  0.4280  0.1787
  874PEP     CB31255   0.809   4.175   8.248  0.3046 -0.1963  0.0421
  874PEP     CB31256   1.116   4.108   7.870  0.0016 -0.1257  0.3608
  874PEP     CB31257   1.409   4.028   7.518 -0.2845  0.3497 -0.3259
  874PEP     CB31258   1.385   3.884   7.113  0.1285  0.0056 -0.1620
  874PEP     CB31259   1.261   3.611   6.759 -0.0706 -0.1300  0.4157
  874PEP     CB31260   0.920   3.318   6.799  0.2387  0.2568  0.1943
  874PEP     CB31261   0.567   3.327   6.760  0.1533 -0.0051  0.0533
  874PEP     CB31262   0.204   3.630   6.807  0.1038 -0.2663 -0.0463
  874PEP     CB31263   0.123   3.776   7.197 -0.3402 -0.2609  0.3464
  874PEP     CB31264   0.163   3.566   7.595 -0.2234 -0.3119  0.1587
  874PEP     CB31265   0.474   3.341   7.886 -0.0629  0.4899  0.0644
  874PEP     CB31266   0.919   3.282   8.028 -0.1956 -0.1373 -0.0530
  874PEP     CB31267   1.300   3.373   7.931 -0.1194 -0.2461  0.0105
  874PEP     CB31268   1.713   3.176   7.925 -0.0428  0.0924  0.1297
  874PEP     CB31269   2.136   3.160   7.864  0.0114  0.0642  0.1198
  874PEP     CB31270   2.494   3.280   7.564  0.1516 -0.0372  0.2164
  874PEP     CB31271   2.710   3.359   7.108 -0.0421 -0.2017  0.0626
  874PEP     CB31272   2.998   3.356   6.911 -0.0118  0.2701 -0.1675
  874PEP     CB31273   3.358   3.482   6.695 -0.2796 -0.0378 -0.1638
  874PEP     CB31274   3.628   3.612   6.295 -0.3397  0.2818  0.1071
  874PEP     CB31275   3.414   3.667   5.916 -0.3159  0.1622  0.5532
  874PEP     CB31276   3.040   3.788   5.925  0.3198  0.0740 -0.0302
  874PEP     CB31277   2.666   4.078   6.067  0.3990  0.0730 -0.3763
  874PEP     CB31278   2.381   4.251   6.409 -0.0162  0.2782 -0.0170
  874PEP     CB31279   2.369   4.672   6.517  0.0421 -0.1536 -0.2838
  874PEP     CB31280   2.610   5.052   6.336 -0.2002  0.1192 -0.0438
  875PEP     CB31281  19.603   1.715   6.389 -0.1335 -0.3029 -0.1124
  875PEP     CB31282  19.549   1.736   6.857  0.0411  0.1738 -0.1857
  875PEP     CB31283  19.597   1.714   7.289 -0.2766  0.1751 -0.0728
  875PEP     CB31284  19.579   1.676   7.785 -0.1307 -0.1079 -0.0336
  875PEP     CB31285  19.269   1.802   8.135 -0.1226 -0.1649  0.2882
  875PEP     CB31286  19.112   2.104   8.447 -0.2760  0.4213 -0.1279
  875PEP     CB31287  18.771   2.325   8.734  0.0930 -0.7983  0.2411
  875PEP     CB31288  18.362   2.177   8.766  0.2356 -0.1901 -0.0311
  875PEP     CB31289  18.126   1.903   8.775  0.3219  0.1068 -0.2471
  875PEP     CB31290  18.054   1.552   8.971  0.1519 -0.1003  0.0071
  875PEP     CB31291  18.371   1.387   9.335  0.0542 -0.2036 -0.1648
  875PEP     CB31292  18.674   1.678   9.474  0.0084 -0.1339 -0.2064
  875PEP     CB31293  18.735   2.040   9.585  0.2699 -0.1220 -0.0709
  875PEP     CB31294  18.925   2.116  10.045 -0.1818 -0.0292 -0.3094
  875PEP     CB31295  18.975   1.861  10.431 -0.2277  0.1650 -0.1581
  875PEP     CB31296  18.925   1.460  10.757  0.0745 -0.1050 -0.1787
  875PEP     CB31297  18.984   1.101  11.071 -0.0912 -0.1381  0.2922
  875PEP     CB31298  18.772   0.791  11.205 -0.0553  0.1487  0.0815
  875PEP     CB31299  18.575   0.497  10.951  0.2314 -0.2916 -0.0281
  875PEP     CB31300  18.747   0.322  10.522 -0.3387 -0.3505 -0.3605
  875PEP     CB31301  18.785   0.627  10.250 -0.5042 -0.2638 -0.1427
  875PEP     CB31302  18.507   0.929   9.971 -0.2883  0.0889 -0.0916
  875PEP     CB31303  18.267   0.894   9.647  0.1673 -0.1583 -0.3917
  875PEP     CB31304  18.140   0.477   9.450 -0.4651 -0.4983 -0.0311
  875PEP     CB31305  18.313   0.085   9.571 -0.0162 -0.0559  0.0795
  875PEP     CB31306  18.250  -0.023   9.923 -0.2647  0.1189 -0.0502
  875PEP     CB31307  17.908  -0.037  10.218 -0.0227  0.0329 -0.0823
  875PEP     CB31308  17.518   0.155  10.432  0.1481 -0.2525  0.0739
  875PEP     CB31309  17.201   0.530  10.416 -0.0213  0.2640 -0.0170
  875PEP     CB31310  17.149   0.906  10.606 -0.1215 -0.3283  0.4025
  875PEP     CB31311  17.280   0.895  11.048 -0.1693 -0.2303 -0.1229
  875PEP     CB31312  17.292   0.536  11.274  0.0683  0.3409 -0.0776
  875PEP     CB31313  17.303   0.000  11.328 -0.1594 -0.1292  0.1764
  875PEP     CB31314  17.492  -0.452  11.609  0.2560  0.1346  0.0348
  875PEP     CB31315  17.635  -0.787  11.891  0.0457 -0.2119 -0.0610
  875PEP     CB31316  17.960  -1.103  12.107 -0.3909  0.0101  0.2137
  875PEP     CB31317  18.054  -1.435  11.884  0.5224  0.2440  0.2170
  875PEP     CB31318  18.116  -1.715  11.510  0.0155 -0.1731  0.1231
  875PEP     CB31319  17.938  -2.179  11.299 -0.3226 -0.0209  0.0452
  875PEP     CB31320  17.758  -2.442  10.914 -0.0598  0.2368 -0.3911
  876PEP     CB31321   9.010   2.792   6.686 -0.1884 -0.0430 -0.0320
  876PEP     CB31322   8.871   2.796   6.230  0.1894  0.0753  0.0833
  876PEP     CB31323   8.706   2.802   5.907  0.3680  0.0451 -0.0425
  876PEP     CB31324   8.407   2.726   5.632  0.0770 -0.0535 -0.0083
  876PEP     CB31325   8.000   2.658   5.406 -0.0368  0.2998  0.3330
  876PEP     CB31326   7.653   2.548   5.289 -0.1589  0.2228  0.2539
  876PEP     CB31327   7.413   2.588   4.945  0.4528  0.0583  0.0677
  876PEP     CB31328   7.058   2.828   4.876 -0.1973 -0.0477  0.1243
  876PEP     CB31329   6.574   2.844   5.004 -0.0069  0.2172 -0.3448
  876PEP     CB31330   6.194   2.749   4.875  0.1216  0.0096  0.0401
  876PEP     CB31331   5.735   2.726   4.984 -0.2502 -0.0956  0.1257
  876PEP     CB31332   5.451   2.645   5.284  0.4372 -0.1936  0.1148
  876PEP     CB31333   4.997   2.713   5.421 -0.5418 -0.0607  0.0166
  876PEP     CB31334   4.569   2.890   5.371  0.3967  0.0395  0.1243
  876PEP     CB31335   4.188   3.148   5.331  0.0423  0.0299  0.1630
  876PEP     CB31336   3.839   3.363   5.194 -0.0151  0.1937  0.3255
  876PEP     CB31337   3.535   3.628   5.338 -0.2346 -0.3728  0.1500
  876PEP     CB31338   3.065   3.700   5.347  0.1022 -0.2138 -0.1256
  876PEP     CB31339   2.634   3.457   5.328  0.2838  0.0851 -0.2432
  876PEP     CB31340   2.417   3.106   5.115  0.0158 -0.0781 -0.1454
  876PEP     CB31341   2.265   2.816   4.775  0.2730 -0.0319 -0.1653
  876PEP     CB31342   2.324   2.628   4.389  0.1738 -0.1045 -0.0672
  876PEP     CB31343   2.465   2.254   4.186  0.2075 -0.3917  0.3127
  876PEP     CB31344   2.761   1.940   4.144  0.0610  0.3526 -0.0618
  876PEP     CB31345   3.108   1.900   3.954 -0.0161  0.0820  0.0619
  876PEP     CB31346   3.458   2.126   3.696  0.2846 -0.0903  0.3642
  876PEP     CB31347   3.334   2.515   3.663  0.2802 -0.5098  0.2829
  876PEP     CB31348   3.093   2.829   3.590  0.1102  0.0905  0.0570
  876PEP     CB31349   2.752   3.210   3.532  0.1865  0.0096 -0.0278
  876PEP     CB31350   2.581   3.579   3.502 -0.5149 -0.4046 -0.0566
  876PEP     CB31351   2.364   3.976   3.687  0.1032  0.1532 -0.0710
  876PEP     CB31352   2.144   4.316   3.629  0.1163 -0.0620  0.1092
  876PEP     CB31353   2.166   4.741   3.442 -0.1531 -0.2902 -0.2226
  876PEP     CB31354   2.416   5.045   3.248  0.1674  0.0655  0.1189
  876PEP     CB31355   2.651   5.418   3.228  0.2632  0.1411  0.2033
  876PEP     CB31356   2.793   5.785   3.122 -0.2127 -0.1822 -0.1462
  876PEP     CB31357   2.890   6.182   2.948  0.0726  0.0502 -0.0616
  876PEP     CB31358   2.896   6.696   3.010  0.0838 -0.2745  0.1569
  876PEP     CB31359   2.622   6.975   3.187  0.1753 -0.0976 -0.5338
  876PEP     CB31360   2.434   7.151   3.579  0.1166 -0.2114  0.2149
  877PEP     CB31361  13.221   6.345   2.442  0.5244 -0.2024  0.0115
  877PEP     CB31362  13.305   6.002   2.065  0.0729 -0.2608  0.2838
  877PEP     CB31363  13.375   5.770   1.696  0.2935  0.2815 -0.1890
  877PEP     CB31364  13.597   5.862   1.235 -0.0688 -0.2411 -0.1771
  877PEP     CB31365  13.949   5.998   1.066  0.1488  0.2291  0.0428
  877PEP     CB31366  13.905   6.328   0.713 -0.2160 -0.0324  0.4316
  877PEP     CB31367  13.598   6.310   0.485 -0.1470 -0.2100  0.0962
  877PEP     CB31368  13.129   6.322   0.612  0.1231  0.2135  0.1355
  877PEP     CB31369  12.818   6.422   0.931 -0.2798  0.3635  0.0849
  877PEP     CB31370  12.407   6.366   1.090 -0.0202 -0.0164 -0.2856
  877PEP     CB31371  12.253   6.062   1.313  0.0799  0.1146  0.0675
  877PEP     CB31372  12.339   5.881   1.626  0.2943  0.4369 -0.3248
  877PEP     CB31373  12.186   5.991   2.086 -0.1581 -0.1500  0.2137
  877PEP     CB31374  11.986   5.802   2.394  0.0320 -0.3089  0.5382
  877PEP     CB31375  11.706   5.731   2.787 -0.3022  0.0203 -0.1191
  877PEP     CB31376  11.264   5.744   2.700  0.3804  0.4157 -0.1602
  877PEP     CB31377  11.237   5.748   2.229  0.1509  0.1558  0.0333
  877PEP     CB31378  11.519   5.522   1.960  0.0060  0.0838  0.4139
  877PEP     CB31379  11.953   5.449   2.052 -0.1783 -0.2261 -0.1193
  877PEP     CB31380  12.378   5.552   2.331  0.2165 -0.0981 -0.0579
  877PEP     CB31381  12.783   5.587   2.433  0.0530  0.2279 -0.2486
  877PEP     CB31382  13.270   5.649   2.553 -0.0740 -0.0425 -0.1118
  877PEP     CB31383  13.269   5.960   2.890 -0.0932 -0.3910  0.2906
  877PEP     CB31384  13.439   6.178   3.128  0.0027  0.0298 -0.0483
  877PEP     CB31385  13.441   6.609   3.231  0.3102 -0.2281 -0.2492
  877PEP     CB31386  13.499   7.015   3.462 -0.1739 -0.2285  0.2342
  877PEP     CB31387  13.747   7.418   3.416 -0.1082  0.2364  0.1186
  877PEP     CB31388  13.767   7.832   3.129 -0.0390 -0.1204 -0.3049
  877PEP     CB31389  13.393   8.046   2.989  0.0528 -0.1818 -0.2367
  877PEP     CB31390  12.924   7.998   3.023  0.6872  0.4824 -0.1494
  877PEP     CB31391  12.784   7.724   3.197  0.1045  0.1586  0.0345
  877PEP     CB31392  12.642   7.824   3.613 -0.3914 -0.3142 -0.3010
  877PEP     CB31393  12.602   8.218   3.825  0.2649 -0.2671  0.1916
  877PEP     CB31394  12.769   8.645   3.666  0.0041  0.1171  0.4666
  877PEP     CB31395  12.955   8.826   3.412  0.1438  0.2723  0.0995
  877PEP     CB31396  13.018   9.000   3.047  0.1949 -0.3559 -0.3571
  877PEP     CB31397  12.926   9.263   2.747  0.1355 -0.1584  0.0044
  877PEP     CB31398  12.593   9.308   2.454  0.0998  0.4002  0.0873
  877PEP     CB31399  12.212   9.372   2.257  0.3405 -0.1462 -0.2132
  877PEP     CB31400  11.933   9.665   2.048  0.3202  0.4994 -0.0294
  878PEP     CB31401  10.578   3.868   8.138  0.4928  0.2106 -0.1792
  878PEP     CB31402  10.763   3.718   8.491 -0.0703 -0.0276  0.7006
  878PEP     CB31403  10.917   3.678   8.932  0.1667 -0.3233 -0.4590
  878PEP     CB31404  11.245   3.568   9.232  0.2671  0.0523 -0.1125
  878PEP     CB31405  11.516   3.183   9.286  0.0191 -0.3071 -0.2489
  878PEP     CB31406  11.788   2.955   8.976  0.0983 -0.0088 -0.0994
  878PEP     CB31407  11.641   2.913   8.533 -0.1878 -0.0463 -0.2191
  878PEP     CB31408  11.273   2.919   8.188  0.1151  0.1208 -0.4152
  878PEP     CB31409  11.166   2.651   7.909 -0.1923 -0.3264  0.1008
  878PEP     CB31410  10.936   2.578   7.606 -0.1641  0.2931  0.0911
  878PEP     CB31411  10.780   2.542   7.195  0.1418  0.4324  0.1509
  878PEP     CB31412  10.885   2.667   6.767 -0.0273  0.0653  0.1687
  878PEP     CB31413  11.016   2.985   6.530 -0.0328 -0.3245 -0.2061
  878PEP     CB31414  11.112   3.471   6.658 -0.3918  0.3473  0.1355
  878PEP     CB31415  11.064   3.893   6.679  0.2365  0.2561  0.4381
  878PEP     CB31416  11.136   4.276   6.338 -0.1832  0.1196  0.0583
  878PEP     CB31417  11.411   4.599   6.185  0.2028 -0.3562 -0.0556
  878PEP     CB31418  11.753   4.713   6.266 -0.1397 -0.2535  0.0091
  878PEP     CB31419  12.098   4.680   6.655 -0.0459 -0.1620 -0.0371
  878PEP     CB31420  12.465   4.538   6.723 -0.2661 -0.0821  0.3111
  878PEP     CB31421  12.733   4.232   6.861 -0.4515  0.0388 -0.0321
  878PEP     CB31422  12.847   3.918   7.229 -0.2843  0.0216  0.4020
  878PEP     CB31423  12.915   4.066   7.620 -0.3556 -0.1649  0.0956
  878PEP     CB31424  13.389   4.257   7.861 -0.0885  0.2748  0.2657
  878PEP     CB31425  13.848   4.216   7.918 -0.1869  0.1388 -0.3095
  878PEP     CB31426  14.228   4.323   7.719 -0.2833 -0.2139 -0.4568
  878PEP     CB31427  14.440   4.723   7.502 -0.2049 -0.0723 -0.1054
  878PEP     CB31428  14.315   5.194   7.699  0.0851 -0.4126 -0.5842
  878PEP     CB31429  14.310   5.641   7.785  0.3282 -0.0841  0.1338
  878PEP     CB31430  14.102   6.009   7.836  0.3781 -0.2597  0.0178
  878PEP     CB31431  13.619   6.046   8.064 -0.2388 -0.0837  0.1983
  878PEP     CB31432  13.239   6.247   7.957  0.3962  0.2147  0.1122
  878PEP     CB31433  13.401   6.594   7.598  0.0055 -0.4773 -0.2421
  878PEP     CB31434  13.620   6.441   7.245 -0.2415  0.2748  0.1897
  878PEP     CB31435  13.863   6.010   7.327 -0.1391  0.1057 -0.1768
  878PEP     CB31436  13.744   5.735   7.687  0.0754  0.2662 -0.1158
  878PEP     CB31437  13.722   5.323   7.781  0.0331 -0.2715  0.0658
  878PEP     CB31438  13.655   5.087   8.246  0.3739  0.1704  0.3801
  878PEP     CB31439  13.598   4.909   8.652 -0.2244 -0.1055  0.0978
  878PEP     CB31440  13.542   4.498   8.830  0.0461 -0.3249  0.0743
  879PEP     CB31441  13.464   5.426   5.376 -0.2048  0.0038 -0.1672
  879PEP     CB31442  13.767   5.298   4.985 -0.0002 -0.1993  0.4433
  879PEP     CB31443  14.043   5.586   4.726  0.3316 -0.0455 -0.3408
  879PEP     CB31444  14.362   5.970   4.743  0.2510  0.3917  0.0052
  879PEP     CB31445  14.750   6.106   4.794  0.2079 -0.1872  0.0283
  879PEP     CB31446  15.101   6.461   4.804  0.1625 -0.1901  0.0735
  879PEP     CB31447  15.154   6.842   4.913  0.0393  0.1730  0.0227
  879PEP     CB31448  15.462   7.133   4.962  0.1359  0.0969  0.1238
  879PEP     CB31449  15.306   7.592   5.073 -0.1277 -0.0496 -0.2123
  879PEP     CB31450  15.384   8.088   5.051 -0.2042 -0.2633  0.1042
  879PEP     CB31451  15.422   8.503   4.897  0.0813  0.1689  0.3709
  879PEP     CB31452  15.701   8.824   4.989 -0.1644 -0.1570  0.1052
  879PEP     CB31453  15.886   8.919   5.321  0.3724  0.0885 -0.1121
  879PEP     CB31454  16.329   8.928   5.512  0.1193 -0.1557 -0.0938
  879PEP     CB31455  16.774   8.742   5.567  0.1853 -0.0970 -0.0348
  879PEP     CB31456  17.192   8.651   5.454  0.0515 -0.1293  0.1068
  879PEP     CB31457  17.435   8.493   5.146 -0.0521 -0.0665 -0.1667
  879PEP     CB31458  17.800   8.360   4.957 -0.2903  0.1087  0.4997
  879PEP     CB31459  17.974   7.932   4.869 -0.3311 -0.3254 -0.0515
  879PEP     CB31460  17.838   7.673   4.609 -0.1142  0.5395 -0.1364
  879PEP     CB31461  17.988   7.564   4.162 -0.0802  0.1116 -0.4031
  879PEP     CB31462  18.384   7.713   3.943 -0.1257  0.1049  0.0568
  879PEP     CB31463  18.811   7.921   3.970  0.1464  0.1648 -0.1267
  879PEP     CB31464  18.866   8.403   3.865  0.4364 -0.1052 -0.0683
  879PEP     CB31465  18.783   8.817   3.586  0.2738 -0.0681  0.0242
  879PEP     CB31466  18.722   9.178   3.274  0.3978  0.2618  0.0932
  879PEP     CB31467  18.453   9.245   2.875  0.2254  0.3314  0.0619
  879PEP     CB31468  18.036   9.290   2.788  0.0620  0.2974 -0.0503
  879PEP     CB31469  17.618   9.201   3.004 -0.0028 -0.1004 -0.0324
  879PEP     CB31470  17.656   9.104   3.481 -0.3123  0.2841  0.0381
  879PEP     CB31471  17.782   8.938   3.810  0.0193  0.4539 -0.0505
  879PEP     CB31472  17.837   8.508   3.910  0.5045  0.0361  0.3233
  879PEP     CB31473  17.951   8.178   3.702 -0.3200 -0.0770 -0.1451
  879PEP     CB31474  17.795   7.771   3.630 -0.5825  0.1385 -0.2069
  879PEP     CB31475  17.859   7.338   3.750 -0.3868  0.2535 -0.0557
  879PEP     CB31476  18.201   7.133   3.694  0.2647 -0.0339  0.2941
  879PEP     CB31477  18.464   7.089   3.329 -0.4276 -0.1854 -0.0623
  879PEP     CB31478  18.686   7.197   2.918 -0.0929 -0.0562 -0.2002
  879PEP     CB31479  18.860   7.123   2.483 -0.3661  0.3843  0.1956
  879PEP     CB31480  19.034   6.820   2.172  0.1487 -0.1095  0.3222
  880PEP     CB31481  11.439  18.506  16.508 -0.3978 -0.1049 -0.2808
  880PEP     CB31482  11.100  18.775  16.274  0.1552  0.0160 -0.0478
  880PEP     CB31483  10.723  18.742  16.066  0.0164 -0.1488 -0.2268
  880PEP     CB31484  10.437  18.925  15.866  0.1687 -0.1073  0.2329
  880PEP     CB31485  10.324  19.132  15.450 -0.0441  0.0014 -0.0220
  880PEP     CB31486  10.221  18.941  15.085  0.1499  0.2901  0.0586
  880PEP     CB31487  10.228  18.556  14.817 -0.0126 -0.3832  0.0157
  880PEP     CB31488  10.100  18.322  14.454 -0.0329 -0.2293 -0.3093
  880PEP     CB31489   9.912  18.502  14.072 -0.0183  0.1239 -0.0993
  880PEP     CB31490   9.582  18.700  13.912  0.0156 -0.0217 -0.1682
  880PEP     CB31491   9.123  18.712  14.068  0.0303  0.2523 -0.0790
  880PEP     CB31492   8.889  18.837  14.352 -0.1930 -0.0386  0.1489
  880PEP     CB31493   8.571  18.726  14.702  0.3977 -0.0581  0.0449
  880PEP     CB31494   8.513  18.261  14.864 -0.0845  0.2385 -0.0842
  880PEP     CB31495   8.936  17.986  14.804 -0.1425 -0.2653  0.0608
  880PEP     CB31496   9.338  17.918  14.669  0.0164  0.3590 -0.2803
  880PEP     CB31497   9.763  17.788  14.673  0.1826 -0.0303 -0.2433
  880PEP     CB31498  10.087  17.476  14.699 -0.0671  0.0559  0.0236
  880PEP     CB31499  10.432  17.140  14.799 -0.0972 -0.0918  0.0420
  880PEP     CB31500  10.557  16.722  14.910 -0.0815 -0.6873 -0.0978
  880PEP     CB31501  10.585  16.241  15.091  0.2391  0.0611  0.6979
  880PEP     CB31502  10.350  16.088  15.359 -0.4934 -0.1594  0.0526
  880PEP     CB31503  10.316  16.149  15.830 -0.1775  0.1394 -0.3384
  880PEP     CB31504  10.684  16.250  16.147 -0.3490 -0.0029 -0.2102
  880PEP     CB31505  11.037  16.431  16.209  0.1129 -0.3317 -0.1570
  880PEP     CB31506  11.148  16.820  16.265  0.4916  0.0284  0.0936
  880PEP     CB31507  11.474  17.122  16.138  0.0560  0.0126  0.1380
  880PEP     CB31508  11.758  17.127  15.754 -0.0096 -0.3128 -0.0360
  880PEP     CB31509  11.899  17.020  15.312  0.2241  0.2676  0.2760
  880PEP     CB31510  11.732  16.948  15.008 -0.2979  0.1014 -0.1630
  880PEP     CB31511  11.731  17.079  14.607  0.0280  0.2011  0.0053
  880PEP     CB31512  12.156  17.100  14.291  0.1995  0.1728 -0.2968
  880PEP     CB31513  12.376  17.401  14.065 -0.2186 -0.2837  0.0434
  880PEP     CB31514  12.201  17.709  13.910 -0.1199 -0.2463 -0.2735
  880PEP     CB31515  12.089  18.050  14.050  0.3873  0.0125 -0.1089
  880PEP     CB31516  11.982  18.286  14.502 -0.1734  0.2435  0.1274
  880PEP     CB31517  12.169  18.446  14.970 -0.0081 -0.2212  0.1548
  880PEP     CB31518  12.452  18.541  15.240  0.3117  0.0127  0.4020
  880PEP     CB31519  12.785  18.624  15.443  0.0921  0.2405  0.1062
  880PEP     CB31520  13.085  18.534  15.700 -0.2956 -0.0263 -0.1221
  881PEP     CB31521   9.070   4.236  10.603 -0.4751  0.1270  0.0096
  881PEP     CB31522   9.354   4.089  10.392  0.2215  0.0262 -0.0501
  881PEP     CB31523   9.624   4.098  10.011  0.1659 -0.6955  0.0920
  881PEP     CB31524   9.503   4.373   9.637 -0.1620  0.1833  0.1125
  881PEP     CB31525   9.164   4.533   9.552 -0.1352 -0.0440  0.0738
  881PEP     CB31526   8.675   4.603   9.797 -0.0485  0.1161  0.0224
  881PEP     CB31527   8.303   4.503  10.099 -0.1407 -0.4107 -0.0050
  881PEP     CB31528   8.089   4.136  10.318 -0.0173 -0.0048 -0.1962
  881PEP     CB31529   7.948   3.959  10.654  0.1646 -0.3372  0.1822
  881PEP     CB31530   7.869   3.809  10.966  0.0606 -0.0764 -0.1520
  881PEP     CB31531   7.811   3.666  11.417 -0.0981 -0.0498 -0.3870
  881PEP     CB31532   7.812   3.658  11.884  0.0283  0.0362  0.2696
  881PEP     CB31533   7.527   3.802  12.140 -0.2176 -0.1088  0.2642
  881PEP     CB31534   7.547   3.839  12.565  0.0268  0.1922  0.1693
  881PEP     CB31535   7.614   3.479  12.962  0.1381 -0.1127  0.1862
  881PEP     CB31536   7.809   3.065  13.126 -0.2246 -0.0492  0.0825
  881PEP     CB31537   7.790   2.683  12.841  0.0615  0.0838  0.0362
  881PEP     CB31538   7.419   2.618  12.614  0.0878 -0.0548 -0.1421
  881PEP     CB31539   7.131   2.976  12.548 -0.1880  0.3764  0.2358
  881PEP     CB31540   7.083   3.473  12.594  0.0586  0.3730  0.3309
  881PEP     CB31541   7.195   3.863  12.917 -0.4048 -0.1188  0.1902
  881PEP     CB31542   7.284   3.952  13.234 -0.2914  0.2735 -0.2466
  881PEP     CB31543   7.158   3.777  13.654 -0.4123  0.0785  0.4854
  881PEP     CB31544   7.405   3.567  14.031 -0.0226  0.7863 -0.2844
  881PEP     CB31545   7.866   3.437  14.049  0.0635  0.1763 -0.1925
  881PEP     CB31546   8.208   3.286  14.319  0.0598  0.2000 -0.1194
  881PEP     CB31547   8.574   3.063  14.415  0.4536 -0.3079  0.1767
  881PEP     CB31548   8.935   3.238  14.434  0.3172 -0.0405  0.0125
  881PEP     CB31549   9.115   3.394  14.035  0.1474  0.4704  0.1442
  881PEP     CB31550   9.242   3.011  13.804 -0.0148  0.2656 -0.0933
  881PEP     CB31551   9.094   2.676  13.543  0.2655 -0.2107  0.3815
  881PEP     CB31552   9.150   2.220  13.589 -0.3357  0.1850  0.2416
  881PEP     CB31553   9.405   1.880  13.805  0.0634  0.0443 -0.1764
  881PEP     CB31554   9.209   1.800  14.198 -0.1086  0.3924 -0.2115
  881PEP     CB31555   8.827   1.982  14.218  0.1448 -0.0746 -0.1495
  881PEP     CB31556   8.523   2.221  13.881  0.0305  0.1710 -0.3310
  881PEP     CB31557   8.671   2.482  13.463 -0.4270  0.0700  0.3069
  881PEP     CB31558   8.699   2.816  13.198 -0.0482  0.1090  0.1036
  881PEP     CB31559   8.957   3.048  12.902 -0.2923 -0.3914  0.2950
  881PEP     CB31560   9.099   3.326  12.567  0.2364  0.3584  0.4115
  882PEP     CB31561  11.453  17.869   1.644  0.2460 -0.2836 -0.0262
  882PEP     CB31562  11.013  17.910   1.422  0.2598  0.1033 -0.2207
  882PEP     CB31563  10.619  17.922   1.243  0.0029  0.4024 -0.1699
  882PEP     CB31564  10.267  18.242   1.147 -0.3226  0.1202  0.1423
  882PEP     CB31565  10.292  18.694   1.109 -0.3617 -0.1401 -0.0136
  882PEP     CB31566  10.314  19.149   1.106  0.1140  0.3138 -0.2683
  882PEP     CB31567  10.380  19.500   1.252  0.0236  0.0862  0.2768
  882PEP     CB31568  10.477  19.889   1.169  0.1726  0.1122  0.1793
  882PEP     CB31569  10.318  20.330   1.139 -0.1566 -0.1614  0.2125
  882PEP     CB31570  10.164  20.550   1.473 -0.3594 -0.1195 -0.0268
  882PEP     CB31571   9.806  20.355   1.714  0.1002 -0.2400 -0.2937
  882PEP     CB31572   9.331  20.290   1.604  0.5484 -0.2958  0.3521
  882PEP     CB31573   9.168  19.985   1.370  0.3357 -0.3607 -0.4537
  882PEP     CB31574   9.398  19.718   1.106  0.1988  0.1744  0.2967
  882PEP     CB31575   9.401  19.136   1.135  0.2450 -0.4743  0.1631
  882PEP     CB31576   9.329  18.791   0.982 -0.3389  0.2119  0.2224
  882PEP     CB31577   9.271  18.375   0.760 -0.3821  0.0615  0.1302
  882PEP     CB31578   9.557  18.043   0.624 -0.3148  0.5092  0.1824
  882PEP     CB31579   9.767  17.742   0.842 -0.4242 -0.3984 -0.0661
  882PEP     CB31580   9.885  17.467   1.180 -0.2238 -0.0853 -0.0255
  882PEP     CB31581  10.071  17.094   1.293  0.2523 -0.3282  0.0931
  882PEP     CB31582  10.414  16.958   1.580  0.2383 -0.6946 -0.2310
  882PEP     CB31583  10.672  16.759   1.849 -0.4815  0.3856 -0.2676
  882PEP     CB31584  10.516  16.684   2.159  0.0070  0.2237  0.0205
  882PEP     CB31585  10.216  16.935   2.289 -0.1697 -0.2981 -0.1439
  882PEP     CB31586   9.859  17.067   2.458 -0.0373 -0.2215  0.0383
  882PEP     CB31587   9.442  17.323   2.576 -0.1316  0.3816  0.2607
  882PEP     CB31588   9.027  17.264   2.547 -0.1440 -0.3052 -0.1969
  882PEP     CB31589   8.696  17.102   2.392  0.0217  0.2530 -0.0071
  882PEP     CB31590   8.389  16.779   2.346 -0.0838  0.5353  0.1026
  882PEP     CB31591   8.295  16.568   1.951 -0.3330 -0.1380 -0.5789
  882PEP     CB31592   8.088  16.824   1.654  0.1187  0.1904 -0.1204
  882PEP     CB31593   7.666  16.875   1.537 -0.3761  0.1044 -0.0977
  882PEP     CB31594   7.360  17.004   1.786  0.2964  0.0108 -0.2225
  882PEP     CB31595   7.311  17.428   1.883  0.0137 -0.0847  0.0931
  882PEP     CB31596   7.491  17.960   1.736 -0.0948  0.4382  0.3790
  882PEP     CB31597   7.891  18.219   1.643 -0.1295 -0.2382  0.1036
  882PEP     CB31598   8.207  18.453   1.924  0.4278 -0.3896 -0.3713
  882PEP     CB31599   8.157  18.735   2.218 -0.1017  0.1073 -0.1191
  882PEP     CB31600   7.832  19.047   2.304 -0.1095  0.1327  0.0693
  883PEP     CB31601  14.029   9.057  21.334  0.0286 -0.3020 -0.1168
  883PEP     CB31602  13.993   9.493  21.402  0.1864  0.1270 -0.1195
  883PEP     CB31603  14.138   9.884  21.649  0.1459 -0.2596 -0.3598
  883PEP     CB31604  14.498  10.062  21.518 -0.0128  0.0835  0.1785
  883PEP     CB31605  14.597   9.850  21.190  0.0136  0.0572  0.5488
  883PEP     CB31606  14.334   9.534  20.966 -0.2481  0.3904  0.0175
  883PEP     CB31607  14.195   9.335  20.502 -0.3102 -0.1065  0.1372
  883PEP     CB31608  14.264   8.894  20.440  0.4644 -0.1676  0.1847
  883PEP     CB31609  14.051   8.521  20.389  0.0395  0.1597  0.1028
  883PEP     CB31610  13.700   8.377  20.157  0.0352 -0.0903 -0.0841
  883PEP     CB31611  13.417   8.176  20.123 -0.4184 -0.0421 -0.1396
  883PEP     CB31612  13.142   7.843  20.234 -0.2994 -0.0424 -0.1159
  883PEP     CB31613  13.096   7.458  20.171 -0.4751 -0.1103 -0.0424
  883PEP     CB31614  13.111   7.020  20.298  0.3644  0.1137  0.1429
  883PEP     CB31615  12.879   6.583  20.172  0.2929  0.2914 -0.4992
  883PEP     CB31616  12.847   6.141  20.245 -0.3528  0.0756 -0.1067
  883PEP     CB31617  12.797   5.853  20.007 -0.3073  0.1438  0.0180
  883PEP     CB31618  13.102   5.604  19.723 -0.4988 -0.2439  0.3041
  883PEP     CB31619  13.431   5.633  19.374 -0.2166 -0.5114  0.5959
  883PEP     CB31620  13.389   5.790  18.910  0.0375 -0.0334 -0.3030
  883PEP     CB31621  13.134   6.030  18.685  0.1578  0.2660 -0.2730
  883PEP     CB31622  13.029   6.395  18.495  0.0878 -0.1402  0.0718
  883PEP     CB31623  12.823   6.815  18.526  0.0747 -0.2636  0.0554
  883PEP     CB31624  12.633   7.206  18.668 -0.1170 -0.0976  0.2243
  883PEP     CB31625  12.370   7.435  18.962  0.0213  0.1074 -0.2804
  883PEP     CB31626  12.074   7.444  19.286 -0.3950 -0.1078  0.0795
  883PEP     CB31627  11.710   7.739  19.525 -0.0008  0.1531 -0.0513
  883PEP     CB31628  11.425   8.048  19.441  0.2464  0.1454  0.2732
  883PEP     CB31629  11.155   8.244  19.357  0.0979 -0.4938  0.0473
  883PEP     CB31630  10.969   8.308  18.992  0.0172  0.1221  0.0067
  883PEP     CB31631  10.692   8.529  18.839 -0.1193 -0.0370  0.1775
  883PEP     CB31632  10.365   8.866  18.621  0.2013 -0.0228 -0.1024
  883PEP     CB31633  10.091   8.935  18.220 -0.0781  0.0233  0.0553
  883PEP     CB31634   9.767   8.651  18.104  0.5506  0.1568  0.3596
  883PEP     CB31635   9.535   8.180  18.144 -0.0489  0.5325 -0.0478
  883PEP     CB31636   9.518   7.750  18.331  0.0658 -0.1894  0.0703
  883PEP     CB31637   9.581   7.519  18.706  0.3176 -0.1107 -0.0885
  883PEP     CB31638   9.830   7.570  19.084 -0.1060 -0.1318  0.4519
  883PEP     CB31639  10.148   7.644  19.352 -0.0129  0.2575  0.5035
  883PEP     CB31640  10.295   7.899  19.727  0.0376  0.0734 -0.2682
  884PEP     CB31641  17.010  21.416  18.534 -0.2931  0.1136 -0.3401
  884PEP     CB31642  16.989  21.183  18.891 -0.0635 -0.0875 -0.1558
  884PEP     CB31643  16.984  21.048  19.364 -0.0286  0.1364  0.1243
  884PEP     CB31644  16.669  20.820  19.573  0.1405 -0.2819 -0.0067
  884PEP     CB31645  16.634  20.383  19.846  0.0925 -0.0794  0.2063
  884PEP     CB31646  16.486  20.162  20.154  0.0487 -0.4421  0.0443
  884PEP     CB31647  16.260  19.827  20.287 -0.0242 -0.1092  0.2417
  884PEP     CB31648  15.945  19.585  20.480  0.2088  0.1610 -0.2281
  884PEP     CB31649  15.719  19.397  20.822 -0.1367  0.1005 -0.3677
  884PEP     CB31650  15.410  19.266  20.988 -0.2437  0.2329 -0.1023
  884PEP     CB31651  15.179  18.972  20.952  0.2286  0.3496 -0.3169
  884PEP     CB31652  14.820  18.671  20.797  0.0808 -0.0445  0.2631
  884PEP     CB31653  14.604  18.794  20.434  0.0817 -0.0387  0.0167
  884PEP     CB31654  14.798  19.164  20.137 -0.0249  0.0958  0.1167
  884PEP     CB31655  15.288  19.206  20.100  0.0748 -0.1558 -0.0666
  884PEP     CB31656  15.540  18.713  20.063  0.1400 -0.2505  0.2066
  884PEP     CB31657  15.397  18.334  19.855 -0.3344  0.2767 -0.0064
  884PEP     CB31658  14.982  18.352  19.561 -0.1142 -0.0628 -0.7774
  884PEP     CB31659  14.904  18.590  19.158  0.0028 -0.2376  0.1987
  884PEP     CB31660  15.098  18.954  19.039  0.1926 -0.4102  0.1273
  884PEP     CB31661  15.471  19.132  19.174 -0.2894  0.2663 -0.1026
  884PEP     CB31662  15.858  19.005  19.028  0.1954  0.0091  0.1903
  884PEP     CB31663  16.089  18.861  18.680 -0.2171  0.0231  0.2132
  884PEP     CB31664  16.046  18.492  18.399  0.2509  0.2551 -0.0240
  884PEP     CB31665  15.960  18.170  18.268  0.0554  0.0586 -0.2838
  884PEP     CB31666  15.743  18.040  17.898 -0.0073  0.0187  0.1058
  884PEP     CB31667  15.412  18.120  17.664 -0.4168  0.3407 -0.3025
  884PEP     CB31668  15.117  18.481  17.571 -0.1288 -0.0548  0.0576
  884PEP     CB31669  15.194  18.918  17.610 -0.1547 -0.0932  0.0137
  884PEP     CB31670  15.449  19.040  17.977 -0.0837  0.0567  0.0334
  884PEP     CB31671  15.858  18.905  18.243 -0.2866 -0.5486  0.1118
  884PEP     CB31672  16.332  18.957  18.196  0.1555  0.4143  0.0656
  884PEP     CB31673  16.585  18.586  18.195  0.1457 -0.2372 -0.0787
  884PEP     CB31674  16.463  18.274  18.431  0.3812 -0.0952  0.0808
  884PEP     CB31675  16.145  18.105  18.752 -0.2873  0.0755 -0.1682
  884PEP     CB31676  15.833  17.828  18.925  0.0378 -0.1255 -0.3109
  884PEP     CB31677  15.768  17.454  19.165  0.2212 -0.3454  0.3150
  884PEP     CB31678  15.823  17.180  19.521 -0.0496 -0.0522  0.2564
  884PEP     CB31679  16.259  16.948  19.749  0.1651 -0.0656  0.1498
  884PEP     CB31680  16.636  17.111  19.965 -0.2960  0.0469  0.2214
  885PEP     CB31681   9.660  15.632  17.047  0.2300 -0.1357 -0.2292
  885PEP     CB31682   9.422  15.973  17.272  0.4060 -0.0377 -0.1627
  885PEP     CB31683   9.500  16.393  17.355  0.0746 -0.1280  0.0399
  885PEP     CB31684   9.556  16.876  17.278  0.2836 -0.1700  0.7137
  885PEP     CB31685   9.479  17.239  17.523 -0.1051  0.1432  0.2612
  885PEP     CB31686   9.532  17.638  17.470 -0.0232  0.1965 -0.5587
  885PEP     CB31687   9.689  17.844  17.170  0.2354  0.2481  0.2882
  885PEP     CB31688   9.620  18.020  16.702 -0.1622  0.2676 -0.0293
  885PEP     CB31689   9.744  17.786  16.501  0.2585  0.3385  0.2747
  885PEP     CB31690   9.657  17.375  16.661 -0.5490  0.1372 -0.0593
  885PEP     CB31691   9.364  17.327  17.052 -0.1589 -0.0168  0.3237
  885PEP     CB31692   8.847  17.474  17.012 -0.0195 -0.0036 -0.2191
  885PEP     CB31693   8.640  17.677  17.250 -0.1696  0.1191 -0.0094
  885PEP     CB31694   8.413  17.748  17.539 -0.4232  0.2289  0.2375
  885PEP     CB31695   8.378  17.561  17.953  0.0408  0.0131  0.0630
  885PEP     CB31696   8.633  17.364  18.245  0.5173  0.2507 -0.0007
  885PEP     CB31697   8.795  17.089  18.551  0.0917 -0.0493  0.1055
  885PEP     CB31698   8.820  16.583  18.576  0.3050 -0.3569 -0.1799
  885PEP     CB31699   8.972  16.168  18.244  0.0506 -0.1275  0.3186
  885PEP     CB31700   9.265  15.848  18.101  0.3091  0.4570  0.2626
  885PEP     CB31701   9.593  15.676  18.321 -0.0434  0.0975  0.0938
  885PEP     CB31702   9.915  15.561  18.568  0.1881  0.1414  0.0033
  885PEP     CB31703  10.175  15.095  18.536 -0.1882 -0.2410 -0.1009
  885PEP     CB31704  10.523  14.896  18.458 -0.0315  0.2216 -0.1258
  885PEP     CB31705  10.738  14.524  18.591 -0.0436  0.2979  0.1145
  885PEP     CB31706  11.082  14.339  18.802  0.1990 -0.0210  0.1625
  885PEP     CB31707  11.433  14.059  18.895 -0.4219 -0.1275  0.1638
  885PEP     CB31708  11.878  14.032  18.708  0.0805  0.0523 -0.1270
  885PEP     CB31709  12.099  13.725  18.399  0.2035 -0.1623  0.1033
  885PEP     CB31710  12.071  13.379  18.166  0.2464 -0.0965  0.0495
  885PEP     CB31711  12.188  13.026  17.952 -0.3178 -0.0553 -0.1541
  885PEP     CB31712  12.432  12.689  18.080  0.6028 -0.3564 -0.0496
  885PEP     CB31713  12.760  12.528  18.410 -0.1724  0.0661 -0.3166
  885PEP     CB31714  12.790  12.520  18.839  0.1758 -0.0657 -0.2796
  885PEP     CB31715  12.460  12.729  19.136  0.1265 -0.1313 -0.2957
  885PEP     CB31716  12.283  13.142  19.198 -0.1307 -0.2936  0.1479
  885PEP     CB31717  12.010  13.508  19.289 -0.0170  0.4734 -0.2223
  885PEP     CB31718  12.000  13.995  19.156 -0.0003  0.3710  0.0380
  885PEP     CB31719  12.357  14.304  19.092 -0.0333  0.2651 -0.2784
  885PEP     CB31720  12.623  14.405  19.393 -0.1397  0.2879 -0.0705
  886PEP     CB31721   0.146  16.819   2.001  0.0855  0.1134 -0.1389
  886PEP     CB31722  -0.052  17.146   2.126  0.0428  0.1282 -0.0303
  886PEP     CB31723  -0.499  17.062   2.260 -0.3919  0.2239 -0.0978
  886PEP     CB31724  -0.595  16.853   2.554 -0.0343  0.2430  0.2793
  886PEP     CB31725  -0.512  16.471   2.795 -0.1036  0.0343 -0.1965
  886PEP     CB31726  -0.380  16.376   3.161 -0.1443 -0.0838  0.0771
  886PEP     CB31727  -0.350  16.263   3.602  0.0275  0.2749 -0.0731
  886PEP     CB31728  -0.016  16.031   3.883  0.0795  0.1293  0.1130
  886PEP     CB31729   0.325  15.839   3.877  0.2412  0.5819  0.0326
  886PEP     CB31730   0.633  15.745   3.558 -0.2994 -0.1756 -0.0102
  886PEP     CB31731   1.005  15.860   3.306 -0.1106 -0.0596 -0.1395
  886PEP     CB31732   0.901  15.938   2.977  0.0079 -0.0212 -0.2337
  886PEP     CB31733   0.451  15.945   2.957 -0.1624  0.0310  0.1155
  886PEP     CB31734   0.172  15.696   3.141  0.2036 -0.0611 -0.1426
  886PEP     CB31735   0.253  15.396   3.464  0.1601 -0.1821 -0.0645
  886PEP     CB31736   0.586  15.244   3.726  0.0046 -0.0307  0.1346
  886PEP     CB31737   0.763  14.935   3.608  0.1552  0.0652 -0.1178
  886PEP     CB31738   0.619  14.509   3.472  0.1895 -0.3441  0.0253
  886PEP     CB31739   0.720  14.066   3.429  0.1122  0.0310 -0.0739
  886PEP     CB31740   0.560  13.856   3.112  0.2428 -0.1367  0.4721
  886PEP     CB31741   0.115  13.881   3.223 -0.0316  0.4528 -0.2348
  886PEP     CB31742   0.036  13.763   3.616 -0.1294 -0.1413  0.3605
  886PEP     CB31743   0.138  13.621   4.109 -0.0303  0.0462 -0.3064
  886PEP     CB31744   0.181  13.679   4.508  0.2850 -0.0918  0.1530
  886PEP     CB31745   0.115  13.548   4.903  0.0644  0.4091 -0.3206
  886PEP     CB31746  -0.037  13.497   5.348  0.5605  0.0663 -0.0720
  886PEP     CB31747  -0.314  13.326   5.561  0.3524  0.1046 -0.0005
  886PEP     CB31748  -0.510  13.100   5.448 -0.1397 -0.2654 -0.7122
  886PEP     CB31749  -0.494  12.695   5.339  0.1354 -0.4925 -0.4932
  886PEP     CB31750  -0.444  12.314   5.033 -0.7707  0.1528  0.2090
  886PEP     CB31751  -0.623  12.028   4.652 -0.0463 -0.1987  0.0956
  886PEP     CB31752  -0.707  11.685   4.376 -0.0601 -0.2408  0.2976
  886PEP     CB31753  -0.680  11.459   4.009  0.0556 -0.2782  0.2699
  886PEP     CB31754  -0.269  11.291   3.762 -0.1663 -0.1433  0.0412
  886PEP     CB31755  -0.024  10.895   3.774 -0.3988 -0.3197  0.3277
  886PEP     CB31756   0.321  10.810   3.939 -0.2979 -0.0703  0.2819
  886PEP     CB31757   0.415  11.082   4.209 -0.4216 -0.0899 -0.1563
  886PEP     CB31758   0.082  11.450   4.388  0.0301 -0.0553 -0.0690
  886PEP     CB31759  -0.192  11.688   4.252  0.1202 -0.3480 -0.0277
  886PEP     CB31760  -0.231  12.166   4.272 -0.2484  0.4586  0.3122
  887PEP     CB31761   1.725   6.217   2.984 -0.3077 -0.0666 -0.0027
  887PEP     CB31762   1.825   6.286   3.427  0.0587  0.0853  0.3017
  887PEP     CB31763   1.721   6.419   3.804  0.2396 -0.0314 -0.3063
  887PEP     CB31764   1.497   6.339   4.252  0.0602 -0.0215 -0.4088
  887PEP     CB31765   1.296   6.105   4.505  0.0993  0.2386 -0.4826
  887PEP     CB31766   0.898   5.878   4.550 -0.1023  0.0251 -0.4534
  887PEP     CB31767   0.877   5.430   4.527 -0.3999  0.1228  0.3570
  887PEP     CB31768   0.710   5.113   4.315 -0.1867  0.1427  0.0980
  887PEP     CB31769   0.521   4.885   4.017  0.1446  0.4041 -0.0503
  887PEP     CB31770   0.450   4.458   4.038  0.1743 -0.1856  0.0415
  887PEP     CB31771   0.185   4.172   4.294  0.1788  0.3342 -0.1030
  887PEP     CB31772   0.064   4.276   4.684  0.0110  0.2630 -0.2641
  887PEP     CB31773   0.281   4.432   5.085 -0.3356 -0.0306  0.1709
  887PEP     CB31774   0.593   4.181   5.170  0.1854  0.0229 -0.0676
  887PEP     CB31775   0.803   3.919   4.881  0.2372  0.3645 -0.6310
  887PEP     CB31776   1.197   3.808   4.718  0.1328 -0.1732  0.1366
  887PEP     CB31777   1.637   3.757   4.633 -0.1828 -0.3146  0.3100
  887PEP     CB31778   2.030   3.607   4.576  0.2907 -0.0363 -0.1993
  887PEP     CB31779   2.433   3.663   4.481 -0.2283 -0.0920  0.1874
  887PEP     CB31780   2.554   4.014   4.219  0.2635  0.0364 -0.0819
  887PEP     CB31781   2.441   4.428   4.118  0.0813 -0.0906 -0.1155
  887PEP     CB31782   2.151   4.670   4.015 -0.1478 -0.0059  0.1096
  887PEP     CB31783   1.857   4.871   3.760 -0.1240  0.3229  0.3054
  887PEP     CB31784   1.460   4.717   3.460  0.0143 -0.1091 -0.4531
  887PEP     CB31785   1.023   4.683   3.227  0.0735  0.0213  0.2348
  887PEP     CB31786   0.638   4.344   3.191 -0.1290  0.2284 -0.0948
  887PEP     CB31787   0.593   3.950   3.349 -0.0202 -0.1596 -0.0154
  887PEP     CB31788   0.532   3.581   3.443 -0.1301 -0.0311 -0.0272
  887PEP     CB31789   0.614   3.118   3.417 -0.2810 -0.2250 -0.0838
  887PEP     CB31790   0.664   2.728   3.263  0.0509 -0.0969 -0.1186
  887PEP     CB31791   0.429   2.413   3.296  0.1305  0.0489 -0.1377
  887PEP     CB31792   0.215   2.176   3.672  0.0045 -0.2141  0.0437
  887PEP     CB31793   0.020   2.321   4.087 -0.2588 -0.1964 -0.2766
  887PEP     CB31794  -0.217   2.716   4.206 -0.0131  0.2604 -0.1674
  887PEP     CB31795  -0.464   3.051   4.032 -0.0067 -0.1124  0.0141
  887PEP     CB31796  -0.843   3.320   3.967  0.1586 -0.2877 -0.0812
  887PEP     CB31797  -1.295   3.363   4.122 -0.1704 -0.0861 -0.1060
  887PEP     CB31798  -1.553   3.033   4.325  0.0698  0.3968 -0.0552
  887PEP     CB31799  -1.379   2.580   4.374 -0.2551 -0.1498 -0.4763
  887PEP     CB31800  -1.113   2.236   4.571  0.0813 -0.0273 -0.0741
  888PEP     CB31801  15.138  14.080   1.767 -0.1003  0.2567  0.1524
  888PEP     CB31802  14.734  14.187   1.894  0.0966 -0.0557  0.3074
  888PEP     CB31803  14.415  14.553   1.875  0.0662  0.0586  0.5225
  888PEP     CB31804  14.455  14.921   2.051 -0.5857 -0.0173 -0.2134
  888PEP     CB31805  14.683  15.190   2.270 -0.0060 -0.0332  0.2174
  888PEP     CB31806  14.984  15.249   2.601 -0.1465 -0.0853  0.2520
  888PEP     CB31807  14.971  14.936   2.959 -0.0512 -0.0372 -0.0005
  888PEP     CB31808  15.058  14.503   3.011  0.0151 -0.2972 -0.2451
  888PEP     CB31809  15.322  14.129   3.005 -0.1150 -0.0662 -0.1552
  888PEP     CB31810  15.572  13.783   2.767  0.3459  0.1574  0.1894
  888PEP     CB31811  15.908  13.553   2.547 -0.4392  0.1616  0.2929
  888PEP     CB31812  16.128  13.329   2.299  0.0816 -0.2122 -0.1860
  888PEP     CB31813  16.542  13.116   2.245  0.1591 -0.2356  0.0803
  888PEP     CB31814  17.039  13.119   2.142  0.1287 -0.1986 -0.2299
  888PEP     CB31815  17.282  12.943   1.815  0.0261 -0.0770  0.0191
  888PEP     CB31816  17.266  12.585   1.525  0.2874  0.0033 -0.1859
  888PEP     CB31817  17.293  12.269   1.184 -0.0726 -0.0247  0.4079
  888PEP     CB31818  17.457  11.906   0.989 -0.2468  0.0395 -0.4183
  888PEP     CB31819  17.795  11.554   0.897  0.1962  0.0347 -0.6686
  888PEP     CB31820  18.133  11.354   0.763 -0.0429 -0.0571  0.3027
  888PEP     CB31821  18.369  11.084   0.496 -0.0488 -0.1921  0.2398
  888PEP     CB31822  18.278  10.693   0.233  0.0510  0.0769  0.0436
  888PEP     CB31823  18.202  10.287   0.108 -0.1544 -0.0538 -0.1674
  888PEP     CB31824  18.209   9.867   0.270  0.6201  0.0349  0.0347
  888PEP     CB31825  18.594   9.752   0.571 -0.5877  0.2376 -0.1148
  888PEP     CB31826  19.042   9.897   0.487 -0.1432  0.3229 -0.1828
  888PEP     CB31827  19.516   9.917   0.413 -0.3639 -0.2132 -0.0784
  888PEP     CB31828  19.799  10.165   0.684  0.4268 -0.1686 -0.0785
  888PEP     CB31829  19.915  10.492   1.046  0.0114  0.2467 -0.3702
  888PEP     CB31830  19.917  10.978   1.086 -0.2798  0.4406 -0.1788
  888PEP     CB31831  19.765  11.370   1.316 -0.3956 -0.3589 -0.1406
  888PEP     CB31832  19.697  11.753   1.569  0.0357  0.2991  0.2735
  888PEP     CB31833  19.435  12.121   1.499  0.2824 -0.2691 -0.2549
  888PEP     CB31834  19.204  12.249   1.163  0.2681 -0.1585 -0.1072
  888PEP     CB31835  19.278  12.373   0.740 -0.2790  0.0313 -0.0264
  888PEP     CB31836  19.607  12.618   0.500 -0.0852  0.1728 -0.1056
  888PEP     CB31837  20.018  12.576   0.365  0.2600 -0.0827  0.1743
  888PEP     CB31838  20.168  12.482   0.007 -0.2424 -0.0667  0.1624
  888PEP     CB31839  20.237  12.668  -0.395 -0.0906 -0.0676  0.0777
  888PEP     CB31840  20.373  12.616  -0.828  0.2377 -0.0719  0.1242
  889PEP     CB31841  20.386  11.586  10.682  0.0773 -0.1309  0.1083
  889PEP     CB31842  20.047  11.442  11.013  0.3014 -0.1419 -0.1777
  889PEP     CB31843  19.803  11.223  11.289  0.1714 -0.0721 -0.0254
  889PEP     CB31844  19.606  10.928  11.426 -0.3032  0.3030  0.0093
  889PEP     CB31845  19.747  10.561  11.564  0.2842  0.1028  0.0500
  889PEP     CB31846  20.138  10.633  11.455  0.0076  0.0587 -0.2057
  889PEP     CB31847  20.315  11.099  11.410  0.0149  0.1141 -0.2404
  889PEP     CB31848  20.232  11.491  11.422  0.2615 -0.1714 -0.0475
  889PEP     CB31849  20.007  11.769  11.525 -0.2503  0.0435 -0.4010
  889PEP     CB31850  19.979  11.915  11.951 -0.0854  0.0898 -0.0694
  889PEP     CB31851  19.863  12.071  12.415 -0.2670 -0.1882 -0.0791
  889PEP     CB31852  19.498  12.377  12.565  0.3903  0.0543 -0.2434
  889PEP     CB31853  19.210  12.710  12.355 -0.0058  0.1968  0.0308
  889PEP     CB31854  19.460  12.991  12.216 -0.2625 -0.4525 -0.2306
  889PEP     CB31855  19.909  13.035  12.215  0.1693 -0.0407  0.2392
  889PEP     CB31856  20.253  12.922  12.430  0.0649 -0.0673  0.0249
  889PEP     CB31857  20.454  12.768  12.858  0.3304  0.2925  0.3250
  889PEP     CB31858  20.308  12.664  13.274  0.0265  0.0551 -0.1591
  889PEP     CB31859  20.096  12.884  13.622  0.2945 -0.4482 -0.2818
  889PEP     CB31860  19.597  12.951  13.684 -0.0361 -0.2391 -0.0963
  889PEP     CB31861  19.306  12.904  13.249 -0.1554 -0.1202  0.1342
  889PEP     CB31862  19.423  12.508  13.007 -0.3114  0.0067  0.0942
  889PEP     CB31863  19.795  12.270  13.057 -0.0208 -0.0604 -0.0331
  889PEP     CB31864  20.074  12.188  13.343 -0.1117  0.1034 -0.0903
  889PEP     CB31865  20.116  12.289  13.837 -0.0650 -0.3138  0.0771
  889PEP     CB31866  19.962  12.698  14.012  0.1765 -0.0822  0.3646
  889PEP     CB31867  20.046  13.102  14.076  0.2123 -0.0820 -0.4359
  889PEP     CB31868  20.189  13.430  13.825  0.4705 -0.0592 -0.2072
  889PEP     CB31869  20.541  13.510  13.559  0.0943 -0.2378 -0.0288
  889PEP     CB31870  20.881  13.387  13.523 -0.0591  0.1582  0.1909
  889PEP     CB31871  21.351  13.397  13.580  0.4906  0.0403  0.0681
  889PEP     CB31872  21.455  13.404  14.030  0.1688  0.1475 -0.1727
  889PEP     CB31873  21.124  13.379  14.304 -0.0092  0.1468 -0.2068
  889PEP     CB31874  20.678  13.300  14.174  0.1720  0.1294 -0.4511
  889PEP     CB31875  20.524  13.010  13.895  0.2684 -0.2120 -0.0242
  889PEP     CB31876  20.752  12.865  13.530 -0.2348  0.1437 -0.0056
  889PEP     CB31877  21.189  12.972  13.304  0.1197  0.0323 -0.1562
  889PEP     CB31878  21.674  13.087  13.368  0.1665  0.0086  0.0891
  889PEP     CB31879  22.053  13.147  13.711 -0.0525 -0.2863 -0.4264
  889PEP     CB31880  21.988  13.383  14.093  0.0547 -0.0992 -0.8780
  890PEP     CB31881   1.088   6.744   1.253 -0.2838  0.2406  0.0038
  890PEP     CB31882   0.942   6.328   1.036 -0.1939 -0.1392 -0.5164
  890PEP     CB31883   0.829   5.978   0.916 -0.0395 -0.1709 -0.0007
  890PEP     CB31884   1.036   5.624   0.814 -0.0269  0.2247 -0.1024
  890PEP     CB31885   1.077   5.321   1.033  0.1036  0.1150 -0.0721
  890PEP     CB31886   1.166   5.162   1.428  0.0044 -0.0982 -0.0367
  890PEP     CB31887   1.445   5.144   1.776  0.0648 -0.2225 -0.1116
  890PEP     CB31888   1.637   5.306   2.190 -0.0708 -0.4623  0.2614
  890PEP     CB31889   1.679   5.487   2.589 -0.3715 -0.2160 -0.3243
  890PEP     CB31890   1.532   5.715   3.013  0.5063  0.1534 -0.1031
  890PEP     CB31891   1.701   5.695   3.393  0.2436  0.2597  0.0480
  890PEP     CB31892   2.079   5.830   3.627 -0.0910 -0.0550  0.0230
  890PEP     CB31893   2.496   5.856   3.601 -0.2151  0.0564  0.4263
  890PEP     CB31894   2.881   5.863   3.616  0.0214  0.4571 -0.0429
  890PEP     CB31895   3.318   5.701   3.474  0.3006  0.1801  0.0655
  890PEP     CB31896   3.519   5.751   3.070 -0.2912  0.1710 -0.1869
  890PEP     CB31897   3.794   5.805   2.741 -0.2625 -0.3900  0.2164
  890PEP     CB31898   3.957   5.549   2.399  0.0522 -0.2855 -0.0102
  890PEP     CB31899   4.167   5.095   2.197 -0.1999 -0.0171  0.2820
  890PEP     CB31900   4.359   4.827   2.374 -0.1887 -0.0555  0.0053
  890PEP     CB31901   4.367   4.498   2.689 -0.1393  0.2174  0.2069
  890PEP     CB31902   4.145   4.391   3.052 -0.2908  0.2262  0.0750
  890PEP     CB31903   4.020   4.644   3.373  0.1541  0.0400  0.3247
  890PEP     CB31904   4.359   4.871   3.453  0.2566 -0.0476  0.0032
  890PEP     CB31905   4.635   4.787   3.099  0.2120  0.2403  0.0602
  890PEP     CB31906   4.693   4.933   2.703  0.5917 -0.0164 -0.0840
  890PEP     CB31907   5.044   4.899   2.565 -0.2982 -0.2001 -0.0967
  890PEP     CB31908   5.242   4.471   2.416 -0.1843 -0.0434 -0.1318
  890PEP     CB31909   5.034   4.090   2.295 -0.0533  0.1569 -0.3664
  890PEP     CB31910   4.682   4.014   1.946 -0.2297 -0.3135  0.0702
  890PEP     CB31911   4.568   4.105   1.566 -0.2633  0.1074 -0.2569
  890PEP     CB31912   4.788   4.380   1.220 -0.0193  0.0889 -0.2409
  890PEP     CB31913   4.861   4.757   1.038 -0.0274 -0.0810 -0.0527
  890PEP     CB31914   4.996   5.048   0.817 -0.1383 -0.0399 -0.0845
  890PEP     CB31915   5.388   5.123   0.634 -0.4834  0.0663  0.0940
  890PEP     CB31916   5.695   4.871   0.552 -0.2570 -0.0477  0.2417
  890PEP     CB31917   5.575   4.424   0.764  0.1730 -0.1335 -0.0067
  890PEP     CB31918   5.145   4.439   0.845 -0.0985 -0.0801 -0.0161
  890PEP     CB31919   4.816   4.714   0.528  0.2860  0.3946 -0.2376
  890PEP     CB31920   4.985   4.996   0.249  0.3851 -0.2032 -0.1877
  891PEP     CB31921  12.480  20.282   5.818  0.3522  0.7342 -0.0225
  891PEP     CB31922  12.061  20.507   5.679 -0.4777  0.1452 -0.1240
  891PEP     CB31923  11.581  20.640   5.601  0.3836  0.0029  0.3140
  891PEP     CB31924  11.170  20.852   5.622 -0.2238  0.1706  0.0055
  891PEP     CB31925  10.788  20.738   5.724 -0.0805  0.0040 -0.0842
  891PEP     CB31926  10.266  20.773   5.844  0.2533  0.0377  0.1198
  891PEP     CB31927  10.010  21.112   5.734  0.3849  0.3437  0.3077
  891PEP     CB31928  10.035  21.339   5.398 -0.1716 -0.1004 -0.4282
  891PEP     CB31929  10.309  21.159   5.012 -0.2641  0.0022 -0.5030
  891PEP     CB31930  10.619  20.803   5.060  0.2813  0.0937  0.0109
  891PEP     CB31931  10.587  20.486   5.344 -0.0836 -0.2658  0.1477
  891PEP     CB31932  10.247  20.312   5.584  0.1921  0.1369 -0.1698
  891PEP     CB31933  10.039  20.063   5.769  0.1045  0.1861 -0.4302
  891PEP     CB31934   9.908  19.765   6.127  0.0252  0.1793  0.3559
  891PEP     CB31935   9.581  19.585   6.336  0.1054 -0.1363  0.3198
  891PEP     CB31936   9.124  19.827   6.435  0.3327  0.1709  0.5522
  891PEP     CB31937   8.658  19.824   6.446 -0.0942  0.2105  0.0439
  891PEP     CB31938   8.199  19.971   6.396 -0.0427  0.1254 -0.4631
  891PEP     CB31939   7.762  19.993   6.311 -0.0059  0.0450 -0.0791
  891PEP     CB31940   7.387  19.858   6.331 -0.1643 -0.4774 -0.0522
  891PEP     CB31941   6.984  20.008   6.422  0.0284 -0.0366 -0.1595
  891PEP     CB31942   6.891  20.446   6.410  0.0275 -0.2426 -0.3702
  891PEP     CB31943   7.252  20.739   6.300 -0.0018  0.2247  0.0288
  891PEP     CB31944   7.610  20.813   6.048 -0.0337  0.1055 -0.0814
  891PEP     CB31945   7.640  21.101   5.656  0.2877 -0.0889 -0.6095
  891PEP     CB31946   7.473  21.438   5.366  0.0036 -0.0422 -0.0557
  891PEP     CB31947   7.055  21.545   5.239 -0.3016 -0.0639  0.2976
  891PEP     CB31948   6.659  21.600   5.315 -0.2578  0.3139 -0.0744
  891PEP     CB31949   6.282  21.380   5.276 -0.2130 -0.3818  0.0610
  891PEP     CB31950   6.209  20.854   5.312  0.2954  0.1719 -0.3676
  891PEP     CB31951   6.202  20.474   5.022 -0.2067  0.0231  0.1819
  891PEP     CB31952   6.202  20.463   4.563  0.0911 -0.4088  0.0823
  891PEP     CB31953   6.336  20.228   4.214  0.1839 -0.1894  0.2752
  891PEP     CB31954   6.648  19.989   4.145  0.0933 -0.0550  0.5255
  891PEP     CB31955   7.204  20.119   4.134 -0.1874  0.1730  0.1225
  891PEP     CB31956   7.329  20.482   4.126  0.4400  0.2724  0.0143
  891PEP     CB31957   7.021  20.762   3.909 -0.1837  0.1953 -0.0993
  891PEP     CB31958   6.628  20.530   3.782  0.2496  0.3658 -0.4185
  891PEP     CB31959   6.498  20.145   3.677 -0.1142 -0.2680  0.4256
  891PEP     CB31960   6.802  19.802   3.662 -0.1136 -0.1490 -0.0469
  892PEP     CB31961  21.103  11.268  10.037  0.2408  0.1146 -0.2306
  892PEP     CB31962  21.176  10.862  10.220  0.1100 -0.0216 -0.2001
  892PEP     CB31963  21.379  10.587  10.426 -0.1494 -0.0580 -0.2292
  892PEP     CB31964  21.676  10.143  10.568  0.0996  0.2093  0.0836
  892PEP     CB31965  22.034   9.944  10.719  0.2834 -0.0219  0.1888
  892PEP     CB31966  22.419   9.786  10.822  0.0747  0.0503 -0.1822
  892PEP     CB31967  22.750   9.800  11.113 -0.5588  0.0220 -0.0313
  892PEP     CB31968  22.776   9.641  11.532 -0.0862 -0.2366 -0.2603
  892PEP     CB31969  22.930   9.257  11.794  0.1602 -0.1400  0.1777
  892PEP     CB31970  23.108   8.921  11.643 -0.2832 -0.2152 -0.3398
  892PEP     CB31971  23.115   8.789  11.349 -0.1172 -0.0617 -0.3276
  892PEP     CB31972  23.067   8.684  10.894 -0.4478  0.0846 -0.1774
  892PEP     CB31973  22.754   8.656  10.591  0.3570  0.4133 -0.0104
  892PEP     CB31974  22.307   8.638  10.633  0.1062 -0.2358 -0.2155
  892PEP     CB31975  22.007   8.567  10.959 -0.1143  0.1121  0.2730
  892PEP     CB31976  21.974   8.427  11.392 -0.4921 -0.3275 -0.0254
  892PEP     CB31977  22.051   8.199  11.766  0.0712 -0.0114  0.2733
  892PEP     CB31978  21.945   7.831  11.969 -0.0387  0.1114  0.0433
  892PEP     CB31979  22.213   7.432  11.981 -0.0056 -0.2524 -0.2882
  892PEP     CB31980  22.510   7.094  12.103  0.1212 -0.0601 -0.0675
  892PEP     CB31981  22.511   6.752  12.388 -0.0934  0.0599  0.0780
  892PEP     CB31982  22.566   6.306  12.518 -0.2187 -0.3457  0.0699
  892PEP     CB31983  22.509   5.859  12.629 -0.3418 -0.1647 -0.0987
  892PEP     CB31984  22.227   5.520  12.556  0.0276 -0.0359  0.0356
  892PEP     CB31985  21.773   5.315  12.532  0.1978 -0.2785 -0.3758
  892PEP     CB31986  21.454   5.130  12.665  0.2474 -0.2316  0.2848
  892PEP     CB31987  21.076   4.941  12.739  0.1336  0.3846  0.5222
  892PEP     CB31988  20.721   4.791  12.519  0.0961  0.0840  0.3385
  892PEP     CB31989  20.400   4.709  12.236  0.1236  0.4556  0.1171
  892PEP     CB31990  19.918   4.658  12.122  0.2119  0.1436  0.1374
  892PEP     CB31991  19.488   4.583  11.911  0.0165 -0.4410 -0.3995
  892PEP     CB31992  19.185   4.655  11.543  0.1394 -0.1606  0.2555
  892PEP     CB31993  18.974   4.513  11.148  0.0796 -0.1321  0.0230
  892PEP     CB31994  18.913   4.194  10.818  0.0232 -0.2808  0.0382
  892PEP     CB31995  18.952   4.059  10.473 -0.0199 -0.0423  0.0039
  892PEP     CB31996  18.822   3.959  10.076  0.0142 -0.2076  0.0565
  892PEP     CB31997  18.852   3.517   9.996  0.0539  0.0405  0.0236
  892PEP     CB31998  19.252   3.274  10.055 -0.1849 -0.0612 -0.2321
  892PEP     CB31999  19.623   3.523   9.938 -0.0989  0.4746  0.1233
  892PEP     CB32000  19.825   3.878   9.858 -0.0665  0.1456  0.2516
  893PEP     CB32001  21.255  17.184   2.876  0.0011 -0.0167  0.0835
  893PEP     CB32002  21.574  17.358   2.652  0.0781 -0.5089 -0.1374
  893PEP     CB32003  21.972  17.607   2.528 -0.0257 -0.5648  0.2495
  893PEP     CB32004  22.157  17.875   2.218 -0.1604  0.2210 -0.1467
  893PEP     CB32005  22.629  17.881   2.080 -0.0020 -0.0784 -0.0006
  893PEP     CB32006  22.979  17.465   2.170  0.0127 -0.0968 -0.1686
  893PEP     CB32007  22.977  17.238   2.553  0.1962  0.0635 -0.5985
  893PEP     CB32008  22.903  16.829   2.838  0.3886 -0.0990  0.3079
  893PEP     CB32009  22.648  16.494   3.074 -0.2090  0.1567 -0.1645
  893PEP     CB32010  22.591  16.225   3.360  0.0961 -0.2542 -0.0438
  893PEP     CB32011  22.385  16.360   3.817 -0.2806 -0.1681 -0.2210
  893PEP     CB32012  22.069  16.690   3.813 -0.0298  0.1361 -0.0337
  893PEP     CB32013  21.688  16.744   3.537 -0.1721  0.2937 -0.0845
  893PEP     CB32014  21.228  16.884   3.508 -0.0336  0.1723  0.0428
  893PEP     CB32015  20.951  17.236   3.612 -0.6253 -0.3789  0.4819
  893PEP     CB32016  20.802  17.708   3.463 -0.2060  0.2553 -0.2105
  893PEP     CB32017  20.442  18.058   3.259 -0.2308  0.0719 -0.0489
  893PEP     CB32018  20.179  18.356   3.009  0.1061 -0.5832  0.1282
  893PEP     CB32019  19.964  18.505   2.640 -0.1508  0.3488  0.0646
  893PEP     CB32020  19.874  18.498   2.231 -0.0332 -0.1191  0.0148
  893PEP     CB32021  19.890  18.420   1.823 -0.0755  0.0778  0.5268
  893PEP     CB32022  20.307  18.424   1.565 -0.1054  0.3969  0.3964
  893PEP     CB32023  20.710  18.266   1.566  0.2739  0.2199 -0.0950
  893PEP     CB32024  21.098  18.011   1.437 -0.0146 -0.0316 -0.2286
  893PEP     CB32025  21.378  17.680   1.585  0.1691  0.1197  0.1755
  893PEP     CB32026  21.418  17.485   2.046  0.1401  0.2642 -0.2543
  893PEP     CB32027  21.094  17.594   2.416  0.1112 -0.2020  0.3533
  893PEP     CB32028  20.667  17.654   2.371 -0.1599 -0.2827 -0.0630
  893PEP     CB32029  20.447  17.533   2.020  0.0603  0.0398  0.2663
  893PEP     CB32030  20.444  17.294   1.634 -0.2955 -0.3026  0.0291
  893PEP     CB32031  20.233  16.942   1.459 -0.0715 -0.1813  0.0922
  893PEP     CB32032  20.009  16.623   1.598  0.0506 -0.1121  0.2516
  893PEP     CB32033  19.772  16.199   1.468 -0.1252 -0.1966 -0.1190
  893PEP     CB32034  19.480  16.106   1.222  0.2207 -0.1239 -0.0209
  893PEP     CB32035  19.408  16.094   0.862 -0.2507 -0.2027  0.0352
  893PEP     CB32036  19.133  16.134   0.477 -0.0045 -0.0504  0.1546
  893PEP     CB32037  19.279  16.458   0.199  0.1445  0.1231  0.0322
  893PEP     CB32038  19.673  16.680   0.319  0.1065 -0.3755 -0.3573
  893PEP     CB32039  20.156  16.698   0.345  0.1386 -0.6587 -0.0726
  893PEP     CB32040  20.545  16.842   0.518 -0.0467 -0.0358 -0.1766
  894PEP     CB32041  12.961  17.826  20.864 -0.0256  0.0683  0.1142
  894PEP     CB32042  12.594  18.110  20.967 -0.0164 -0.3818 -0.0849
  894PEP     CB32043  12.537  18.554  21.147  0.1215 -0.1939  0.2142
  894PEP     CB32044  12.456  18.828  21.550 -0.1658  0.0537 -0.3104
  894PEP     CB32045  12.259  19.276  21.687  0.1978  0.0081  0.4081
  894PEP     CB32046  11.865  19.423  21.523  0.2043  0.0782 -0.6456
  894PEP     CB32047  11.658  19.572  21.255 -0.2880 -0.1350 -0.4383
  894PEP     CB32048  11.243  19.707  21.096 -0.0180 -0.0898  0.1121
  894PEP     CB32049  10.787  19.829  21.190 -0.2618  0.1545 -0.0220
  894PEP     CB32050  10.356  19.782  21.375  0.2236  0.0931  0.1207
  894PEP     CB32051   9.998  19.558  21.473  0.1142 -0.1716 -0.2491
  894PEP     CB32052   9.729  19.343  21.693  0.2582  0.2008  0.3479
  894PEP     CB32053   9.396  19.014  21.476 -0.2521  0.1801  0.1864
  894PEP     CB32054   9.038  18.904  21.104 -0.0458 -0.0268 -0.3941
  894PEP     CB32055   8.846  18.838  20.707 -0.0333 -0.0532 -0.0408
  894PEP     CB32056   8.807  18.740  20.314  0.0950  0.0351  0.0935
  894PEP     CB32057   8.707  18.510  19.963 -0.0894 -0.2792  0.2730
  894PEP     CB32058   8.649  18.315  19.664 -0.4920  0.0321  0.3067
  894PEP     CB32059   8.528  18.155  19.302 -0.1661 -0.1867  0.3499
  894PEP     CB32060   8.433  17.721  19.145  0.0560  0.0497  0.0650
  894PEP     CB32061   8.120  17.615  18.931 -0.3086  0.1845  0.3555
  894PEP     CB32062   7.887  17.943  18.634 -0.3015  0.5788 -0.0923
  894PEP     CB32063   7.899  18.068  18.227  0.1808 -0.0963  0.1155
  894PEP     CB32064   7.904  18.033  17.795 -0.2110  0.1266  0.0396
  894PEP     CB32065   7.992  17.969  17.406  0.1406  0.0149 -0.2034
  894PEP     CB32066   8.187  18.206  17.075 -0.0370 -0.3218  0.0894
  894PEP     CB32067   8.524  18.517  16.915 -0.0804 -0.0036 -0.3218
  894PEP     CB32068   8.557  18.843  17.099  0.1175 -0.0344 -0.0508
  894PEP     CB32069   8.584  18.928  17.552 -0.4983  0.0438  0.0568
  894PEP     CB32070   8.530  19.082  17.951 -0.2719  0.0235 -0.2070
  894PEP     CB32071   8.712  18.905  18.322  0.0795 -0.0229 -0.0781
  894PEP     CB32072   9.023  18.632  18.422  0.1595 -0.2853  0.1417
  894PEP     CB32073   9.103  18.253  18.277 -0.1231 -0.0106  0.5616
  894PEP     CB32074   9.300  18.055  17.901  0.1407 -0.0804 -0.4829
  894PEP     CB32075   9.762  18.048  17.789 -0.2145  0.2510  0.1743
  894PEP     CB32076  10.091  17.982  18.055 -0.2008 -0.5182  0.0483
  894PEP     CB32077  10.484  17.863  18.088  0.2725 -0.3017  0.1758
  894PEP     CB32078  10.886  18.105  18.168  0.0778  0.0174  0.1254
  894PEP     CB32079  11.144  18.451  18.293 -0.0067  0.3341 -0.0514
  894PEP     CB32080  11.147  18.641  18.675  0.1734  0.2184 -0.0722
  895PEP     CB32081   9.357  18.669  17.906  0.2334  0.4771 -0.4481
  895PEP     CB32082   9.379  18.436  17.526 -0.0638 -0.2435 -0.1124
  895PEP     CB32083   9.197  18.070  17.298 -0.1840 -0.0084 -0.0809
  895PEP     CB32084   9.222  17.761  16.917  0.3970 -0.0257 -0.0710
  895PEP     CB32085   9.109  17.691  16.480 -0.2468  0.3926  0.1380
  895PEP     CB32086   8.958  17.877  16.034  0.1324  0.2554  0.2811
  895PEP     CB32087   9.012  18.206  15.803  0.1493 -0.0318  0.3687
  895PEP     CB32088   9.287  18.267  15.415 -0.4512 -0.1020  0.1334
  895PEP     CB32089   9.595  18.052  15.138  0.3570  0.2574 -0.1379
  895PEP     CB32090   9.917  17.843  15.318 -0.2559 -0.1825 -0.0601
  895PEP     CB32091   9.999  17.531  15.640  0.4139 -0.0681 -0.3676
  895PEP     CB32092  10.105  17.057  15.720  0.5278 -0.0359 -0.2063
  895PEP     CB32093  10.394  16.651  15.687  0.2439  0.2356  0.1135
  895PEP     CB32094  10.888  16.489  15.661 -0.1630  0.0554  0.0098
  895PEP     CB32095  11.285  16.223  15.548  0.0873  0.0455  0.0090
  895PEP     CB32096  11.637  15.962  15.530 -0.2071 -0.2526 -0.3615
  895PEP     CB32097  11.877  15.719  15.155  0.0462  0.1789  0.0450
  895PEP     CB32098  11.639  15.725  14.781 -0.0821 -0.2627 -0.0879
  895PEP     CB32099  11.137  15.828  14.717  0.1800  0.2303  0.2550
  895PEP     CB32100  10.832  15.820  15.029  0.0871 -0.3319 -0.1178
  895PEP     CB32101  10.862  15.935  15.481 -0.1011  0.1434 -0.0909
  895PEP     CB32102  11.112  15.819  15.822 -0.3674  0.2971 -0.2840
  895PEP     CB32103  11.363  15.885  16.225 -0.3322 -0.1190 -0.1133
  895PEP     CB32104  11.603  15.972  16.475 -0.0459 -0.3950 -0.0544
  895PEP     CB32105  11.984  16.215  16.703 -0.1831  0.4978 -0.0306
  895PEP     CB32106  12.352  16.453  16.912 -0.0253  0.0369  0.3095
  895PEP     CB32107  12.605  16.834  16.755 -0.2102  0.3974 -0.2567
  895PEP     CB32108  12.618  17.205  16.445  0.2860  0.0770 -0.1242
  895PEP     CB32109  12.716  17.487  16.070 -0.1256  0.3255  0.0929
  895PEP     CB32110  12.975  17.931  15.929 -0.1431 -0.1502  0.2116
  895PEP     CB32111  13.437  18.087  16.004  0.2251 -0.5857 -0.0336
  895PEP     CB32112  13.716  17.956  16.193  0.0772  0.0078 -0.1515
  895PEP     CB32113  13.608  17.734  16.588  0.2330 -0.1935 -0.3885
  895PEP     CB32114  13.536  17.250  16.828  0.0561 -0.1385 -0.0240
  895PEP     CB32115  13.474  17.026  17.295  0.2959 -0.1658  0.3724
  895PEP     CB32116  13.427  17.277  17.634 -0.2315 -0.3120  0.0138
  895PEP     CB32117  13.321  17.674  17.605  0.0758  0.0634  0.1382
  895PEP     CB32118  13.423  18.130  17.606  0.1184  0.4775 -0.0616
  895PEP     CB32119  13.456  18.391  17.371 -0.5128  0.1795  0.1176
  895PEP     CB32120  13.553  18.595  17.017  0.2508  0.4395 -0.0317
  896PEP     CB32121  12.482   9.364   8.161 -0.1531 -0.1589  0.1162
  896PEP     CB32122  12.845   9.037   8.107  0.1891 -0.1416  0.0303
  896PEP     CB32123  13.184   8.885   7.956  0.1494 -0.4309 -0.3078
  896PEP     CB32124  13.482   8.625   7.682  0.0051 -0.1057 -0.1179
  896PEP     CB32125  13.845   8.379   7.547 -0.2002 -0.2698  0.0915
  896PEP     CB32126  14.274   8.276   7.368  0.0486  0.2879  0.2510
  896PEP     CB32127  14.703   8.324   7.431 -0.3793 -0.0486 -0.1407
  896PEP     CB32128  15.128   8.312   7.462 -0.6078 -0.0003 -0.1009
  896PEP     CB32129  15.416   8.587   7.243 -0.3829 -0.1514 -0.2159
  896PEP     CB32130  15.299   8.972   7.061  0.1936  0.0129  0.3327
  896PEP     CB32131  15.096   9.290   6.875 -0.0137 -0.4952 -0.1015
  896PEP     CB32132  14.811   9.694   6.763 -0.1699  0.3607 -0.4274
  896PEP     CB32133  14.501  10.006   6.609 -0.4383 -0.1135  0.2852
  896PEP     CB32134  14.531  10.452   6.476 -0.1566 -0.2360  0.5845
  896PEP     CB32135  14.758  10.670   6.629 -0.4163  0.4978  0.2945
  896PEP     CB32136  14.826  10.774   7.043 -0.0357  0.0786  0.4692
  896PEP     CB32137  14.564  10.604   7.432 -0.1010  0.0218  0.1801
  896PEP     CB32138  14.111  10.607   7.429  0.0856 -0.4495 -0.0368
  896PEP     CB32139  13.830  10.908   7.323 -0.3162  0.3137  0.1463
  896PEP     CB32140  13.738  11.392   7.224 -0.2042  0.0168 -0.1800
  896PEP     CB32141  13.813  11.697   6.756  0.1672 -0.0017 -0.1736
  896PEP     CB32142  13.689  11.694   6.266  0.0755 -0.4933  0.3521
  896PEP     CB32143  13.566  11.818   5.865 -0.3180  0.4840  0.1799
  896PEP     CB32144  13.346  11.889   5.422 -0.2223  0.4368  0.3006
  896PEP     CB32145  13.240  12.063   5.047 -0.0540 -0.0513  0.0758
  896PEP     CB32146  13.147  12.441   4.755 -0.2278  0.1211  0.1650
  896PEP     CB32147  12.888  12.610   4.323 -0.3640 -0.2996  0.0460
  896PEP     CB32148  12.943  12.308   4.016 -0.3189  0.0360  0.0949
  896PEP     CB32149  13.178  11.981   3.904 -0.2003 -0.2947 -0.2254
  896PEP     CB32150  13.314  11.661   4.253  0.4378  0.2701 -0.3074
  896PEP     CB32151  13.166  11.583   4.657 -0.2874  0.4910 -0.1396
  896PEP     CB32152  12.971  11.467   5.110 -0.3319  0.2145 -0.0347
  896PEP     CB32153  12.974  11.517   5.616  0.1193  0.1215 -0.0570
  896PEP     CB32154  13.059  11.934   5.911  0.2903  0.0994  0.0629
  896PEP     CB32155  13.243  12.370   5.863  0.0299 -0.0801  0.0016
  896PEP     CB32156  13.461  12.543   5.573  0.3877  0.0930  0.0795
  896PEP     CB32157  13.982  12.584   5.414 -0.4684 -0.1248  0.1327
  896PEP     CB32158  14.290  12.369   5.287  0.3100 -0.0535 -0.4429
  896PEP     CB32159  14.480  12.366   4.909 -0.1742  0.1665  0.1929
  896PEP     CB32160  14.921  12.457   4.810  0.1306  0.0249 -0.2806
  897PEP     CB32161  18.223   2.521  16.044  0.2834  0.3115 -0.0007
  897PEP     CB32162  18.370   2.682  15.630  0.0809  0.1404  0.2508
  897PEP     CB32163  18.493   2.550  15.198  0.1963  0.1605  0.3891
  897PEP     CB32164  18.593   2.451  14.691 -0.2392  0.1198 -0.0945
  897PEP     CB32165  18.574   2.681  14.300  0.0272 -0.2016  0.2505
  897PEP     CB32166  18.659   2.983  14.071 -0.3992 -0.1831 -0.2973
  897PEP     CB32167  18.495   3.471  14.072  0.0413  0.4295 -0.4057
  897PEP     CB32168  18.144   3.683  14.015  0.0382  0.6264 -0.2196
  897PEP     CB32169  17.766   3.918  13.901  0.1754  0.1335 -0.4235
  897PEP     CB32170  17.385   3.894  13.808 -0.0155 -0.0494  0.3158
  897PEP     CB32171  17.003   3.642  13.915  0.2281  0.0707 -0.2702
  897PEP     CB32172  16.768   3.432  13.753 -0.2731 -0.2004  0.1355
  897PEP     CB32173  16.584   3.179  13.421 -0.3052 -0.3878  0.2920
  897PEP     CB32174  16.690   2.838  13.177 -0.0265 -0.1393  0.1482
  897PEP     CB32175  16.804   2.455  12.919  0.4417 -0.1426  0.0172
  897PEP     CB32176  17.160   2.319  12.808 -0.0425  0.2191 -0.1467
  897PEP     CB32177  17.394   1.936  13.026  0.4690  0.2479 -0.1980
  897PEP     CB32178  17.421   1.897  13.452 -0.1515 -0.3904 -0.1999
  897PEP     CB32179  17.200   1.904  13.840 -0.1998  0.2551  0.2631
  897PEP     CB32180  16.890   1.680  13.997  0.3576 -0.0158  0.0620
  897PEP     CB32181  16.486   1.413  13.830  0.0614  0.1366 -0.2104
  897PEP     CB32182  16.322   1.127  13.580  0.1305 -0.1750 -0.0161
  897PEP     CB32183  16.188   0.726  13.604 -0.0746 -0.1790  0.1042
  897PEP     CB32184  16.093   0.329  13.322  0.2734 -0.2746 -0.1339
  897PEP     CB32185  16.371   0.047  13.081  0.1106 -0.1384  0.0782
  897PEP     CB32186  16.394  -0.342  12.859 -0.0180 -0.3078 -0.5170
  897PEP     CB32187  16.508  -0.738  12.700 -0.2604 -0.1572 -0.0986
  897PEP     CB32188  17.020  -0.798  12.548  0.1976 -0.3833  0.2033
  897PEP     CB32189  17.283  -0.426  12.479  0.3777  0.3621 -0.4373
  897PEP     CB32190  17.497  -0.197  12.223 -0.1279 -0.3331  0.2034
  897PEP     CB32191  17.775   0.040  11.950  0.5410 -0.2988  0.2980
  897PEP     CB32192  18.092   0.070  11.735  0.0536 -0.2365 -0.0924
  897PEP     CB32193  18.504   0.208  11.748 -0.0730  0.1849 -0.4973
  897PEP     CB32194  18.884   0.051  11.835  0.2744 -0.1786 -0.2004
  897PEP     CB32195  19.002  -0.356  12.042  0.2357  0.1056 -0.1043
  897PEP     CB32196  18.750  -0.730  12.013  0.2645  0.0113  0.1533
  897PEP     CB32197  18.499  -1.161  12.003 -0.2055  0.3649 -0.1535
  897PEP     CB32198  18.524  -1.590  11.841 -0.4724  0.2798  0.1161
  897PEP     CB32199  18.834  -1.901  11.879 -0.2924 -0.1764  0.0108
  897PEP     CB32200  19.087  -2.011  12.223 -0.2302  0.0335  0.0740
  898PEP     CB32201   3.174  19.009   7.799  0.2988  0.1526 -0.0714
  898PEP     CB32202   3.286  18.649   8.014  0.2006  0.0337  0.0795
  898PEP     CB32203   3.382  18.235   7.869 -0.1445  0.0697 -0.0854
  898PEP     CB32204   3.589  17.955   8.156  0.0269 -0.1566  0.1902
  898PEP     CB32205   3.684  18.117   8.593  0.0572  0.1934  0.1015
  898PEP     CB32206   4.029  18.434   8.743  0.0906 -0.0246  0.0231
  898PEP     CB32207   4.370  18.695   8.443 -0.0027  0.0447  0.3969
  898PEP     CB32208   4.485  19.107   8.421 -0.1482  0.1206 -0.3632
  898PEP     CB32209   4.606  19.314   8.709  0.1313  0.0970  0.4059
  898PEP     CB32210   4.444  19.272   9.056 -0.0449  0.2064 -0.0540
  898PEP     CB32211   4.018  19.258   9.234  0.1060  0.0508 -0.3918
  898PEP     CB32212   3.683  19.026   9.117 -0.1472  0.2532  0.1329
  898PEP     CB32213   3.413  19.152   8.782  0.6491  0.0732 -0.0455
  898PEP     CB32214   3.400  19.539   8.661  0.2013  0.1727 -0.3357
  898PEP     CB32215   3.217  19.911   8.388 -0.0023  0.0817 -0.1773
  898PEP     CB32216   2.798  20.241   8.345 -0.4143 -0.3311  0.1552
  898PEP     CB32217   2.690  20.458   8.694  0.0373  0.4463 -0.1295
  898PEP     CB32218   2.808  20.537   9.183 -0.0827  0.1543 -0.0932
  898PEP     CB32219   2.905  20.420   9.536  0.4005 -0.5483 -0.1139
  898PEP     CB32220   2.623  20.169   9.769 -0.0417  0.0497 -0.0299
  898PEP     CB32221   2.357  20.161  10.087 -0.0052  0.2271 -0.1176
  898PEP     CB32222   2.066  20.350  10.422 -0.3113 -0.2714 -0.2534
  898PEP     CB32223   1.815  20.406  10.676  0.0115  0.0047 -0.0112
  898PEP     CB32224   1.417  20.214  10.849 -0.0536  0.2267 -0.2219
  898PEP     CB32225   1.270  19.787  11.095 -0.0657  0.1243 -0.0227
  898PEP     CB32226   0.960  19.441  11.285 -0.1595  0.3259  0.1034
  898PEP     CB32227   0.588  19.208  11.268 -0.6672 -0.0927 -0.1724
  898PEP     CB32228   0.310  18.865  11.181  0.1673  0.2432  0.3425
  898PEP     CB32229   0.018  18.773  11.551 -0.4860  0.4596 -0.1137
  898PEP     CB32230   0.067  18.943  11.981 -0.1103 -0.0078  0.3559
  898PEP     CB32231  -0.157  19.024  12.478 -0.1105 -0.3856  0.2565
  898PEP     CB32232  -0.587  19.040  12.626  0.1309 -0.0448  0.0838
  898PEP     CB32233  -0.941  19.297  12.745  0.2850  0.0503 -0.1439
  898PEP     CB32234  -1.405  19.304  12.873 -0.0744 -0.1576 -0.0617
  898PEP     CB32235  -1.870  19.243  12.936 -0.2975 -0.1030 -0.2276
  898PEP     CB32236  -2.251  19.022  12.986  0.1496  0.1498 -0.2414
  898PEP     CB32237  -2.701  18.810  13.022  0.3421 -0.3786  0.4851
  898PEP     CB32238  -2.942  18.495  13.223  0.0545  0.0546 -0.0988
  898PEP     CB32239  -3.202  18.199  13.061 -0.3121  0.1026 -0.0400
  898PEP     CB32240  -3.405  18.224  12.665  0.3813 -0.1016 -0.3771
  899PEP     CB32241  20.045   4.681   4.042 -0.2034  0.1311 -0.1889
  899PEP     CB32242  20.284   4.371   4.271 -0.0605  0.1825 -0.0255
  899PEP     CB32243  20.195   4.232   4.670  0.1789 -0.0642  0.5245
  899PEP     CB32244  20.164   4.003   5.127 -0.0712  0.2664 -0.3633
  899PEP     CB32245  19.869   3.857   5.436 -0.1638 -0.2832 -0.1304
  899PEP     CB32246  19.478   3.975   5.449 -0.0745  0.0496 -0.6025
  899PEP     CB32247  19.093   4.024   5.115 -0.0007  0.2541 -0.0710
  899PEP     CB32248  18.618   4.212   4.984 -0.1190  0.1063  0.2410
  899PEP     CB32249  18.235   4.062   4.880 -0.1916 -0.6395 -0.4483
  899PEP     CB32250  18.014   3.623   4.937 -0.1044 -0.0696  0.3153
  899PEP     CB32251  17.728   3.382   4.738  0.2040 -0.2399 -0.1961
  899PEP     CB32252  17.382   3.273   4.544 -0.2754  0.3582 -0.0004
  899PEP     CB32253  17.086   2.936   4.591  0.0960  0.0943  0.0436
  899PEP     CB32254  17.002   2.768   5.035  0.5153 -0.1295  0.3354
  899PEP     CB32255  16.734   3.026   5.455 -0.1918  0.0476 -0.0191
  899PEP     CB32256  16.565   3.451   5.408  0.0593  0.0368  0.1031
  899PEP     CB32257  16.534   3.750   5.074  0.3225  0.1392 -0.1448
  899PEP     CB32258  16.668   3.899   4.576 -0.2626 -0.2071 -0.1905
  899PEP     CB32259  16.736   3.771   4.253  0.1514 -0.1924  0.0686
  899PEP     CB32260  16.491   3.558   3.937 -0.3814 -0.1878  0.0668
  899PEP     CB32261  16.250   3.506   3.618 -0.1907 -0.3912 -0.0990
  899PEP     CB32262  15.744   3.572   3.551  0.1534 -0.1065 -0.3289
  899PEP     CB32263  15.372   3.730   3.685  0.2004  0.0265  0.0162
  899PEP     CB32264  14.974   3.656   3.818  0.1553 -0.1661 -0.3599
  899PEP     CB32265  14.539   3.737   3.903  0.0939  0.1793 -0.3159
  899PEP     CB32266  14.461   4.005   4.227 -0.1530  0.0704  0.0412
  899PEP     CB32267  14.663   4.245   4.500 -0.0919  0.0532  0.2309
  899PEP     CB32268  14.848   4.571   4.782  0.2718  0.1014 -0.0900
  899PEP     CB32269  15.192   4.696   4.977 -0.0214 -0.1862  0.1203
  899PEP     CB32270  15.407   4.422   5.264 -0.3800 -0.1176  0.1418
  899PEP     CB32271  15.783   4.285   5.313 -0.1664 -0.0037  0.3123
  899PEP     CB32272  16.112   4.148   5.022  0.1822 -0.0437  0.1255
  899PEP     CB32273  16.150   3.833   4.704  0.3618  0.0263  0.0792
  899PEP     CB32274  16.290   3.512   4.413 -0.4950  0.3736 -0.0386
  899PEP     CB32275  16.568   3.199   4.370  0.0379 -0.0184  0.2012
  899PEP     CB32276  16.832   2.877   4.184 -0.4759 -0.1532  0.4853
  899PEP     CB32277  16.925   2.531   3.958 -0.0666  0.1478  0.3195
  899PEP     CB32278  17.139   2.389   3.599 -0.3876 -0.3005 -0.2820
  899PEP     CB32279  17.179   2.136   3.211 -0.4257 -0.0200  0.2273
  899PEP     CB32280  17.379   1.747   3.148 -0.2539 -0.2137 -0.2991
  900PEP     CB32281  18.554  17.952   4.623 -0.0008 -0.0374  0.1203
  900PEP     CB32282  18.266  18.278   4.559  0.0846 -0.0364  0.3956
  900PEP     CB32283  17.870  18.566   4.703  0.0110  0.0766 -0.0299
  900PEP     CB32284  17.887  18.825   5.011 -0.3449  0.2459 -0.5113
  900PEP     CB32285  18.266  18.971   5.162 -0.0691 -0.2876  0.2045
  900PEP     CB32286  18.586  18.915   4.901 -0.4551  0.2117  0.1297
  900PEP     CB32287  18.550  18.711   4.552 -0.0574  0.0998 -0.0745
  900PEP     CB32288  18.101  18.734   4.322  0.0859  0.1999 -0.2017
  900PEP     CB32289  17.891  18.949   3.967 -0.2260 -0.1614 -0.1169
  900PEP     CB32290  17.569  19.136   3.783  0.1643  0.2696  0.4017
  900PEP     CB32291  17.100  19.144   3.631 -0.0267  0.1522  0.2161
  900PEP     CB32292  16.882  19.122   3.271 -0.1364 -0.2300  0.5845
  900PEP     CB32293  16.771  19.149   2.872  0.1038 -0.0437 -0.0026
  900PEP     CB32294  16.481  19.154   2.441 -0.3496  0.0760 -0.2026
  900PEP     CB32295  16.149  19.108   2.124  0.0805  0.1456  0.0826
  900PEP     CB32296  15.808  19.159   1.856 -0.4296  0.2278  0.1939
  900PEP     CB32297  15.405  19.289   1.832 -0.1190 -0.0375  0.2645
  900PEP     CB32298  15.088  19.434   1.891  0.1745  0.4163  0.0410
  900PEP     CB32299  14.890  19.824   1.934 -0.2832  0.0105 -0.0914
  900PEP     CB32300  15.109  20.247   1.706  0.3607 -0.0474  0.2183
  900PEP     CB32301  15.586  20.189   1.697 -0.0770  0.0942 -0.1468
  900PEP     CB32302  15.787  19.832   1.905  0.1808 -0.4319 -0.3117
  900PEP     CB32303  15.551  19.586   2.294 -0.1267 -0.0605  0.0247
  900PEP     CB32304  15.178  19.526   2.374  0.0537 -0.1339  0.2349
  900PEP     CB32305  14.915  19.898   2.415  0.2042  0.0735 -0.0634
  900PEP     CB32306  14.919  20.314   2.199 -0.1492  0.0114 -0.2077
  900PEP     CB32307  14.713  20.620   1.896  0.0464  0.0128  0.0806
  900PEP     CB32308  14.563  20.487   1.456 -0.0445 -0.0093  0.2576
  900PEP     CB32309  14.704  20.486   0.991  0.1558 -0.2006  0.3799
  900PEP     CB32310  15.121  20.728   0.826  0.0940 -0.0922 -0.1097
  900PEP     CB32311  15.495  20.818   1.035 -0.0092 -0.2107 -0.0262
  900PEP     CB32312  15.786  20.955   1.409 -0.0761  0.2656 -0.0845
  900PEP     CB32313  16.179  21.120   1.501  0.1146  0.0999  0.2079
  900PEP     CB32314  16.488  21.164   1.217  0.3687  0.1009  0.3816
  900PEP     CB32315  16.907  20.950   1.231  0.1183 -0.5560  0.3420
  900PEP     CB32316  17.080  20.629   1.605  0.1305  0.1820 -0.1223
  900PEP     CB32317  17.354  20.230   1.670 -0.2449 -0.3228  0.2019
  900PEP     CB32318  17.590  19.879   1.590  0.1248  0.1915  0.0466
  900PEP     CB32319  17.935  19.653   1.304  0.3322 -0.3406 -0.5206
  900PEP     CB32320  18.236  19.511   1.057  0.0789 -0.0602 -0.1064
  901PEP     CB32321   2.305  14.886   7.880  0.0680  0.0996 -0.0037
  901PEP     CB32322   2.249  14.644   8.304 -0.1346  0.1187  0.0917
  901PEP     CB32323   2.090  14.598   8.722  0.0505 -0.1493 -0.1025
  901PEP     CB32324   2.273  14.389   9.131  0.0832 -0.2823 -0.0495
  901PEP     CB32325   2.365  14.110   9.378 -0.3539  0.1609 -0.4125
  901PEP     CB32326   2.377  13.781   9.717 -0.1084  0.0148 -0.5082
  901PEP     CB32327   2.149  13.534   9.940 -0.0170 -0.0213  0.0116
  901PEP     CB32328   2.120  13.715  10.316  0.4817  0.1137 -0.0866
  901PEP     CB32329   2.430  13.969  10.494 -0.2683 -0.0389 -0.2211
  901PEP     CB32330   2.779  14.240  10.403  0.4613  0.5361  0.2886
  901PEP     CB32331   3.118  14.437  10.397  0.3239 -0.0355 -0.2034
  901PEP     CB32332   3.415  14.753  10.221 -0.3844  0.1361 -0.1624
  901PEP     CB32333   3.323  15.167   9.992  0.5776  0.0092  0.0219
  901PEP     CB32334   2.944  15.409  10.018  0.0788  0.0640 -0.1732
  901PEP     CB32335   2.774  15.783  10.175  0.1174  0.2012  0.1127
  901PEP     CB32336   2.505  16.203  10.232  0.0333 -0.3999 -0.0034
  901PEP     CB32337   2.320  16.401   9.941 -0.2262  0.2651 -0.2307
  901PEP     CB32338   2.192  16.590   9.584 -0.3643  0.0533 -0.1944
  901PEP     CB32339   2.136  16.997   9.308  0.2358 -0.0422 -0.2032
  901PEP     CB32340   2.459  17.316   9.079 -0.2175  0.1124 -0.2393
  901PEP     CB32341   2.856  17.514   9.136  0.1583 -0.3635  0.0836
  901PEP     CB32342   3.103  17.853   9.328  0.5934 -0.0578  0.0026
  901PEP     CB32343   3.169  18.257   9.323 -0.2538  0.3026  0.1897
  901PEP     CB32344   3.283  18.419   9.732  0.1937 -0.0894  0.0018
  901PEP     CB32345   3.243  18.758  10.098 -0.2287 -0.3030  0.0108
  901PEP     CB32346   3.227  18.831  10.550  0.2202  0.0535 -0.1850
  901PEP     CB32347   2.844  18.836  10.874  0.0167 -0.4938 -0.0204
  901PEP     CB32348   2.545  19.210  10.871  0.2189 -0.2085 -0.0703
  901PEP     CB32349   2.605  19.583  10.902  0.0983  0.1112 -0.1510
  901PEP     CB32350   3.006  19.789  10.909 -0.1954 -0.0635 -0.1172
  901PEP     CB32351   3.433  19.682  10.780  0.0531 -0.6228 -0.1737
  901PEP     CB32352   3.864  19.735  10.738 -0.0097 -0.0727  0.4572
  901PEP     CB32353   4.238  19.705  10.677  0.1310  0.1577 -0.1977
  901PEP     CB32354   4.498  19.281  10.703 -0.0155  0.1412  0.1220
  901PEP     CB32355   4.394  18.812  10.534  0.0216  0.3538  0.1103
  901PEP     CB32356   4.202  18.418  10.621 -0.0011  0.0149  0.1025
  901PEP     CB32357   3.772  18.199  10.739 -0.3330  0.4924 -0.1316
  901PEP     CB32358   3.699  17.817  10.814 -0.1133 -0.0702 -0.0268
  901PEP     CB32359   3.935  17.548  10.553  0.1425  0.0076  0.2314
  901PEP     CB32360   4.291  17.626  10.306  0.3624 -0.4546 -0.0829
  902PEP     CB32361  21.405  13.416   0.692  0.0929  0.3538  0.0642
  902PEP     CB32362  21.639  13.567   0.322  0.1782  0.3179 -0.1356
  902PEP     CB32363  21.980  13.620  -0.042  0.0038  0.0727  0.5481
  902PEP     CB32364  22.460  13.766  -0.216 -0.3532 -0.1799 -0.3802
  902PEP     CB32365  22.603  14.182  -0.286 -0.6242 -0.0646 -0.0439
  902PEP     CB32366  22.537  14.606  -0.192 -0.0533  0.1378 -0.0529
  902PEP     CB32367  22.627  14.973   0.092  0.3989 -0.0902  0.7742
  902PEP     CB32368  22.755  15.332   0.382  0.0396  0.2936 -0.1425
  902PEP     CB32369  22.905  15.663   0.720  0.1237  0.0780 -0.0250
  902PEP     CB32370  23.141  15.702   1.058  0.2373  0.0971 -0.1692
  902PEP     CB32371  23.077  15.705   1.522  0.0904 -0.1451 -0.1815
  902PEP     CB32372  22.692  15.908   1.763 -0.0018  0.1602 -0.1616
  902PEP     CB32373  22.479  16.209   2.036  0.3218  0.2029  0.0311
  902PEP     CB32374  22.185  16.410   2.179  0.2731  0.0210  0.3337
  902PEP     CB32375  21.880  16.691   2.428 -0.1758  0.0931 -0.0456
  902PEP     CB32376  22.007  17.070   2.624 -0.1595 -0.0009 -0.1243
  902PEP     CB32377  22.449  17.276   2.430 -0.2233  0.0449  0.3461
  902PEP     CB32378  22.456  17.368   2.022  0.0346 -0.1789 -0.0404
  902PEP     CB32379  22.165  17.448   1.768  0.1227 -0.1347 -0.2053
  902PEP     CB32380  21.769  17.382   1.628 -0.0019 -0.1628  0.3241
  902PEP     CB32381  21.357  17.140   1.668 -0.2965 -0.0627  0.1771
  902PEP     CB32382  21.136  16.882   1.311  0.0775 -0.2266  0.0478
  902PEP     CB32383  20.715  16.774   1.221 -0.0045 -0.2668  0.0193
  902PEP     CB32384  20.419  16.600   0.889  0.0862  0.2178  0.5204
  902PEP     CB32385  20.473  16.317   0.390 -0.0934  0.1424  0.2571
  902PEP     CB32386  20.887  16.205   0.161 -0.0604  0.3576  0.4351
  902PEP     CB32387  21.322  16.437   0.302 -0.0976 -0.3993 -0.0487
  902PEP     CB32388  21.494  16.609   0.699  0.2228  0.1217 -0.2105
  902PEP     CB32389  21.710  16.608   1.024  0.1461  0.1212 -0.0340
  902PEP     CB32390  21.909  16.362   1.304 -0.0422 -0.1192 -0.1085
  902PEP     CB32391  22.208  16.428   1.644  0.2799 -0.0769 -0.0600
  902PEP     CB32392  22.681  16.338   1.654  0.1643  0.2943  0.0407
  902PEP     CB32393  23.159  16.324   1.558 -0.0080  0.0765  0.1180
  902PEP     CB32394  23.554  16.411   1.439  0.4373  0.2410 -0.0494
  902PEP     CB32395  23.811  16.514   1.038  0.4161  0.0420 -0.0296
  902PEP     CB32396  24.208  16.499   0.779  0.1194 -0.0858  0.2752
  902PEP     CB32397  24.526  16.738   0.548  0.3553  0.2271  0.4814
  902PEP     CB32398  24.867  16.953   0.483 -0.2179 -0.4327 -0.0614
  902PEP     CB32399  25.098  17.143   0.805  0.0772 -0.0898 -0.1966
  902PEP     CB32400  25.512  17.133   1.016 -0.3176  0.0905 -0.0494
  903PEP     CB32401  14.324   8.373   0.839  0.1650  0.0370  0.1281
  903PEP     CB32402  14.271   8.706   1.104  0.2694  0.2776  0.0186
  903PEP     CB32403  13.960   8.986   1.293 -0.4080  0.5413 -0.5429
  903PEP     CB32404  13.827   9.318   1.554 -0.0363 -0.3986 -0.2324
  903PEP     CB32405  13.879   9.497   1.976 -0.0281  0.0167 -0.1800
  903PEP     CB32406  13.948   9.364   2.434  0.0355  0.2383 -0.1224
  903PEP     CB32407  13.895   9.357   2.892 -0.2845 -0.0246 -0.0374
  903PEP     CB32408  13.790   9.692   3.082 -0.0690  0.0590  0.0854
  903PEP     CB32409  13.754  10.220   3.214 -0.3202  0.1976 -0.1516
  903PEP     CB32410  13.472  10.522   3.278  0.4290  0.1573  0.1970
  903PEP     CB32411  13.169  10.799   3.072  0.2390 -0.1764  0.2553
  903PEP     CB32412  12.874  11.005   2.949  0.2312  0.2738  0.1033
  903PEP     CB32413  12.671  11.361   3.014 -0.1836 -0.1681  0.2911
  903PEP     CB32414  12.358  11.675   3.041  0.3236  0.4089  0.1832
  903PEP     CB32415  12.126  11.968   2.948 -0.2604 -0.1336  0.0206
  903PEP     CB32416  12.323  12.371   2.802 -0.0342 -0.4753  0.0528
  903PEP     CB32417  12.789  12.424   2.510  0.4132  0.2524  0.2005
  903PEP     CB32418  13.047  12.494   2.128 -0.3246 -0.0137  0.3004
  903PEP     CB32419  13.293  12.428   1.780  0.2339 -0.0417 -0.2106
  903PEP     CB32420  13.364  12.238   1.367 -0.3577  0.1256  0.0237
  903PEP     CB32421  13.554  11.968   0.937  0.1726 -0.4844  0.4738
  903PEP     CB32422  13.714  12.130   0.537 -0.4370  0.0632 -0.2427
  903PEP     CB32423  14.074  12.407   0.436  0.1672  0.2177 -0.1855
  903PEP     CB32424  14.402  12.463   0.012 -0.0207  0.1434 -0.2551
  903PEP     CB32425  14.447  12.807  -0.155  0.1720 -0.3403 -0.0554
  903PEP     CB32426  14.706  13.171  -0.325  0.0912  0.0641  0.0227
  903PEP     CB32427  14.738  13.530  -0.665  0.2981 -0.3470  0.4718
  903PEP     CB32428  14.917  13.950  -0.909 -0.1694 -0.0007 -0.1207
  903PEP     CB32429  14.961  14.401  -0.978 -0.0282 -0.1148  0.0436
  903PEP     CB32430  15.222  14.711  -1.229  0.1908  0.1406 -0.0141
  903PEP     CB32431  15.425  15.004  -1.533  0.1431  0.5400 -0.0255
  903PEP     CB32432  15.791  15.217  -1.556 -0.0913  0.0669  0.0969
  903PEP     CB32433  16.180  15.162  -1.803 -0.0362 -0.5501  0.4473
  903PEP     CB32434  16.436  14.805  -2.001  0.2428 -0.0938  0.1205
  903PEP     CB32435  16.340  14.383  -2.258 -0.1460  0.2247 -0.2345
  903PEP     CB32436  16.360  13.904  -2.428  0.0508  0.2733 -0.0935
  903PEP     CB32437  16.212  13.611  -2.718  0.3872  0.2702  0.2836
  903PEP     CB32438  16.237  13.367  -3.123  0.1310  0.1994 -0.4804
  903PEP     CB32439  16.345  13.530  -3.434  0.2173 -0.4935  0.2268
  903PEP     CB32440  16.201  13.571  -3.885  0.3076 -0.0271  0.1074
  904PEP     CB32441   8.167   0.121   9.216  0.3289  0.3090  0.4659
  904PEP     CB32442   8.495  -0.166   9.093 -0.2898 -0.5548 -0.0213
  904PEP     CB32443   8.767  -0.401   8.873  0.0726  0.2182  0.3142
  904PEP     CB32444   8.886  -0.788   8.615 -0.3229  0.2936  0.1358
  904PEP     CB32445   9.129  -0.973   8.245  0.5740 -0.2684 -0.0745
  904PEP     CB32446   9.304  -1.189   7.978  0.3101  0.0121 -0.0773
  904PEP     CB32447   9.596  -1.346   7.794 -0.2529  0.1954 -0.0761
  904PEP     CB32448   9.559  -1.773   7.818 -0.2428 -0.1651  0.1226
  904PEP     CB32449   9.411  -2.052   8.056 -0.0405 -0.0945  0.1168
  904PEP     CB32450   9.160  -1.999   8.386  0.0870  0.3495  0.1745
  904PEP     CB32451   8.996  -1.830   8.748  0.2177  0.2640  0.1708
  904PEP     CB32452   8.831  -1.923   9.196  0.0853 -0.1695  0.1235
  904PEP     CB32453   8.567  -2.232   9.415  0.3187  0.2494  0.0423
  904PEP     CB32454   8.264  -2.470   9.655 -0.3257  0.0124  0.4428
  904PEP     CB32455   7.901  -2.630   9.860  0.0091 -0.0478  0.3542
  904PEP     CB32456   7.537  -2.798   9.842  0.3300 -0.2446 -0.0656
  904PEP     CB32457   7.404  -3.224   9.973 -0.4234  0.0146  0.1168
  904PEP     CB32458   7.603  -3.592   9.814 -0.3044  0.0651  0.1352
  904PEP     CB32459   7.897  -3.612   9.485  0.3545  0.0904 -0.1252
  904PEP     CB32460   8.332  -3.458   9.273  0.2901 -0.1921  0.2776
  904PEP     CB32461   8.514  -3.057   9.354  0.1010  0.1623  0.1860
  904PEP     CB32462   8.477  -2.868   9.789 -0.3123 -0.0379 -0.4246
  904PEP     CB32463   8.529  -2.701  10.287  0.0731  0.1189 -0.0421
  904PEP     CB32464   8.518  -2.870  10.700 -0.0407  0.0372  0.0567
  904PEP     CB32465   8.428  -3.151  10.969 -0.2238 -0.0734 -0.1534
  904PEP     CB32466   8.202  -3.475  11.024 -0.1274  0.0426 -0.0533
  904PEP     CB32467   7.968  -3.643  10.709  0.2372  0.2140  0.2392
  904PEP     CB32468   7.655  -3.417  10.582 -0.0626  0.0504  0.2881
  904PEP     CB32469   7.423  -3.086  10.714 -0.3157 -0.0121  0.2297
  904PEP     CB32470   7.007  -3.067  10.857  0.0164 -0.0621 -0.0396
  904PEP     CB32471   6.698  -3.079  11.178  0.1556 -0.4164  0.1517
  904PEP     CB32472   6.413  -2.716  11.325 -0.0225  0.0943  0.0652
  904PEP     CB32473   6.178  -2.286  11.292 -0.1533 -0.4294  0.1503
  904PEP     CB32474   6.035  -1.969  11.139 -0.1111 -0.3244  0.3147
  904PEP     CB32475   5.713  -1.997  10.790  0.1698 -0.3119 -0.2182
  904PEP     CB32476   5.311  -2.269  10.610  0.2092 -0.2010 -0.0935
  904PEP     CB32477   4.961  -2.519  10.837  0.1700 -0.1225  0.0362
  904PEP     CB32478   5.125  -2.886  11.226  0.0466 -0.3307 -0.0316
  904PEP     CB32479   5.034  -2.840  11.649 -0.0135 -0.0173  0.0513
  904PEP     CB32480   5.220  -2.462  11.919  0.0679  0.0727  0.1740
  905PEP     CB32481  10.810   0.943  14.154  0.0594  0.0498  0.1816
  905PEP     CB32482  10.787   0.546  14.491  0.3262 -0.4759  0.4212
  905PEP     CB32483  10.773   0.202  14.876  0.1111  0.3965  0.0838
  905PEP     CB32484  10.651  -0.212  14.954 -0.1193 -0.0866  0.0507
  905PEP     CB32485  10.534  -0.682  15.152  0.3624 -0.5629  0.1458
  905PEP     CB32486  10.576  -1.120  15.304 -0.0751 -0.3110 -0.0530
  905PEP     CB32487  10.788  -1.340  15.448  0.0007  0.0612  0.3521
  905PEP     CB32488  11.095  -1.715  15.639 -0.0348 -0.2539 -0.0087
  905PEP     CB32489  11.430  -1.672  15.857 -0.1889  0.4525 -0.1248
  905PEP     CB32490  11.656  -1.259  15.967  0.1338  0.1022  0.1804
  905PEP     CB32491  11.739  -0.788  16.079 -0.2906  0.0430 -0.0888
  905PEP     CB32492  11.899  -0.406  16.241  0.3816 -0.0285 -0.0071
  905PEP     CB32493  12.197  -0.356  16.594 -0.0750 -0.1924 -0.0925
  905PEP     CB32494  12.588  -0.541  16.675 -0.2589  0.3396 -0.0699
  905PEP     CB32495  12.963  -0.484  16.477  0.2729 -0.1768  0.1748
  905PEP     CB32496  13.146  -0.205  16.145 -0.0087 -0.0257  0.6975
  905PEP     CB32497  13.370   0.172  15.957 -0.0806 -0.0305 -0.1192
  905PEP     CB32498  13.691   0.156  15.626 -0.5821  0.2323 -0.1446
  905PEP     CB32499  13.770  -0.126  15.173 -0.1518 -0.0520  0.1111
  905PEP     CB32500  13.696   0.020  14.741 -0.0388 -0.0566 -0.2013
  905PEP     CB32501  13.535   0.281  14.492 -0.2322  0.0940  0.0514
  905PEP     CB32502  13.225   0.310  14.088 -0.3419 -0.2160 -0.1000
  905PEP     CB32503  12.859   0.179  13.791  0.0313  0.1249  0.1547
  905PEP     CB32504  12.606  -0.149  13.544  0.0403 -0.1337 -0.2111
  905PEP     CB32505  12.495  -0.551  13.644  0.0105  0.0550 -0.0214
  905PEP     CB32506  12.345  -0.947  13.629 -0.2409  0.1199  0.1158
  905PEP     CB32507  12.035  -1.165  13.543  0.1607  0.1397  0.1437
  905PEP     CB32508  11.617  -1.112  13.559 -0.2992 -0.2780 -0.2790
  905PEP     CB32509  11.325  -0.866  13.836 -0.3993  0.0151  0.1586
  905PEP     CB32510  11.505  -0.819  14.296 -0.0658  0.1945 -0.3138
  905PEP     CB32511  11.887  -1.046  14.441 -0.0657  0.4152 -0.0896
  905PEP     CB32512  12.172  -1.372  14.174 -0.2924 -0.0487  0.1572
  905PEP     CB32513  12.417  -1.393  13.844 -0.0184  0.0149 -0.2704
  905PEP     CB32514  12.575  -1.420  13.417  0.0110 -0.0377 -0.3651
  905PEP     CB32515  12.356  -1.562  13.164  0.1132 -0.0605  0.2191
  905PEP     CB32516  12.187  -1.603  12.683 -0.2022 -0.2322 -0.0855
  905PEP     CB32517  12.061  -1.790  12.323  0.3824  0.2019 -0.2909
  905PEP     CB32518  11.955  -1.982  11.945 -0.0228 -0.2225 -0.3217
  905PEP     CB32519  11.595  -2.085  11.886  0.2779 -0.1570  0.3260
  905PEP     CB32520  11.264  -1.977  11.618  0.0169 -0.2484 -0.1652
  906PEP     CB32521   7.051  12.224   3.378 -0.0999 -0.1489 -0.1450
  906PEP     CB32522   7.447  12.017   3.526  0.2284 -0.1970 -0.0309
  906PEP     CB32523   7.700  11.693   3.677  0.1052  0.1566  0.0636
  906PEP     CB32524   8.001  11.365   3.594  0.3131 -0.3194 -0.2693
  906PEP     CB32525   8.397  11.249   3.745 -0.0427 -0.2231  0.2670
  906PEP     CB32526   8.586  10.946   3.973  0.4847  0.3736 -0.2281
  906PEP     CB32527   8.751  10.608   4.069 -0.2896 -0.1071  0.2422
  906PEP     CB32528   8.586  10.234   4.228  0.4387  0.1235 -0.2563
  906PEP     CB32529   8.361   9.954   4.138 -0.4628 -0.2589  0.0977
  906PEP     CB32530   7.872  10.033   4.053 -0.2062 -0.0196  0.0151
  906PEP     CB32531   7.651  10.214   3.697 -0.4509 -0.0197 -0.0578
  906PEP     CB32532   7.816  10.250   3.202 -0.0172 -0.0044  0.0904
  906PEP     CB32533   7.805  10.052   2.805  0.2084  0.0166  0.1333
  906PEP     CB32534   8.012   9.781   2.567 -0.0655  0.1930  0.2271
  906PEP     CB32535   8.115   9.369   2.674 -0.3459 -0.0069 -0.4634
  906PEP     CB32536   8.014   9.109   3.038 -0.6862 -0.3538  0.1835
  906PEP     CB32537   7.812   9.275   3.495 -0.1376 -0.1056  0.2379
  906PEP     CB32538   7.727   9.707   3.551 -0.1333  0.0699 -0.2405
  906PEP     CB32539   7.318   9.802   3.810 -0.1058 -0.0302 -0.1931
  906PEP     CB32540   6.987   9.513   3.843  0.3496 -0.0774  0.0598
  906PEP     CB32541   7.050   9.061   3.735 -0.0170 -0.2847 -0.0705
  906PEP     CB32542   7.435   8.978   3.917 -0.0142  0.2764 -0.0214
  906PEP     CB32543   7.739   9.276   4.054 -0.1426  0.0985 -0.1202
  906PEP     CB32544   7.553   9.684   4.205  0.1753 -0.0506 -0.0334
  906PEP     CB32545   7.143   9.727   4.247 -0.3057  0.2047  0.2220
  906PEP     CB32546   6.715   9.407   4.303  0.0079 -0.1084  0.0438
  906PEP     CB32547   6.223   9.462   4.177  0.1857 -0.1126  0.1097
  906PEP     CB32548   5.886   9.385   3.859 -0.3245  0.0589  0.1583
  906PEP     CB32549   5.705   9.256   3.417 -0.0194  0.2620  0.0501
  906PEP     CB32550   5.502   9.433   3.045  0.0902 -0.1357 -0.1322
  906PEP     CB32551   5.587   9.728   2.800 -0.1189 -0.0988  0.0302
  906PEP     CB32552   5.645  10.164   2.764 -0.0617 -0.2774 -0.1256
  906PEP     CB32553   5.825  10.621   2.736  0.0173 -0.0722 -0.1428
  906PEP     CB32554   5.570  10.909   2.504  0.1040  0.2402  0.2154
  906PEP     CB32555   5.144  10.766   2.351 -0.0998 -0.0099  0.3343
  906PEP     CB32556   4.730  10.537   2.477  0.1801 -0.1682  0.4595
  906PEP     CB32557   4.586  10.401   2.775  0.0981  0.3449 -0.0896
  906PEP     CB32558   4.589  10.453   3.241  0.1384 -0.1470 -0.2019
  906PEP     CB32559   4.789  10.577   3.631 -0.1502 -0.3646  0.1963
  906PEP     CB32560   4.890  10.701   3.984 -0.0502 -0.0995 -0.1365
  907PEP     CB32561  20.852  18.442  18.827 -0.2514 -0.2002 -0.2062
  907PEP     CB32562  21.055  18.106  19.023  0.1554  0.0032 -0.0238
  907PEP     CB32563  21.366  17.837  19.065  0.0730  0.2106  0.0987
  907PEP     CB32564  21.744  17.871  19.224  0.2732  0.5856 -0.1493
  907PEP     CB32565  21.910  18.091  19.586  0.1025 -0.4647  0.2813
  907PEP     CB32566  21.941  18.602  19.688 -0.1919 -0.2860 -0.1322
  907PEP     CB32567  22.149  18.913  19.298 -0.1037  0.1432  0.0146
  907PEP     CB32568  22.194  18.994  18.824  0.0536 -0.3611  0.6351
  907PEP     CB32569  22.264  19.293  18.571 -0.1995 -0.1505 -0.2752
  907PEP     CB32570  22.525  19.629  18.649 -0.1253  0.4736  0.4320
  907PEP     CB32571  22.771  19.688  19.058 -0.2782 -0.5853  0.1132
  907PEP     CB32572  22.863  19.785  19.541  0.1967 -0.5848  0.0156
  907PEP     CB32573  23.026  19.853  19.891 -0.0525 -0.0782 -0.0889
  907PEP     CB32574  23.123  20.185  20.198  0.2315 -0.2695 -0.0196
  907PEP     CB32575  23.178  20.617  20.297 -0.0709 -0.4105  0.1455
  907PEP     CB32576  23.206  21.028  20.359 -0.2156  0.0716 -0.1872
  907PEP     CB32577  23.213  21.433  20.409  0.0264 -0.1090  0.1056
  907PEP     CB32578  23.081  21.738  20.037 -0.3611 -0.0844  0.1598
  907PEP     CB32579  22.713  21.873  19.798 -0.3686  0.6312  0.0139
  907PEP     CB32580  22.563  21.883  19.419  0.1050 -0.0322  0.0895
  907PEP     CB32581  22.239  21.725  19.094  0.2651  0.0652  0.0607
  907PEP     CB32582  21.857  21.621  18.963  0.0931 -0.1935  0.4562
  907PEP     CB32583  21.471  21.764  18.846 -0.1300 -0.0795  0.1939
  907PEP     CB32584  21.105  22.054  18.988 -0.0423 -0.2887 -0.0225
  907PEP     CB32585  20.962  22.462  19.081 -0.0512 -0.0012  0.0505
  907PEP     CB32586  20.614  22.643  19.357  0.3056  0.2249  0.2280
  907PEP     CB32587  20.271  22.297  19.462 -0.0770 -0.0168 -0.2488
  907PEP     CB32588  20.182  21.865  19.271  0.3883 -0.6025  0.0779
  907PEP     CB32589  20.350  21.691  18.876 -0.1056  0.2505  0.2959
  907PEP     CB32590  20.745  21.794  18.622  0.2184  0.0954  0.0398
  907PEP     CB32591  20.892  22.205  18.451 -0.4167  0.1249  0.0302
  907PEP     CB32592  21.054  22.603  18.207 -0.2551  0.1579  0.1976
  907PEP     CB32593  21.302  22.801  18.068  0.5985 -0.4624  0.1869
  907PEP     CB32594  21.675  22.965  18.275  0.1875  0.1286  0.2151
  907PEP     CB32595  22.089  22.769  18.503 -0.4621  0.0125 -0.1229
  907PEP     CB32596  22.214  22.349  18.546  0.0765 -0.2037  0.2694
  907PEP     CB32597  22.502  22.115  18.717 -0.2546 -0.1698  0.1342
  907PEP     CB32598  22.844  22.184  19.032 -0.2246 -0.2660 -0.4118
  907PEP     CB32599  23.185  22.243  19.451 -0.2388 -0.2673  0.0602
  907PEP     CB32600  23.443  21.922  19.798  0.1093 -0.1416 -0.0082
  908PEP     CB32601   7.618  14.925   3.119 -0.1267  0.2463 -0.1291
  908PEP     CB32602   7.250  15.081   2.958  0.0025  0.2448  0.1352
  908PEP     CB32603   6.986  15.413   2.915  0.3157  0.3911 -0.1067
  908PEP     CB32604   6.583  15.576   2.861  0.0964 -0.1382 -0.0837
  908PEP     CB32605   6.162  15.341   2.850  0.1800 -0.0497  0.5430
  908PEP     CB32606   5.727  15.262   2.957 -0.1834 -0.0376  0.0925
  908PEP     CB32607   5.474  15.713   3.009 -0.2943 -0.0647 -0.3199
  908PEP     CB32608   5.619  16.146   2.947  0.1101  0.0130  0.0076
  908PEP     CB32609   5.687  16.528   2.619 -0.0374 -0.4289 -0.3367
  908PEP     CB32610   5.923  16.707   2.262 -0.0569  0.2075 -0.2005
  908PEP     CB32611   5.957  16.977   2.037 -0.5848 -0.0700  0.2750
  908PEP     CB32612   6.109  17.098   1.666  0.1312  0.3949 -0.0259
  908PEP     CB32613   6.173  17.428   1.305  0.3321 -0.1046 -0.5048
  908PEP     CB32614   6.169  17.395   0.905  0.5197  0.4684  0.1870
  908PEP     CB32615   6.141  17.645   0.588 -0.3528 -0.1617  0.0113
  908PEP     CB32616   6.337  18.024   0.358 -0.2095  0.1036 -0.0911
  908PEP     CB32617   6.360  18.471   0.166 -0.2196  0.4978  0.0872
  908PEP     CB32618   6.174  18.873  -0.032  0.1160  0.3003 -0.1064
  908PEP     CB32619   5.765  18.866  -0.213 -0.1849 -0.0350 -0.1617
  908PEP     CB32620   5.313  18.843  -0.303  0.0840  0.0108 -0.1020
  908PEP     CB32621   4.839  18.664  -0.477 -0.1919 -0.1742 -0.0874
  908PEP     CB32622   4.503  18.483  -0.405  0.2721 -0.1110 -0.1535
  908PEP     CB32623   4.154  18.329  -0.709  0.1187  0.1286 -0.0842
  908PEP     CB32624   3.747  18.353  -0.932  0.1741 -0.1142 -0.0984
  908PEP     CB32625   3.613  18.685  -1.242  0.0008  0.4182 -0.0440
  908PEP     CB32626   3.245  18.891  -1.319  0.2560 -0.5485  0.2752
  908PEP     CB32627   2.828  18.766  -1.172 -0.1002  0.2590  0.2544
  908PEP     CB32628   2.539  18.596  -0.927 -0.0640  0.0217 -0.0040
  908PEP     CB32629   2.312  18.468  -0.471  0.0747  0.3541  0.0637
  908PEP     CB32630   2.022  18.082  -0.430 -0.0587 -0.1221  0.1274
  908PEP     CB32631   1.855  17.731  -0.593  0.1866  0.2094 -0.3626
  908PEP     CB32632   1.474  17.639  -0.890 -0.2325 -0.0491 -0.2928
  908PEP     CB32633   1.341  17.772  -1.254 -0.1667  0.2438  0.3988
  908PEP     CB32634   1.368  18.117  -1.427 -0.3826  0.4354  0.2957
  908PEP     CB32635   1.096  18.409  -1.583  0.1098 -0.2511 -0.3218
  908PEP     CB32636   0.809  18.674  -1.355  0.1243  0.3727 -0.0073
  908PEP     CB32637   0.805  18.587  -0.891 -0.2386  0.0598 -0.0205
  908PEP     CB32638   1.154  18.526  -0.548 -0.1069 -0.3007 -0.0223
  908PEP     CB32639   1.647  18.465  -0.575  0.1044  0.1191  0.1292
  908PEP     CB32640   1.963  18.478  -0.959  0.0504 -0.1019  0.5170
  909PEP     CB32641  19.369   9.075   9.421  0.0245  0.1640 -0.2276
  909PEP     CB32642  19.096   9.063   9.798  0.1100  0.2296 -0.0844
  909PEP     CB32643  18.728   8.901   9.813  0.0613 -0.1092  0.0214
  909PEP     CB32644  18.536   8.564   9.777  0.0139  0.0121 -0.4032
  909PEP     CB32645  18.556   8.068   9.926 -0.1469  0.1812  0.0798
  909PEP     CB32646  18.701   7.735   9.791  0.5363 -0.2266  0.2860
  909PEP     CB32647  18.981   7.593   9.417  0.1371  0.1974 -0.4356
  909PEP     CB32648  19.453   7.438   9.326 -0.0091  0.1873 -0.1499
  909PEP     CB32649  19.710   7.498   8.936 -0.0951  0.0745 -0.4709
  909PEP     CB32650  19.942   7.717   8.655 -0.0593 -0.2570  0.2954
  909PEP     CB32651  20.236   7.944   8.327  0.0711 -0.0530  0.1429
  909PEP     CB32652  20.661   7.847   8.246  0.3646 -0.2780 -0.1792
  909PEP     CB32653  21.129   7.861   8.396 -0.1965 -0.1625  0.4275
  909PEP     CB32654  21.452   7.891   8.105 -0.0792  0.0486  0.2301
  909PEP     CB32655  21.898   7.979   7.895  0.1052 -0.2167 -0.0257
  909PEP     CB32656  22.286   8.026   7.612 -0.1222 -0.0126  0.1751
  909PEP     CB32657  22.503   8.195   7.216  0.2412 -0.0070  0.0548
  909PEP     CB32658  22.513   8.475   6.865 -0.2002 -0.2139  0.0031
  909PEP     CB32659  22.742   8.570   6.501  0.0324 -0.0086  0.0054
  909PEP     CB32660  22.857   8.522   6.031 -0.0312 -0.2465 -0.1862
  909PEP     CB32661  23.145   8.328   5.790  0.0117 -0.2024  0.2325
  909PEP     CB32662  23.516   8.174   5.795  0.0464  0.1203  0.1019
  909PEP     CB32663  23.632   7.750   6.000 -0.1062  0.1524  0.1974
  909PEP     CB32664  23.854   7.316   6.107 -0.1431 -0.2383 -0.2120
  909PEP     CB32665  23.991   6.850   6.208  0.3103  0.4290 -0.5701
  909PEP     CB32666  23.863   6.446   6.193 -0.1025  0.0271 -0.1515
  909PEP     CB32667  23.840   6.104   5.935 -0.1257 -0.3586 -0.0107
  909PEP     CB32668  23.615   5.913   5.509 -0.1462  0.3372  0.2507
  909PEP     CB32669  23.392   6.107   5.185  0.0176 -0.3872  0.6682
  909PEP     CB32670  22.994   6.490   5.109 -0.0372 -0.0140 -0.2657
  909PEP     CB32671  22.506   6.542   5.219 -0.2121 -0.0014  0.1521
  909PEP     CB32672  22.154   6.466   5.523  0.0647  0.0152  0.0506
  909PEP     CB32673  21.892   6.241   5.770  0.2266 -0.3987 -0.1982
  909PEP     CB32674  21.571   6.287   5.968  0.1198  0.0284  0.0205
  909PEP     CB32675  21.318   6.624   6.010  0.1562  0.1220 -0.0737
  909PEP     CB32676  21.321   7.052   5.988 -0.0714  0.1397  0.3165
  909PEP     CB32677  21.419   7.317   5.750 -0.4479 -0.2065 -0.0708
  909PEP     CB32678  21.457   7.143   5.272  0.2690  0.1431 -0.1469
  909PEP     CB32679  21.281   6.972   4.832  0.1176 -0.2283 -0.1239
  909PEP     CB32680  21.137   6.757   4.484 -0.1082 -0.1373 -0.2996
  910PEP     CB32681  18.597   7.158   1.996  0.1416 -0.1150  0.0317
  910PEP     CB32682  18.548   7.508   2.218  0.0181 -0.2503  0.0122
  910PEP     CB32683  18.839   7.791   2.449  0.0051  0.0117 -0.4097
  910PEP     CB32684  19.086   8.034   2.388 -0.4475 -0.2946  0.1570
  910PEP     CB32685  19.342   8.354   2.195  0.3030 -0.0900 -0.1213
  910PEP     CB32686  19.607   8.523   1.904 -0.1595  0.0391  0.0455
  910PEP     CB32687  19.994   8.501   1.625 -0.0417  0.2207 -0.5182
  910PEP     CB32688  20.450   8.621   1.748  0.2113 -0.4666 -0.3284
  910PEP     CB32689  20.548   9.033   1.916 -0.2122  0.1720 -0.0261
  910PEP     CB32690  20.611   9.429   2.156 -0.3140 -0.1407 -0.0102
  910PEP     CB32691  20.734   9.836   2.348 -0.1576 -0.0621 -0.2307
  910PEP     CB32692  21.156  10.017   2.514  0.0551 -0.0644  0.2492
  910PEP     CB32693  21.634   9.824   2.366 -0.1168 -0.2043 -0.1348
  910PEP     CB32694  21.989   9.761   2.243  0.3824  0.1653 -0.0357
  910PEP     CB32695  22.220   9.861   1.883  0.0014 -0.3148  0.2108
  910PEP     CB32696  22.436  10.027   1.505 -0.0027  0.0470  0.2506
  910PEP     CB32697  22.616  10.387   1.439  0.0837  0.4005 -0.2955
  910PEP     CB32698  22.512  10.711   1.671 -0.2678 -0.0528  0.1743
  910PEP     CB32699  22.245  10.797   2.008 -0.0460  0.4483  0.0037
  910PEP     CB32700  21.970  10.757   2.352 -0.1694  0.1698 -0.5596
  910PEP     CB32701  21.854  10.487   2.585  0.1252 -0.1389  0.0152
  910PEP     CB32702  22.016  10.161   2.521  0.3533  0.3070 -0.1285
  910PEP     CB32703  22.332  10.303   2.159 -0.0966  0.4952  0.0187
  910PEP     CB32704  22.666  10.501   2.098 -0.0450 -0.1233 -0.0599
  910PEP     CB32705  23.029  10.670   2.198 -0.3542 -0.1433  0.0578
  910PEP     CB32706  23.539  10.659   2.160 -0.4155  0.0108  0.0453
  910PEP     CB32707  23.795  10.397   2.100 -0.1014 -0.2196  0.0291
  910PEP     CB32708  23.890  10.261   1.656  0.1089  0.2028  0.0976
  910PEP     CB32709  23.901  10.547   1.366  0.1710  0.0377  0.4364
  910PEP     CB32710  24.023  10.763   1.001  0.1689 -0.2812 -0.0832
  910PEP     CB32711  24.173  11.115   0.801 -0.1136 -0.0758 -0.0353
  910PEP     CB32712  24.295  11.468   0.676 -0.2289  0.2361  0.2176
  910PEP     CB32713  24.388  11.923   0.580  0.1362  0.1708  0.2958
  910PEP     CB32714  24.510  12.324   0.868  0.4515 -0.0236  0.0314
  910PEP     CB32715  24.496  12.654   1.009  0.1711 -0.1070 -0.4633
  910PEP     CB32716  24.205  12.857   1.221  0.0938  0.3302  0.1284
  910PEP     CB32717  23.957  12.789   1.587 -0.4726 -0.1461 -0.1545
  910PEP     CB32718  23.811  12.337   1.628 -0.3201  0.1856  0.2426
  910PEP     CB32719  23.689  12.083   1.226  0.0703 -0.0599 -0.1704
  910PEP     CB32720  23.459  12.281   0.908 -0.1316 -0.0803 -0.1566
  911PEP     CB32721   0.150  16.985  12.987 -0.2055 -0.4691  0.1636
  911PEP     CB32722   0.598  17.038  12.875  0.2095 -0.1664 -0.1130
  911PEP     CB32723   0.983  17.260  12.694 -0.1411 -0.0905 -0.1029
  911PEP     CB32724   1.176  17.390  12.334  0.0356  0.1779 -0.1741
  911PEP     CB32725   1.122  17.467  11.872 -0.4237  0.1872  0.0246
  911PEP     CB32726   1.139  17.516  11.400 -0.0361  0.2597 -0.1673
  911PEP     CB32727   1.315  17.173  11.121 -0.0682 -0.0201 -0.2091
  911PEP     CB32728   1.030  16.773  11.093  0.0083 -0.1357  0.1935
  911PEP     CB32729   0.734  16.681  11.336 -0.0993 -0.0074 -0.2128
  911PEP     CB32730   0.589  16.524  11.799  0.1155 -0.0389 -0.0252
  911PEP     CB32731   0.540  16.161  12.107 -0.2318 -0.5081  0.2840
  911PEP     CB32732   0.248  15.927  12.242  0.0336  0.2858 -0.3057
  911PEP     CB32733  -0.108  16.015  12.566  0.0166 -0.1536 -0.0374
  911PEP     CB32734  -0.294  15.651  12.762  0.1188  0.6590  0.4932
  911PEP     CB32735  -0.059  15.206  12.709 -0.1456 -0.3323  0.0466
  911PEP     CB32736   0.260  14.986  12.434  0.3546 -0.0765 -0.0620
  911PEP     CB32737   0.659  15.090  12.330  0.0672  0.1971  0.1929
  911PEP     CB32738   1.033  15.131  12.451  0.2013  0.2216 -0.0412
  911PEP     CB32739   1.272  14.858  12.699 -0.0642  0.0660  0.4342
  911PEP     CB32740   1.292  14.336  12.715  0.2616 -0.0224  0.2994
  911PEP     CB32741   1.195  13.889  12.788 -0.3195  0.0534  0.2742
  911PEP     CB32742   1.147  13.488  12.642  0.1070 -0.0478 -0.3489
  911PEP     CB32743   0.966  13.442  12.245 -0.0990 -0.3073  0.0772
  911PEP     CB32744   0.822  13.838  12.098  0.1660 -0.0703 -0.4316
  911PEP     CB32745   0.889  14.261  12.401  0.2004 -0.1090 -0.0563
  911PEP     CB32746   0.806  14.240  12.831 -0.5858  0.0308  0.0656
  911PEP     CB32747   0.584  14.538  13.161  0.2579  0.1178 -0.1187
  911PEP     CB32748   0.651  14.941  13.255  0.1862  0.9406 -0.2115
  911PEP     CB32749   0.942  15.285  13.087  0.1975 -0.3223  0.0142
  911PEP     CB32750   1.304  15.278  12.934  0.1201  0.1940 -0.2005
  911PEP     CB32751   1.712  15.108  12.815 -0.0497 -0.2821  0.0879
  911PEP     CB32752   1.864  14.675  12.682  0.0741  0.1561 -0.0521
  911PEP     CB32753   1.819  14.322  12.639  0.1074 -0.2076 -0.2103
  911PEP     CB32754   1.736  13.950  12.747 -0.0660  0.4443 -0.0482
  911PEP     CB32755   1.526  13.630  13.017 -0.0068  0.2590  0.2036
  911PEP     CB32756   1.128  13.577  13.199  0.4729  0.1953  0.3341
  911PEP     CB32757   0.855  13.849  13.228 -0.1549 -0.0092 -0.1070
  911PEP     CB32758   0.466  14.039  13.195 -0.1317 -0.0775  0.3058
  911PEP     CB32759   0.008  13.910  13.157  0.0402  0.0731 -0.0464
  911PEP     CB32760  -0.448  13.978  13.383 -0.2390 -0.1367 -0.0088
  912PEP     CB32761   6.266   7.227   4.089  0.0437 -0.0804 -0.2353
  912PEP     CB32762   6.071   7.131   3.697 -0.1543 -0.2377 -0.0457
  912PEP     CB32763   6.075   7.244   3.247 -0.1023 -0.1399 -0.0069
  912PEP     CB32764   5.916   7.069   2.850  0.1045 -0.3291  0.0048
  912PEP     CB32765   5.635   7.020   2.456  0.4849  0.0061 -0.0789
  912PEP     CB32766   5.401   6.753   2.164  0.0498 -0.1875  0.0226
  912PEP     CB32767   5.101   6.415   2.153  0.0358  0.2506 -0.4046
  912PEP     CB32768   4.675   6.401   2.272  0.1575 -0.1535 -0.0300
  912PEP     CB32769   4.261   6.253   2.331  0.0524  0.0018 -0.0605
  912PEP     CB32770   3.798   6.236   2.296 -0.6372  0.1764  0.2027
  912PEP     CB32771   3.317   6.310   2.409 -0.3154 -0.4675  0.3056
  912PEP     CB32772   3.122   6.608   2.072 -0.0403 -0.0529  0.2195
  912PEP     CB32773   3.308   7.055   1.888 -0.5014  0.1112 -0.4205
  912PEP     CB32774   3.341   7.523   1.799 -0.2222 -0.2147 -0.0300
  912PEP     CB32775   3.065   7.815   1.827 -0.5892  0.2998 -0.0474
  912PEP     CB32776   2.674   8.120   1.726  0.3142  0.1229  0.0380
  912PEP     CB32777   2.356   8.261   1.872 -0.0527  0.3225 -0.3308
  912PEP     CB32778   2.141   8.178   2.217  0.2606  0.3414 -0.0344
  912PEP     CB32779   2.020   7.978   2.595  0.2368 -0.0104 -0.1725
  912PEP     CB32780   1.809   8.134   2.889 -0.1641  0.0193 -0.1353
  912PEP     CB32781   1.819   8.040   3.363  0.2410  0.5669  0.1621
  912PEP     CB32782   1.842   7.638   3.555 -0.1207 -0.2762  0.0895
  912PEP     CB32783   1.528   7.382   3.553 -0.1143 -0.0611 -0.2278
  912PEP     CB32784   1.488   7.166   3.214 -0.2911  0.0027  0.0803
  912PEP     CB32785   1.354   7.044   2.774 -0.3717  0.2168  0.0508
  912PEP     CB32786   1.212   7.106   2.337 -0.0105  0.1602 -0.2928
  912PEP     CB32787   1.599   7.056   2.032 -0.0308 -0.1057 -0.3836
  912PEP     CB32788   1.977   6.811   2.169  0.2771  0.4256  0.1798
  912PEP     CB32789   1.872   6.417   2.479 -0.1193  0.1476 -0.4544
  912PEP     CB32790   1.617   6.060   2.347 -0.0315  0.1397  0.3259
  912PEP     CB32791   1.149   6.039   2.302 -0.6235 -0.0467 -0.1961
  912PEP     CB32792   0.895   6.338   2.100 -0.1371  0.1923  0.3338
  912PEP     CB32793   0.813   6.753   1.950  0.1295 -0.1114  0.2362
  912PEP     CB32794   0.808   7.126   2.072 -0.2242 -0.1686  0.0268
  912PEP     CB32795   0.735   7.429   2.314 -0.3746 -0.2253 -0.3803
  912PEP     CB32796   0.485   7.757   2.455 -0.3422 -0.2072 -0.4081
  912PEP     CB32797   0.178   8.003   2.392 -0.0089  0.1223 -0.3257
  912PEP     CB32798  -0.157   8.266   2.197 -0.0845  0.2150 -0.1059
  912PEP     CB32799  -0.575   8.194   2.076 -0.2248 -0.0490 -0.6476
  912PEP     CB32800  -1.042   8.238   2.212  0.0695  0.1251  0.1676
  913PEP     CB32801  19.540  19.658   8.862 -0.0216  0.0691 -0.0064
  913PEP     CB32802  19.371  19.646   8.499  0.4729 -0.2662 -0.5469
  913PEP     CB32803  19.278  19.803   8.080 -0.0071  0.1581  0.2194
  913PEP     CB32804  19.541  19.869   7.685 -0.2942  0.1924  0.2756
  913PEP     CB32805  19.803  20.254   7.475  0.0095  0.0569  0.1349
  913PEP     CB32806  20.141  20.258   7.175 -0.0835  0.0289  0.1126
  913PEP     CB32807  20.412  20.459   6.861  0.2174 -0.0396  0.1181
  913PEP     CB32808  20.555  20.827   6.763 -0.2278 -0.2498  0.2242
  913PEP     CB32809  20.935  21.036   6.947  0.1465 -0.0282 -0.0883
  913PEP     CB32810  21.077  21.350   7.071  0.4541  0.1021 -0.4548
  913PEP     CB32811  20.898  21.737   7.295 -0.1440  0.0528 -0.5008
  913PEP     CB32812  20.615  22.045   7.184  0.0915 -0.3472 -0.1565
  913PEP     CB32813  20.183  21.916   7.092 -0.0145 -0.2325  0.1434
  913PEP     CB32814  20.015  21.600   6.832 -0.3035 -0.1843  0.6046
  913PEP     CB32815  20.265  21.417   6.483  0.0934 -0.3346  0.2079
  913PEP     CB32816  20.629  21.585   6.260 -0.0525 -0.0781 -0.1406
  913PEP     CB32817  20.858  21.868   6.348  0.2796  0.1636 -0.0259
  913PEP     CB32818  20.828  22.213   6.674  0.1138 -0.1347 -0.1129
  913PEP     CB32819  20.655  22.591   6.722 -0.3440 -0.6378  0.3290
  913PEP     CB32820  20.505  22.893   6.548 -0.0747 -0.3203  0.0367
  913PEP     CB32821  20.433  23.340   6.509  0.2244 -0.1704  0.1036
  913PEP     CB32822  20.425  23.784   6.642 -0.2317  0.0266 -0.1422
  913PEP     CB32823  20.447  24.264   6.638  0.1834 -0.0127  0.0037
  913PEP     CB32824  20.374  24.632   6.711 -0.0475  0.1314 -0.0485
  913PEP     CB32825  20.040  24.978   6.739 -0.2789  0.3364 -0.1482
  913PEP     CB32826  19.690  25.104   6.824 -0.0172  0.4332 -0.1011
  913PEP     CB32827  19.351  25.202   6.894 -0.1654 -0.1909  0.0983
  913PEP     CB32828  18.894  25.453   7.068  0.2702 -0.2655  0.0113
  913PEP     CB32829  18.471  25.613   7.419 -0.0279 -0.1529 -0.1384
  913PEP     CB32830  18.307  25.684   7.793  0.0479 -0.1271  0.3535
  913PEP     CB32831  18.275  25.854   8.162 -0.1292  0.2278  0.2520
  913PEP     CB32832  18.353  26.031   8.586  0.6587  0.1916  0.0664
  913PEP     CB32833  18.552  25.857   9.020 -0.0084  0.0535 -0.0176
  913PEP     CB32834  18.523  25.461   9.155 -0.2603  0.1342 -0.3552
  913PEP     CB32835  18.775  25.100   9.146  0.1678 -0.1167  0.4185
  913PEP     CB32836  18.863  24.916   8.670 -0.3365 -0.1917 -0.0632
  913PEP     CB32837  19.072  25.119   8.430  0.1879  0.1047  0.1687
  913PEP     CB32838  19.114  25.548   8.448  0.0546  0.0554 -0.0306
  913PEP     CB32839  18.958  25.872   8.621 -0.0392  0.2274 -0.0004
  913PEP     CB32840  18.839  26.339   8.580 -0.1042 -0.0360  0.0923
  914PEP     CB32841  21.182   8.592  19.291 -0.0163 -0.2597  0.0486
  914PEP     CB32842  20.948   8.746  19.003  0.0207  0.1057 -0.1179
  914PEP     CB32843  20.569   9.104  18.946  0.0203  0.1628  0.0092
  914PEP     CB32844  20.401   9.363  19.187 -0.2688 -0.0965 -0.0221
  914PEP     CB32845  20.154   9.730  19.328  0.0632 -0.0031  0.3074
  914PEP     CB32846  19.751  10.012  19.348 -0.0887 -0.3441 -0.0723
  914PEP     CB32847  19.328  10.156  19.552 -0.1133  0.0110  0.4978
  914PEP     CB32848  18.876  10.392  19.628 -0.4207 -0.1107  0.1894
  914PEP     CB32849  18.450  10.550  19.558  0.0552 -0.1611 -0.4850
  914PEP     CB32850  18.034  10.795  19.469  0.0255 -0.4605 -0.2595
  914PEP     CB32851  17.845  11.072  19.078 -0.3147 -0.1885 -0.4990
  914PEP     CB32852  17.867  11.480  18.928  0.1380  0.0440 -0.1959
  914PEP     CB32853  17.789  11.708  18.541 -0.6095 -0.1791 -0.2974
  914PEP     CB32854  17.492  11.623  18.277  0.0925  0.1216  0.1353
  914PEP     CB32855  17.097  11.435  18.353 -0.0105  0.2069  0.4087
  914PEP     CB32856  16.741  11.101  18.410 -0.1194  0.0115  0.0291
  914PEP     CB32857  16.565  10.781  18.471 -0.0419 -0.0087  0.1867
  914PEP     CB32858  16.244  10.579  18.622  0.2217  0.1646  0.1916
  914PEP     CB32859  16.196  10.306  18.971 -0.1708 -0.1512  0.0244
  914PEP     CB32860  16.017  10.119  19.268 -0.2221  0.0890  0.4623
  914PEP     CB32861  16.056   9.815  19.644 -0.1110  0.2411  0.0390
  914PEP     CB32862  16.095   9.521  19.971  0.2792 -0.2750 -0.3255
  914PEP     CB32863  16.445   9.211  20.282  0.0541 -0.2151  0.0944
  914PEP     CB32864  16.499   8.998  20.695  0.3485  0.2859 -0.0140
  914PEP     CB32865  16.331   8.718  21.038  0.0824 -0.0223 -0.0346
  914PEP     CB32866  16.099   8.401  21.231 -0.1165  0.0729  0.0277
  914PEP     CB32867  15.803   8.289  21.593  0.0374  0.0798  0.3086
  914PEP     CB32868  15.690   8.205  21.938 -0.0765 -0.2598  0.0530
  914PEP     CB32869  15.334   8.138  22.141  0.0807  0.0143  0.1123
  914PEP     CB32870  15.065   8.166  22.442  0.0415 -0.2649  0.3428
  914PEP     CB32871  14.772   7.973  22.628  0.0185 -0.2158 -0.0702
  914PEP     CB32872  14.581   7.480  22.441 -0.0782 -0.1330  0.0277
  914PEP     CB32873  14.493   7.366  22.001  0.4837 -0.0388 -0.1088
  914PEP     CB32874  14.586   7.599  21.633  0.2105 -0.1161  0.0286
  914PEP     CB32875  14.839   7.888  21.416 -0.1157 -0.0560  0.2422
  914PEP     CB32876  14.842   8.278  21.454  0.0029 -0.0394 -0.1051
  914PEP     CB32877  14.590   8.614  21.589 -0.1169  0.5076  0.1854
  914PEP     CB32878  14.108   8.524  21.649 -0.3078 -0.3095 -0.1661
  914PEP     CB32879  13.888   8.084  21.601  0.0766  0.0377  0.2458
  914PEP     CB32880  13.953   7.661  21.475  0.1002 -0.2506 -0.4154
  915PEP     CB32881  15.407  10.239   8.414 -0.0544  0.2842  0.1265
  915PEP     CB32882  15.461   9.766   8.336  0.0068 -0.3537  0.2664
  915PEP     CB32883  15.807   9.526   8.184  0.2674  0.0629  0.2154
  915PEP     CB32884  16.034   9.414   7.824 -0.1366 -0.1068  0.1356
  915PEP     CB32885  16.065   9.078   7.460  0.1319 -0.3147  0.3140
  915PEP     CB32886  15.872   8.828   7.031  0.1757 -0.4580 -0.2252
  915PEP     CB32887  15.602   8.728   6.686 -0.0362 -0.0095 -0.0290
  915PEP     CB32888  15.161   8.763   6.592 -0.5474  0.4541 -0.0242
  915PEP     CB32889  14.782   8.914   6.738  0.2123 -0.2994 -0.2943
  915PEP     CB32890  14.654   9.256   7.099 -0.4452 -0.2596 -0.1900
  915PEP     CB32891  14.680   9.239   7.560 -0.2834  0.0271 -0.1409
  915PEP     CB32892  15.092   9.300   7.851  0.3051  0.1356  0.0787
  915PEP     CB32893  15.299   9.325   8.227  0.0139  0.0243 -0.0236
  915PEP     CB32894  15.469   9.394   8.631  0.0581 -0.0448 -0.3130
  915PEP     CB32895  15.491   9.802   8.829 -0.0342  0.3964 -0.3028
  915PEP     CB32896  15.594  10.236   8.863  0.1881 -0.3046 -0.0608
  915PEP     CB32897  15.981  10.603   8.656 -0.1589 -0.1933 -0.0153
  915PEP     CB32898  16.235  10.676   8.382  0.0114 -0.1095  0.3719
  915PEP     CB32899  16.369  10.760   7.992  0.2066  0.3544  0.1179
  915PEP     CB32900  16.467  10.788   7.503 -0.5055  0.2000 -0.2474
  915PEP     CB32901  16.928  10.991   7.402 -0.1597 -0.1502 -0.1381
  915PEP     CB32902  17.291  10.936   7.551  0.1621 -0.1136  0.1806
  915PEP     CB32903  17.398  10.573   7.797 -0.3435 -0.0681  0.0938
  915PEP     CB32904  17.180  10.244   7.892  0.0957 -0.2010 -0.2883
  915PEP     CB32905  16.774   9.921   7.887  0.2357 -0.0763 -0.2679
  915PEP     CB32906  16.452   9.748   7.588  0.2999 -0.0754  0.2221
  915PEP     CB32907  16.103   9.894   7.313  0.2143  0.0270  0.0916
  915PEP     CB32908  16.013  10.208   6.992  0.1488 -0.3539  0.3930
  915PEP     CB32909  15.760  10.346   6.588  0.3872  0.0010 -0.4974
  915PEP     CB32910  15.775  10.617   6.311 -0.0761 -0.1004  0.3147
  915PEP     CB32911  15.965  10.730   5.996  0.6700 -0.0515  0.2576
  915PEP     CB32912  16.318  10.842   5.927  0.0344  0.1732 -0.2399
  915PEP     CB32913  16.606  10.840   5.528  0.0417 -0.3003 -0.2347
  915PEP     CB32914  16.995  10.771   5.342  0.0794  0.1782 -0.0270
  915PEP     CB32915  17.408  10.774   5.103  0.0141 -0.1674 -0.0248
  915PEP     CB32916  17.509  10.761   4.646  0.0824  0.0213  0.1299
  915PEP     CB32917  17.567  10.900   4.200 -0.0383 -0.2568 -0.1827
  915PEP     CB32918  17.661  11.254   3.948 -0.0148 -0.2054  0.0354
  915PEP     CB32919  17.600  11.652   4.094 -0.1264 -0.0237 -0.0958
  915PEP     CB32920  17.615  12.000   4.447 -0.1998  0.4922  0.1367
  916PEP     CB32921   4.529   9.941   6.315  0.4187  0.1093  0.0609
  916PEP     CB32922   4.700   9.516   6.472  0.2725 -0.0531  0.2057
  916PEP     CB32923   4.856   9.151   6.715 -0.1784 -0.0168 -0.0015
  916PEP     CB32924   4.995   8.875   7.070  0.2145 -0.0119 -0.2423
  916PEP     CB32925   5.126   8.417   7.076  0.1929  0.1309  0.2287
  916PEP     CB32926   5.165   8.121   6.683 -0.0676  0.2258 -0.0169
  916PEP     CB32927   5.335   7.751   6.558 -0.0627  0.0635  0.1601
  916PEP     CB32928   5.296   7.299   6.605  0.0654 -0.1570  0.4967
  916PEP     CB32929   5.107   6.946   6.358  0.0352 -0.3740  0.0139
  916PEP     CB32930   5.137   6.630   6.119  0.2193 -0.0379  0.2539
  916PEP     CB32931   5.478   6.535   5.932 -0.1304  0.0254 -0.0010
  916PEP     CB32932   5.833   6.642   5.783  0.3780 -0.1417 -0.0153
  916PEP     CB32933   5.847   7.026   5.517  0.0579  0.2698  0.0899
  916PEP     CB32934   5.380   7.425   5.396 -0.1327 -0.1298 -0.0075
  916PEP     CB32935   5.031   7.512   5.519 -0.1456  0.1350  0.0220
  916PEP     CB32936   4.655   7.616   5.698  0.1451 -0.0954  0.2394
  916PEP     CB32937   4.394   7.991   5.588 -0.3146  0.0142  0.3917
  916PEP     CB32938   4.424   8.385   5.458  0.3968  0.1870  0.0612
  916PEP     CB32939   4.452   8.673   5.168 -0.1874 -0.0925 -0.3760
  916PEP     CB32940   4.522   8.767   4.770 -0.0676 -0.3369  0.1436
  916PEP     CB32941   4.664   8.476   4.499  0.2194 -0.3558  0.2983
  916PEP     CB32942   4.396   8.091   4.419  0.1623  0.0929 -0.1359
  916PEP     CB32943   3.998   7.899   4.560 -0.0666 -0.1826  0.3988
  916PEP     CB32944   3.715   8.141   4.920 -0.0524  0.2469 -0.0540
  916PEP     CB32945   3.449   8.164   5.372  0.1121 -0.5001  0.2146
  916PEP     CB32946   3.530   8.366   5.751  0.2485  0.0847 -0.0422
  916PEP     CB32947   3.639   8.751   5.896  0.0985  0.1678 -0.1695
  916PEP     CB32948   3.393   9.137   6.036  0.2178 -0.3345  0.1351
  916PEP     CB32949   3.303   9.411   6.272 -0.0892  0.2495 -0.1677
  916PEP     CB32950   3.274   9.631   6.670 -0.3553  0.1019 -0.1754
  916PEP     CB32951   2.901   9.980   6.814 -0.0437 -0.3053 -0.3068
  916PEP     CB32952   2.742  10.427   6.774  0.2328  0.2260  0.1080
  916PEP     CB32953   2.686  10.781   7.048 -0.5252  0.0069  0.1869
  916PEP     CB32954   2.685  10.706   7.430 -0.2401 -0.2633  0.1123
  916PEP     CB32955   2.796  10.551   7.822  0.3157  0.2770 -0.0812
  916PEP     CB32956   3.058  10.351   8.176 -0.1918  0.3057 -0.3041
  916PEP     CB32957   3.386   9.973   8.134  0.0999  0.2995  0.2163
  916PEP     CB32958   3.679   9.654   7.968 -0.4320 -0.1049  0.2341
  916PEP     CB32959   3.757   9.404   7.675 -0.1087  0.5016 -0.1238
  916PEP     CB32960   3.933   9.248   7.282  0.1605 -0.0236 -0.1272
  917PEP     CB32961  18.265  17.225  11.419 -0.1201  0.1869 -0.2062
  917PEP     CB32962  17.889  17.391  11.493  0.5022  0.1345 -0.3229
  917PEP     CB32963  17.639  17.683  11.273  0.0885  0.2641 -0.3143
  917PEP     CB32964  17.678  18.097  11.027 -0.0379 -0.1883  0.2572
  917PEP     CB32965  17.621  18.541  10.989 -0.0003 -0.2181 -0.0204
  917PEP     CB32966  17.471  18.763  10.650  0.2075 -0.0601  0.2290
  917PEP     CB32967  17.498  18.635  10.235  0.0928 -0.0210  0.0224
  917PEP     CB32968  17.729  18.233  10.180 -0.4414  0.2007 -0.0985
  917PEP     CB32969  17.758  17.908  10.519 -0.1905 -0.1225  0.3067
  917PEP     CB32970  17.547  17.646  10.852 -0.1363 -0.0155 -0.2995
  917PEP     CB32971  17.241  17.381  10.881  0.3237  0.1020  0.1932
  917PEP     CB32972  16.791  17.341  10.975 -0.0019  0.2525  0.2377
  917PEP     CB32973  16.406  17.373  10.923 -0.2263  0.2265 -0.2215
  917PEP     CB32974  16.039  17.408  10.748 -0.0828 -0.1836  0.1659
  917PEP     CB32975  15.798  17.663  10.547 -0.1057  0.0204  0.1918
  917PEP     CB32976  15.964  17.914  10.219  0.0606  0.1091 -0.1082
  917PEP     CB32977  16.153  17.748   9.806  0.0580  0.0046  0.1973
  917PEP     CB32978  16.200  17.657   9.375  0.3135 -0.3542 -0.1578
  917PEP     CB32979  16.380  17.527   8.928 -0.1173 -0.0377 -0.1192
  917PEP     CB32980  16.664  17.705   8.592  0.1460  0.1112  0.3167
  917PEP     CB32981  16.783  17.588   8.186  0.3053  0.1359  0.2349
  917PEP     CB32982  16.441  17.451   7.926  0.5073 -0.1333 -0.4767
  917PEP     CB32983  16.095  17.315   7.521 -0.2008 -0.2217 -0.0530
  917PEP     CB32984  16.046  16.945   7.243 -0.2956 -0.4074 -0.1776
  917PEP     CB32985  15.726  16.674   7.013  0.1308 -0.5160 -0.4467
  917PEP     CB32986  15.224  16.620   6.904 -0.3017  0.1420 -0.2038
  917PEP     CB32987  15.031  16.939   6.687  0.2201 -0.1681  0.0178
  917PEP     CB32988  15.010  17.430   6.872 -0.0305  0.4412 -0.4302
  917PEP     CB32989  15.096  17.417   7.309 -0.0343  0.1056 -0.1017
  917PEP     CB32990  15.149  17.473   7.740 -0.1105  0.1052 -0.3987
  917PEP     CB32991  15.424  17.378   8.008 -0.0827 -0.1560 -0.0430
  917PEP     CB32992  15.858  17.487   7.984 -0.0574  0.2610 -0.2237
  917PEP     CB32993  16.111  17.785   7.708  0.0774 -0.2398 -0.0745
  917PEP     CB32994  15.978  18.137   7.407  0.0136  0.4814 -0.1433
  917PEP     CB32995  15.991  18.527   7.285 -0.1269 -0.2026  0.0019
  917PEP     CB32996  16.030  18.922   7.180  0.0596 -0.1854  0.1404
  917PEP     CB32997  16.260  19.118   6.838  0.0002  0.1036  0.3488
  917PEP     CB32998  16.346  19.035   6.374 -0.0552  0.4069 -0.1300
  917PEP     CB32999  16.410  18.639   6.223 -0.0562 -0.5968 -0.0364
  917PEP     CB33000  16.712  18.438   6.529 -0.3397 -0.2939  0.1169
  918PEP     CB33001   3.288  16.456   5.042  0.0115 -0.1203 -0.0602
  918PEP     CB33002   3.705  16.432   5.105  0.0129  0.2219  0.2733
  918PEP     CB33003   3.946  16.150   5.010 -0.2041 -0.4469 -0.0013
  918PEP     CB33004   4.072  15.799   4.702  0.2772 -0.0917 -0.3998
  918PEP     CB33005   4.163  15.427   4.518 -0.1018 -0.1379  0.0289
  918PEP     CB33006   4.066  15.008   4.362  0.1963 -0.1539 -0.1647
  918PEP     CB33007   3.769  14.746   4.315  0.3534 -0.2104 -0.1368
  918PEP     CB33008   3.422  14.456   4.405  0.1442  0.1385  0.1696
  918PEP     CB33009   3.058  14.377   4.751 -0.3577  0.0266  0.3271
  918PEP     CB33010   3.048  14.190   5.162  0.4898  0.0433  0.1949
  918PEP     CB33011   3.309  13.823   5.332  0.2305  0.0589 -0.4676
  918PEP     CB33012   3.543  13.373   5.582  0.2009  0.2695  0.1193
  918PEP     CB33013   3.828  13.128   5.841  0.1074  0.3005 -0.1248
  918PEP     CB33014   4.070  13.038   6.180  0.2420  0.1067 -0.2722
  918PEP     CB33015   4.045  13.378   6.583 -0.5137  0.0947  0.0651
  918PEP     CB33016   4.279  13.524   6.872  0.4065 -0.1919  0.2307
  918PEP     CB33017   4.340  13.790   7.213  0.3037 -0.4718  0.0324
  918PEP     CB33018   4.780  13.916   7.383 -0.3976 -0.0826  0.2130
  918PEP     CB33019   5.116  14.093   7.550 -0.3891 -0.2620 -0.1789
  918PEP     CB33020   5.543  14.044   7.522 -0.1995 -0.2567 -0.0684
  918PEP     CB33021   5.888  13.937   7.264 -0.1555  0.3151  0.3235
  918PEP     CB33022   6.053  13.708   6.897  0.4176 -0.2765 -0.1761
  918PEP     CB33023   6.122  13.587   6.423  0.3601 -0.2792  0.3213
  918PEP     CB33024   6.218  13.279   6.104  0.3661  0.3250 -0.0995
  918PEP     CB33025   6.523  13.003   5.799  0.0747  0.1803  0.1983
  918PEP     CB33026   6.958  12.896   5.569 -0.3613  0.0798  0.2227
  918PEP     CB33027   7.001  12.971   5.108 -0.1146  0.3374  0.3401
  918PEP     CB33028   6.667  12.868   4.766  0.1482 -0.1410  0.0595
  918PEP     CB33029   6.350  12.601   4.784  0.0998 -0.2628  0.1237
  918PEP     CB33030   6.042  12.436   5.090 -0.4737  0.0592  0.2139
  918PEP     CB33031   6.075  12.553   5.507 -0.0063  0.0560 -0.1205
  918PEP     CB33032   6.168  12.416   5.916  0.1064  0.3003  0.0244
  918PEP     CB33033   6.086  12.334   6.321 -0.2373 -0.2741 -0.2741
  918PEP     CB33034   5.961  12.567   6.627  0.4818 -0.1034  0.3120
  918PEP     CB33035   5.588  12.589   6.847 -0.0296  0.1747  0.2573
  918PEP     CB33036   5.419  12.316   7.261  0.0901 -0.0090 -0.1729
  918PEP     CB33037   5.281  12.491   7.629  0.4442 -0.4090  0.0420
  918PEP     CB33038   5.163  12.586   8.038 -0.0973 -0.2015  0.0807
  918PEP     CB33039   5.035  12.516   8.429  0.0859 -0.2189 -0.1276
  918PEP     CB33040   4.746  12.595   8.792  0.3719 -0.1019  0.4103
  919PEP     CB33041   3.717  13.842   5.598  0.0449 -0.0831 -0.1305
  919PEP     CB33042   3.558  13.881   6.004 -0.0849  0.0649 -0.4006
  919PEP     CB33043   3.305  13.908   6.355 -0.0770  0.1301 -0.2311
  919PEP     CB33044   3.087  13.728   6.756  0.2232  0.0739 -0.0230
  919PEP     CB33045   3.251  13.416   7.117 -0.0960  0.3035 -0.1590
  919PEP     CB33046   3.473  13.003   7.040 -0.1600 -0.1299  0.5995
  919PEP     CB33047   3.653  12.875   6.534 -0.1533  0.2119  0.2773
  919PEP     CB33048   3.625  12.763   6.075  0.4230 -0.4110  0.1814
  919PEP     CB33049   3.302  12.935   5.840  0.2946  0.0987  0.0467
  919PEP     CB33050   2.873  13.042   5.748 -0.0141  0.3242  0.2311
  919PEP     CB33051   2.467  13.224   5.831 -0.2924  0.0345  0.0102
  919PEP     CB33052   2.070  13.269   5.605 -0.1502  0.0147  0.2874
  919PEP     CB33053   1.796  13.579   5.378 -0.0868  0.1427 -0.3241
  919PEP     CB33054   1.443  13.555   4.950  0.2814 -0.1952 -0.2711
  919PEP     CB33055   1.348  13.338   4.632 -0.1447 -0.1573 -0.2609
  919PEP     CB33056   1.474  12.938   4.516  0.2400 -0.2004  0.0738
  919PEP     CB33057   1.592  12.583   4.224  0.1287  0.2299  0.3916
  919PEP     CB33058   1.551  12.192   4.133 -0.1530 -0.0114  0.0121
  919PEP     CB33059   1.501  11.843   3.713 -0.0670 -0.2086 -0.0177
  919PEP     CB33060   1.305  11.948   3.293 -0.4411 -0.2411  0.0416
  919PEP     CB33061   0.875  12.080   3.231  0.0121  0.0106 -0.1150
  919PEP     CB33062   0.627  12.408   3.546 -0.2482  0.1174  0.0053
  919PEP     CB33063   0.815  12.558   3.992  0.1973  0.2338  0.2501
  919PEP     CB33064   1.100  12.502   4.335  0.3159  0.3162 -0.5247
  919PEP     CB33065   1.429  12.470   4.653 -0.2784  0.0301 -0.2620
  919PEP     CB33066   1.719  12.403   4.914 -0.1825 -0.2634  0.3248
  919PEP     CB33067   2.068  12.445   5.160 -0.0448 -0.1910  0.1146
  919PEP     CB33068   2.323  12.611   5.412  0.3650  0.0404 -0.4082
  919PEP     CB33069   2.499  12.662   5.854  0.2623 -0.1864  0.0916
  919PEP     CB33070   2.442  12.614   6.265 -0.2617 -0.0624 -0.0162
  919PEP     CB33071   2.372  12.727   6.644  0.0031  0.0975 -0.1327
  919PEP     CB33072   2.571  12.819   7.088 -0.1938 -0.2225  0.1013
  919PEP     CB33073   2.952  12.763   7.338 -0.1378 -0.3474 -0.0162
  919PEP     CB33074   3.079  12.584   7.798 -0.3998 -0.1118  0.1075
  919PEP     CB33075   3.191  12.179   7.999  0.0248 -0.2202 -0.1388
  919PEP     CB33076   2.932  11.810   7.846 -0.0158 -0.0283 -0.1474
  919PEP     CB33077   2.782  11.429   7.567  0.0292 -0.5413 -0.2003
  919PEP     CB33078   2.757  11.168   7.275  0.0695 -0.2504  0.0521
  919PEP     CB33079   2.830  11.297   6.922 -0.0152  0.0781  0.2103
  919PEP     CB33080   2.682  11.371   6.517 -0.0448 -0.0001  0.0923
  920PEP     CB33081  19.682  15.101  21.774  0.3542 -0.0391  0.1074
  920PEP     CB33082  19.870  14.741  21.976 -0.0389  0.0194  0.2849
  920PEP     CB33083  20.378  14.505  21.865  0.1028  0.3386  0.2602
  920PEP     CB33084  20.794  14.583  21.658 -0.0018  0.3101 -0.1507
  920PEP     CB33085  20.994  14.860  21.296 -0.0504 -0.0668 -0.5021
  920PEP     CB33086  21.234  15.010  21.024 -0.2772 -0.2442 -0.0766
  920PEP     CB33087  21.485  15.450  20.882  0.0793 -0.3755 -0.3270
  920PEP     CB33088  21.548  15.851  21.089 -0.4426 -0.0931 -0.3572
  920PEP     CB33089  21.400  16.239  21.245 -0.2787  0.0656 -0.0242
  920PEP     CB33090  21.101  16.581  21.288  0.1142 -0.2829 -0.0016
  920PEP     CB33091  20.700  16.686  21.557 -0.2072 -0.0036  0.4159
  920PEP     CB33092  20.639  16.643  22.065  0.0747 -0.3311  0.2451
  920PEP     CB33093  21.005  16.849  22.265 -0.2454 -0.0341 -0.0321
  920PEP     CB33094  21.368  17.251  22.212 -0.0499 -0.6125 -0.2004
  920PEP     CB33095  21.598  17.688  22.059  0.1010  0.3517  0.1021
  920PEP     CB33096  21.835  18.064  21.880  0.0827  0.0071  0.1217
  920PEP     CB33097  22.059  18.285  21.552 -0.2738 -0.0891  0.2775
  920PEP     CB33098  22.394  18.562  21.480  0.0028  0.0436 -0.3775
  920PEP     CB33099  22.667  18.918  21.571 -0.0877 -0.2096 -0.1456
  920PEP     CB33100  22.967  19.081  21.728 -0.1161 -0.1147  0.0585
  920PEP     CB33101  23.364  19.054  21.798  0.1404  0.1041  0.0438
  920PEP     CB33102  23.621  18.937  22.182 -0.2906  0.0446  0.3351
  920PEP     CB33103  23.479  18.712  22.602  0.1678 -0.1262  0.1633
  920PEP     CB33104  23.567  18.518  22.999 -0.2031 -0.0212 -0.1090
  920PEP     CB33105  23.432  18.215  23.354  0.0957  0.2821 -0.0323
  920PEP     CB33106  23.439  17.729  23.491 -0.0633  0.0760 -0.2800
  920PEP     CB33107  23.196  17.347  23.349 -0.1793  0.0467  0.1029
  920PEP     CB33108  22.899  17.038  23.347 -0.0228  0.0605  0.0028
  920PEP     CB33109  22.800  16.559  23.233 -0.1124  0.2324  0.0745
  920PEP     CB33110  22.455  16.288  23.064  0.4004  0.2415 -0.1407
  920PEP     CB33111  22.102  16.475  22.753  0.3645  0.0366  0.0501
  920PEP     CB33112  22.103  16.617  22.300  0.0667  0.0314 -0.2402
  920PEP     CB33113  22.073  16.970  22.037 -0.0558  0.0117 -0.2806
  920PEP     CB33114  22.195  17.477  22.056 -0.1405  0.2607 -0.1613
  920PEP     CB33115  22.137  17.878  22.289 -0.1202 -0.0007 -0.0895
  920PEP     CB33116  21.990  18.155  22.592  0.1297 -0.2287  0.1641
  920PEP     CB33117  21.742  18.398  22.830 -0.0956 -0.4998  0.2450
  920PEP     CB33118  21.599  18.232  23.355 -0.3724  0.2009 -0.1510
  920PEP     CB33119  21.394  18.314  23.797 -0.2733 -0.0453 -0.1571
  920PEP     CB33120  21.130  18.078  24.119 -0.1753 -0.1279 -0.1769
  921PEP     CB33121   8.746  12.380  19.810 -0.4479 -0.1005  0.0597
  921PEP     CB33122   8.324  12.434  19.713 -0.3212 -0.1646  0.0688
  921PEP     CB33123   8.193  12.860  19.596  0.3330  0.0739  0.0628
  921PEP     CB33124   8.421  13.233  19.503  0.2431  0.0633  0.1212
  921PEP     CB33125   8.448  13.641  19.362 -0.0762  0.4611 -0.2459
  921PEP     CB33126   8.250  14.087  19.315 -0.1224  0.3228 -0.0203
  921PEP     CB33127   8.085  14.484  19.443  0.0187 -0.0558  0.1294
  921PEP     CB33128   7.835  14.830  19.548  0.0043 -0.0402  0.1324
  921PEP     CB33129   7.340  14.845  19.488 -0.4463 -0.6113 -0.2521
  921PEP     CB33130   6.912  14.766  19.579  0.4967  0.0591  0.2471
  921PEP     CB33131   6.512  14.955  19.474 -0.2564  0.1293  0.1024
  921PEP     CB33132   6.508  15.409  19.364  0.0078 -0.0231 -0.1045
  921PEP     CB33133   6.754  15.764  19.209 -0.3392 -0.0527  0.3639
  921PEP     CB33134   6.833  16.138  19.077 -0.3626 -0.0351  0.3418
  921PEP     CB33135   7.041  16.518  18.930  0.0475 -0.2282 -0.3619
  921PEP     CB33136   7.103  16.804  18.558 -0.0304  0.2541  0.0937
  921PEP     CB33137   7.021  16.770  18.127  0.2423  0.2272 -0.1234
  921PEP     CB33138   7.200  17.003  17.806  0.1034 -0.1846 -0.1455
  921PEP     CB33139   7.490  17.404  17.906  0.1970 -0.4498  0.0022
  921PEP     CB33140   7.619  17.535  18.341  0.1634  0.0719  0.1696
  921PEP     CB33141   7.517  17.667  18.753  0.4909  0.6951  0.2166
  921PEP     CB33142   7.319  17.770  19.100 -0.0437 -0.6365 -0.0490
  921PEP     CB33143   7.025  17.673  19.385  0.1255  0.0247 -0.0137
  921PEP     CB33144   6.798  17.865  19.726 -0.3081  0.2873 -0.4309
  921PEP     CB33145   6.757  18.149  20.149 -0.2756 -0.1200 -0.0055
  921PEP     CB33146   6.756  18.047  20.577 -0.0461  0.0488 -0.0449
  921PEP     CB33147   7.201  17.918  20.845 -0.1360  0.0903  0.3349
  921PEP     CB33148   7.530  18.238  20.952  0.4799  0.1905 -0.3095
  921PEP     CB33149   7.580  18.633  21.078 -0.2568  0.0257  0.1437
  921PEP     CB33150   7.601  19.044  20.743 -0.1017 -0.2142  0.1897
  921PEP     CB33151   8.039  18.899  20.579  0.2122  0.0237  0.0585
  921PEP     CB33152   8.404  19.146  20.529 -0.0836  0.2453 -0.1448
  921PEP     CB33153   8.907  19.302  20.519  0.5658  0.0868 -0.1180
  921PEP     CB33154   9.213  19.280  20.804 -0.2126 -0.3425  0.4164
  921PEP     CB33155   9.535  19.253  21.066 -0.0490 -0.2406  0.0259
  921PEP     CB33156   9.807  18.989  21.227 -0.3157 -0.1632  0.1613
  921PEP     CB33157   9.921  18.780  21.570  0.1441 -0.0575 -0.0910
  921PEP     CB33158   9.844  18.397  21.780 -0.6295 -0.1800  0.0772
  921PEP     CB33159   9.651  18.132  22.168  0.5717 -0.1574 -0.2166
  921PEP     CB33160   9.343  17.862  22.237 -0.4979 -0.4321 -0.0417
  922PEP     CB33161   1.569  17.640   4.210  0.3717  0.4272  0.3559
  922PEP     CB33162   1.407  17.940   3.907  0.0755  0.1892  0.2164
  922PEP     CB33163   1.449  18.088   3.557  0.3040 -0.2031 -0.4511
  922PEP     CB33164   1.322  18.370   3.264  0.1184 -0.7494 -0.5303
  922PEP     CB33165   1.262  18.868   3.273 -0.0279  0.0827 -0.0893
  922PEP     CB33166   1.287  19.224   3.086  0.0236 -0.2093  0.1396
  922PEP     CB33167   0.980  19.329   2.774 -0.1794 -0.0842 -0.2943
  922PEP     CB33168   0.619  19.632   2.771 -0.0636  0.2636 -0.2470
  922PEP     CB33169   0.359  19.737   3.183 -0.0366 -0.1833 -0.2763
  922PEP     CB33170   0.052  19.413   3.287  0.1075  0.0104 -0.0818
  922PEP     CB33171  -0.226  19.219   3.012 -0.0859  0.4133  0.3063
  922PEP     CB33172  -0.613  19.090   2.850 -0.1359  0.0927  0.3953
  922PEP     CB33173  -0.742  19.003   2.497 -0.0459 -0.1958 -0.1224
  922PEP     CB33174  -0.800  18.916   1.997 -0.1600  0.0568 -0.4264
  922PEP     CB33175  -1.005  18.728   1.570 -0.2745  0.0452 -0.0045
  922PEP     CB33176  -0.863  18.494   1.242 -0.0265 -0.1222 -0.2836
  922PEP     CB33177  -0.839  18.488   0.792  0.1658 -0.1974  0.0291
  922PEP     CB33178  -0.791  18.214   0.452  0.3074  0.0350 -0.1819
  922PEP     CB33179  -0.481  18.251   0.211  0.0528  0.5103  0.0794
  922PEP     CB33180  -0.197  18.569   0.029  0.2870 -0.4078 -0.1505
  922PEP     CB33181  -0.137  19.029   0.102  0.0480  0.0733  0.1952
  922PEP     CB33182  -0.377  19.266   0.380 -0.2029  0.0863  0.0360
  922PEP     CB33183  -0.562  19.008   0.816 -0.0232 -0.1240  0.0820
  922PEP     CB33184  -0.461  18.789   1.200  0.0580  0.1024 -0.0033
  922PEP     CB33185  -0.229  18.733   1.582  0.1352 -0.0786  0.4357
  922PEP     CB33186   0.155  18.855   1.792  0.1540  0.2514  0.1688
  922PEP     CB33187   0.312  18.993   2.177  0.4896  0.4963  0.0106
  922PEP     CB33188   0.429  19.423   2.374  0.4433 -0.0383  0.0477
  922PEP     CB33189   0.535  19.823   2.320 -0.1463  0.3657 -0.2248
  922PEP     CB33190   0.856  19.965   2.087  0.1659  0.1453 -0.2365
  922PEP     CB33191   1.164  19.737   1.989 -0.3609  0.5116  0.1343
  922PEP     CB33192   1.546  19.735   2.025 -0.2312  0.3198  0.0599
  922PEP     CB33193   1.874  19.856   2.266  0.2706  0.0555 -0.3849
  922PEP     CB33194   2.180  20.141   2.516 -0.0705 -0.2355 -0.2712
  922PEP     CB33195   2.419  20.474   2.498 -0.2858  0.1627  0.2841
  922PEP     CB33196   2.843  20.518   2.508  0.3130  0.1517  0.1438
  922PEP     CB33197   3.117  20.845   2.515 -0.2057 -0.1751 -0.4313
  922PEP     CB33198   3.383  20.972   2.723  0.4015 -0.2497 -0.0826
  922PEP     CB33199   3.577  21.112   3.025  0.0418  0.0860 -0.1591
  922PEP     CB33200   3.942  21.247   3.212  0.0538  0.1067  0.0971
  923PEP     CB33201  17.749  15.077  12.700  0.3472 -0.1192 -0.3405
  923PEP     CB33202  17.423  14.988  12.397  0.0327 -0.2486 -0.0924
  923PEP     CB33203  17.161  14.803  12.022  0.1658 -0.3003 -0.4293
  923PEP     CB33204  16.695  14.680  11.913  0.1506  0.0321  0.3315
  923PEP     CB33205  16.371  14.553  12.188 -0.0150  0.2596 -0.0224
  923PEP     CB33206  16.420  14.389  12.573  0.1790  0.3812 -0.2486
  923PEP     CB33207  16.792  14.070  12.864  0.6960  0.6114  0.0005
  923PEP     CB33208  17.057  13.713  12.971  0.2456 -0.0474 -0.1115
  923PEP     CB33209  17.556  13.514  12.875  0.3269 -0.2587  0.0970
  923PEP     CB33210  17.823  13.108  12.970 -0.4635 -0.3872  0.1510
  923PEP     CB33211  17.592  12.745  12.814  0.4276 -0.3773 -0.5176
  923PEP     CB33212  17.256  12.929  12.539 -0.2958 -0.1582 -0.3215
  923PEP     CB33213  17.278  13.370  12.477  0.0852 -0.2388  0.2363
  923PEP     CB33214  17.607  13.659  12.263 -0.0180  0.0983 -0.0091
  923PEP     CB33215  17.955  13.715  11.977  0.0877  0.0956  0.0903
  923PEP     CB33216  18.269  13.445  11.691  0.3123  0.4137 -0.0109
  923PEP     CB33217  18.603  13.231  11.582  0.1319  0.1079 -0.4170
  923PEP     CB33218  18.813  12.916  11.433  0.0108 -0.1307 -0.1624
  923PEP     CB33219  19.089  12.716  11.189  0.0841 -0.2280  0.0498
  923PEP     CB33220  19.273  12.664  10.797 -0.0931 -0.0199  0.0183
  923PEP     CB33221  19.569  12.454  10.507  0.2484  0.0594  0.2149
  923PEP     CB33222  19.859  12.206  10.167  0.2856  0.0032 -0.0061
  923PEP     CB33223  19.936  11.900   9.872  0.1129 -0.2082 -0.0331
  923PEP     CB33224  19.941  11.912   9.402  0.1063 -0.0097 -0.3806
  923PEP     CB33225  19.887  11.613   9.059  0.3421 -0.2459  0.2927
  923PEP     CB33226  19.668  11.608   8.688  0.3487  0.3044  0.3396
  923PEP     CB33227  19.719  11.868   8.376  0.0014 -0.0838  0.0901
  923PEP     CB33228  20.074  12.101   8.371 -0.0688 -0.1541  0.2567
  923PEP     CB33229  20.229  12.275   8.852  0.1022  0.1655 -0.0294
  923PEP     CB33230  20.205  12.646   9.020 -0.2359 -0.0943 -0.0975
  923PEP     CB33231  19.939  12.948   8.901 -0.1238 -0.1674 -0.2749
  923PEP     CB33232  19.810  13.284   8.666  0.3063 -0.4031  0.1111
  923PEP     CB33233  19.762  13.761   8.681  0.4909 -0.1431 -0.3782
  923PEP     CB33234  19.988  14.056   8.860  0.0448  0.0701  0.0357
  923PEP     CB33235  20.306  14.413   8.969  0.1511  0.0560 -0.2662
  923PEP     CB33236  20.579  14.585   9.284 -0.1808  0.0874 -0.0249
  923PEP     CB33237  20.798  14.375   9.682  0.2149 -0.1991  0.1326
  923PEP     CB33238  20.690  13.956   9.901  0.2097  0.0237 -0.0430
  923PEP     CB33239  20.445  13.661  10.033 -0.0008 -0.0363 -0.2486
  923PEP     CB33240  20.255  13.214   9.901  0.3941  0.0432 -0.0258
  924PEP     CB33241   4.763  11.397  17.799  0.1925 -0.1741  0.0487
  924PEP     CB33242   4.423  11.484  17.480 -0.2189  0.1709  0.0399
  924PEP     CB33243   4.046  11.306  17.248  0.0159 -0.4536 -0.2257
  924PEP     CB33244   3.605  11.268  17.195  0.1352  0.4575 -0.4427
  924PEP     CB33245   3.411  11.035  17.542  0.2547  0.0536 -0.0168
  924PEP     CB33246   3.450  10.604  17.663 -0.1542  0.2276  0.2746
  924PEP     CB33247   3.303  10.193  17.498 -0.0133 -0.1765  0.0426
  924PEP     CB33248   3.310   9.955  17.140  0.0259  0.0523  0.0642
  924PEP     CB33249   3.448   9.959  16.684 -0.0237 -0.1532 -0.2140
  924PEP     CB33250   3.741  10.273  16.404 -0.0809  0.3417 -0.1918
  924PEP     CB33251   4.026  10.590  16.336  0.1156  0.0247  0.1052
  924PEP     CB33252   4.144  10.885  16.426 -0.0738  0.1967 -0.1786
  924PEP     CB33253   4.252  11.210  16.739  0.1296  0.0933 -0.3670
  924PEP     CB33254   4.567  11.507  16.851  0.4186  0.0488  0.0456
  924PEP     CB33255   4.661  11.875  17.027  0.2498 -0.0675 -0.3727
  924PEP     CB33256   4.755  12.250  17.246  0.1049 -0.4566 -0.4731
  924PEP     CB33257   4.634  12.764  17.323 -0.0392  0.1222 -0.2717
  924PEP     CB33258   4.665  13.270  17.356 -0.2446  0.4498  0.1695
  924PEP     CB33259   4.616  13.662  17.441  0.2266 -0.5228 -0.0055
  924PEP     CB33260   4.676  14.050  17.238 -0.4734 -0.3322 -0.1883
  924PEP     CB33261   4.643  14.260  16.943  0.3070  0.4841 -0.2521
  924PEP     CB33262   4.801  14.642  16.818 -0.3668  0.0975  0.0159
  924PEP     CB33263   4.780  15.122  16.832  0.1882  0.0023  0.0609
  924PEP     CB33264   4.674  15.487  16.976 -0.0019  0.2052 -0.6165
  924PEP     CB33265   4.533  15.694  16.609  0.1779  0.1700  0.2594
  924PEP     CB33266   4.471  15.861  16.252  0.0593  0.1835  0.0787
  924PEP     CB33267   4.378  15.751  15.840  0.2214 -0.1335  0.2518
  924PEP     CB33268   3.960  15.529  15.689  0.2699 -0.0774 -0.0418
  924PEP     CB33269   3.667  15.515  15.974  0.4079  0.2916 -0.2686
  924PEP     CB33270   3.863  15.421  16.408  0.1692  0.0164 -0.1573
  924PEP     CB33271   4.301  15.316  16.415  0.2836 -0.2197 -0.1564
  924PEP     CB33272   4.605  15.250  16.029  0.0543 -0.0010 -0.1283
  924PEP     CB33273   5.020  14.966  15.853  0.2148 -0.3390 -0.1515
  924PEP     CB33274   4.951  14.625  15.577 -0.0022 -0.1780  0.1939
  924PEP     CB33275   4.604  14.370  15.414  0.0077 -0.3629 -0.3785
  924PEP     CB33276   4.437  13.957  15.263  0.0246  0.0868 -0.0382
  924PEP     CB33277   4.260  13.474  15.203  0.0250 -0.0926  0.1188
  924PEP     CB33278   4.163  13.096  15.343 -0.2713  0.1095 -0.0936
  924PEP     CB33279   4.130  12.982  15.788 -0.3114  0.2831 -0.2544
  924PEP     CB33280   4.033  13.184  16.223  0.3222 -0.0564 -0.4268
  925PEP     CB33281  19.764   4.783  21.255 -0.0895  0.1339 -0.3438
  925PEP     CB33282  19.452   4.762  21.596  0.7321 -0.1373  0.3130
  925PEP     CB33283  18.951   4.757  21.500  0.0270 -0.1804 -0.5227
  925PEP     CB33284  18.797   4.667  21.090  0.0244  0.4552  0.2177
  925PEP     CB33285  18.904   4.494  20.727  0.0059  0.2355 -0.2297
  925PEP     CB33286  19.243   4.388  20.641  0.0566  0.4993 -0.1039
  925PEP     CB33287  19.666   4.444  20.782  0.2484  0.4866 -0.1549
  925PEP     CB33288  20.093   4.439  20.962 -0.1696 -0.2941  0.0190
  925PEP     CB33289  20.354   4.689  20.940  0.0829 -0.4080  0.0314
  925PEP     CB33290  20.540   5.005  20.647 -0.0124 -0.2578  0.1236
  925PEP     CB33291  20.611   5.385  20.677 -0.1146 -0.0988  0.2271
  925PEP     CB33292  20.496   5.843  20.742  0.1255  0.1549 -0.2241
  925PEP     CB33293  20.709   6.257  20.857 -0.1409 -0.0078  0.0102
  925PEP     CB33294  20.912   6.602  20.988  0.2062  0.1094  0.1605
  925PEP     CB33295  20.893   6.921  20.903  0.1696 -0.2371 -0.0858
  925PEP     CB33296  20.760   7.131  20.610 -0.0078 -0.0369 -0.2838
  925PEP     CB33297  20.510   7.604  20.612 -0.0086  0.2349 -0.3207
  925PEP     CB33298  20.099   7.945  20.461 -0.1074 -0.1038  0.0758
  925PEP     CB33299  19.740   8.291  20.417  0.2614 -0.3519 -0.0551
  925PEP     CB33300  19.318   8.539  20.378 -0.0878  0.2055  0.2125
  925PEP     CB33301  19.026   8.772  20.144  0.2869 -0.1964  0.0438
  925PEP     CB33302  18.771   8.982  19.962 -0.2839  0.2215 -0.2034
  925PEP     CB33303  18.489   9.300  20.047 -0.0030 -0.0900 -0.1484
  925PEP     CB33304  18.190   9.695  20.318 -0.0545  0.0662  0.1315
  925PEP     CB33305  17.851   9.953  20.421 -0.4492 -0.0207  0.1979
  925PEP     CB33306  17.466   9.974  20.244  0.0370 -0.3366  0.0632
  925PEP     CB33307  17.195  10.105  19.877  0.1741 -0.2120 -0.3066
  925PEP     CB33308  17.115   9.774  19.604  0.0714 -0.0901  0.2552
  925PEP     CB33309  16.925   9.469  19.379 -0.0785 -0.0819 -0.2972
  925PEP     CB33310  16.552   9.290  19.209 -0.0578  0.2739  0.3017
  925PEP     CB33311  16.088   9.207  19.370  0.1121  0.1299 -0.0284
  925PEP     CB33312  15.698   9.143  19.189 -0.1947  0.2173  0.3079
  925PEP     CB33313  15.511   9.119  18.768 -0.0903 -0.1176 -0.1788
  925PEP     CB33314  15.341   9.001  18.416  0.3449 -0.2980  0.2634
  925PEP     CB33315  14.909   9.255  18.229  0.2562  0.1620  0.1938
  925PEP     CB33316  14.787   9.714  18.338 -0.1565  0.2524 -0.0432
  925PEP     CB33317  14.620  10.143  18.201  0.2544  0.3104  0.0842
  925PEP     CB33318  14.340  10.417  18.280 -0.5007  0.2747 -0.2532
  925PEP     CB33319  13.988  10.615  18.348  0.1051  0.2441 -0.1961
  925PEP     CB33320  13.682  10.935  18.258  0.1823  0.0770  0.3647
  926PEP     CB33321   3.636   0.235  14.967 -0.1561 -0.0733 -0.0919
  926PEP     CB33322   3.356   0.449  15.201 -0.3013  0.0962  0.2417
  926PEP     CB33323   2.967   0.375  15.359  0.0833 -0.1090  0.2522
  926PEP     CB33324   2.532   0.280  15.137  0.1311  0.0368 -0.0852
  926PEP     CB33325   2.113   0.251  15.011  0.0730 -0.2167 -0.0108
  926PEP     CB33326   1.686   0.383  15.088  0.2907  0.2337  0.0038
  926PEP     CB33327   1.398   0.157  14.995  0.3590 -0.2517 -0.0577
  926PEP     CB33328   1.023   0.318  14.810 -0.0973  0.3219 -0.0896
  926PEP     CB33329   0.693   0.446  15.081  0.4470 -0.1771  0.2880
  926PEP     CB33330   0.700   0.697  15.521 -0.3772  0.6201 -0.5154
  926PEP     CB33331   0.996   0.819  15.749  0.4215 -0.1189  0.0909
  926PEP     CB33332   1.438   0.748  15.815  0.2974 -0.1432 -0.3269
  926PEP     CB33333   1.798   0.764  15.727 -0.0129 -0.0865 -0.0606
  926PEP     CB33334   2.173   0.941  15.752 -0.0800  0.2829  0.1197
  926PEP     CB33335   2.645   1.098  15.678 -0.2158 -0.0140 -0.3938
  926PEP     CB33336   3.008   0.831  15.664 -0.1766 -0.0867  0.0488
  926PEP     CB33337   3.297   0.534  15.819 -0.0215 -0.0577 -0.5168
  926PEP     CB33338   3.300   0.056  15.891 -0.1548 -0.3362  0.0589
  926PEP     CB33339   2.914  -0.033  15.809 -0.2246 -0.1536  0.0108
  926PEP     CB33340   2.586   0.316  15.652  0.1970 -0.3213 -0.0459
  926PEP     CB33341   2.425   0.682  15.401  0.1217  0.1776 -0.0233
  926PEP     CB33342   2.483   1.043  15.149 -0.0427 -0.5069 -0.2460
  926PEP     CB33343   2.208   1.235  14.828  0.1156  0.1279  0.0754
  926PEP     CB33344   1.969   0.949  14.528  0.1039  0.1456 -0.0158
  926PEP     CB33345   1.847   0.483  14.603  0.0503 -0.0571  0.1866
  926PEP     CB33346   1.934   0.034  14.520 -0.0865  0.0303  0.0629
  926PEP     CB33347   2.261  -0.113  14.577  0.0076 -0.3128 -0.0353
  926PEP     CB33348   2.686  -0.378  14.578  0.3125  0.0968  0.1870
  926PEP     CB33349   3.040  -0.527  14.466 -0.0447  0.0161 -0.2309
  926PEP     CB33350   3.346  -0.787  14.191  0.0180 -0.0706  0.3867
  926PEP     CB33351   3.734  -1.056  14.205  0.0571 -0.0946 -0.0184
  926PEP     CB33352   3.873  -1.324  14.495 -0.1147  0.0051  0.1452
  926PEP     CB33353   3.720  -1.330  14.921  0.1328  0.1054  0.3615
  926PEP     CB33354   3.931  -1.141  15.279  0.3862  0.0203  0.1125
  926PEP     CB33355   4.286  -0.941  15.243  0.1725  0.0668 -0.0513
  926PEP     CB33356   4.750  -1.068  15.069 -0.2399 -0.0951 -0.1571
  926PEP     CB33357   5.179  -1.302  15.121  0.1049  0.3721 -0.0606
  926PEP     CB33358   5.445  -1.436  14.767 -0.4670 -0.1582  0.0270
  926PEP     CB33359   5.534  -1.276  14.371 -0.0805  0.0674 -0.2713
  926PEP     CB33360   5.480  -1.322  13.946 -0.0471  0.4590  0.1428
  927PEP     CB33361   8.898   0.707   3.383 -0.0618 -0.0956  0.3731
  927PEP     CB33362   8.861   0.787   3.806  0.0414 -0.2419  0.0068
  927PEP     CB33363   8.673   0.683   4.173 -0.4647 -0.3541  0.0923
  927PEP     CB33364   8.443   0.465   4.509 -0.4247  0.2282 -0.2470
  927PEP     CB33365   8.123   0.148   4.706 -0.0089  0.1981  0.2208
  927PEP     CB33366   8.088  -0.305   4.799  0.1367 -0.2880  0.1839
  927PEP     CB33367   8.114  -0.600   4.563 -0.2770  0.0937  0.0172
  927PEP     CB33368   7.869  -0.846   4.186  0.2392  0.0778 -0.2706
  927PEP     CB33369   7.555  -1.138   4.359  0.0255  0.3702 -0.2225
  927PEP     CB33370   7.351  -1.394   4.627 -0.2631  0.0455 -0.3274
  927PEP     CB33371   7.270  -1.594   5.052 -0.0808  0.1348 -0.0196
  927PEP     CB33372   7.123  -1.623   5.428  0.0941 -0.3243  0.2120
  927PEP     CB33373   7.064  -1.350   5.813 -0.0668 -0.0388 -0.3438
  927PEP     CB33374   6.867  -1.155   6.125  0.2491 -0.6121 -0.2606
  927PEP     CB33375   6.845  -0.782   6.342  0.2767  0.2261 -0.0567
  927PEP     CB33376   6.799  -0.309   6.232  0.1837  0.2494 -0.2042
  927PEP     CB33377   6.632  -0.059   6.075  0.3771 -0.3079  0.2399
  927PEP     CB33378   6.602   0.383   5.854 -0.2032 -0.1276  0.3880
  927PEP     CB33379   6.446   0.809   5.877 -0.1140 -0.2775  0.1658
  927PEP     CB33380   6.352   1.246   5.855 -0.0712 -0.2932  0.2884
  927PEP     CB33381   6.150   1.655   5.715 -0.0923 -0.2421  0.1605
  927PEP     CB33382   5.915   1.844   5.406 -0.0430 -0.0128 -0.6544
  927PEP     CB33383   5.539   2.129   5.219 -0.2829 -0.5228 -0.4703
  927PEP     CB33384   5.049   2.177   5.136  0.3506  0.0800  0.1481
  927PEP     CB33385   4.645   2.337   5.049 -0.3505 -0.3494 -0.0541
  927PEP     CB33386   4.238   2.221   5.017  0.0580 -0.0789  0.0494
  927PEP     CB33387   4.147   1.840   5.098  0.7497 -0.2083  0.2705
  927PEP     CB33388   4.049   1.485   4.836 -0.2003  0.1886 -0.2593
  927PEP     CB33389   3.672   1.195   4.706  0.4206  0.0269  0.2065
  927PEP     CB33390   3.531   0.929   4.453  0.1686  0.2344  0.1192
  927PEP     CB33391   3.492   0.436   4.467  0.2424 -0.1767 -0.2604
  927PEP     CB33392   3.591   0.199   4.883  0.1149 -0.1672 -0.1354
  927PEP     CB33393   3.416  -0.121   5.176  0.0453 -0.1465  0.0046
  927PEP     CB33394   2.968  -0.274   5.273  0.1649 -0.1645  0.3231
  927PEP     CB33395   2.597  -0.157   5.060 -0.1370 -0.1298  0.0249
  927PEP     CB33396   2.369   0.044   4.720  0.0929  0.3184 -0.0555
  927PEP     CB33397   2.006   0.147   4.399 -0.1005 -0.4632  0.1145
  927PEP     CB33398   1.708   0.037   3.972 -0.2477 -0.0090  0.4143
  927PEP     CB33399   1.406  -0.078   3.747 -0.0162  0.1506  0.1253
  927PEP     CB33400   1.107  -0.094   3.389  0.0976  0.0594 -0.1563
  928PEP     CB33401  17.583  18.751  17.866 -0.3279 -0.2857 -0.1676
  928PEP     CB33402  17.592  18.354  18.192 -0.0556  0.3574  0.1388
  928PEP     CB33403  17.749  18.044  18.471  0.0213 -0.2299 -0.0478
  928PEP     CB33404  17.436  17.771  18.625 -0.1264  0.0677 -0.3071
  928PEP     CB33405  17.020  17.804  18.300  0.1394 -0.0635 -0.1629
  928PEP     CB33406  16.871  18.038  17.992 -0.2213  0.0566 -0.2215
  928PEP     CB33407  16.944  18.158  17.547 -0.0598 -0.4638 -0.1005
  928PEP     CB33408  17.148  18.371  17.060 -0.1479 -0.1110 -0.2072
  928PEP     CB33409  17.184  18.582  16.797 -0.0444 -0.0041  0.2383
  928PEP     CB33410  17.282  18.977  16.731 -0.1679 -0.3421  0.1516
  928PEP     CB33411  17.653  19.238  16.632  0.1812  0.2905 -0.0805
  928PEP     CB33412  18.035  19.400  16.624 -0.4711 -0.1033  0.3645
  928PEP     CB33413  18.154  19.803  16.556 -0.0166  0.1110  0.0274
  928PEP     CB33414  17.929  20.208  16.446 -0.1221 -0.1143  0.2547
  928PEP     CB33415  17.543  20.563  16.504 -0.0449 -0.1404 -0.4864
  928PEP     CB33416  17.302  20.899  16.584 -0.2821 -0.0688 -0.2096
  928PEP     CB33417  17.114  21.278  16.636 -0.1500  0.4440  0.0100
  928PEP     CB33418  16.883  21.484  16.224 -0.1609  0.3602  0.5422
  928PEP     CB33419  16.508  21.713  15.936  0.0863 -0.0669 -0.0049
  928PEP     CB33420  16.097  21.978  16.063 -0.1022 -0.1996 -0.1153
  928PEP     CB33421  15.811  22.295  15.863  0.4824 -0.1548 -0.1363
  928PEP     CB33422  15.583  22.756  15.909  0.2136  0.2399 -0.1360
  928PEP     CB33423  15.099  22.895  16.014  0.3463 -0.2221 -0.5830
  928PEP     CB33424  14.863  22.768  16.360  0.0755 -0.0297  0.4002
  928PEP     CB33425  14.559  22.561  16.630 -0.2134 -0.0366 -0.0680
  928PEP     CB33426  14.539  22.466  17.028  0.0739  0.0992 -0.0519
  928PEP     CB33427  14.349  22.401  17.471  0.0049 -0.0865 -0.1358
  928PEP     CB33428  14.146  22.014  17.762  0.1474  0.1215 -0.1489
  928PEP     CB33429  14.085  21.846  18.185 -0.1773 -0.0180 -0.3027
  928PEP     CB33430  13.942  21.830  18.621  0.2041  0.0696 -0.0351
  928PEP     CB33431  13.660  22.057  18.881  0.0292 -0.0108  0.1942
  928PEP     CB33432  13.637  22.496  19.265  0.0573  0.1332  0.1073
  928PEP     CB33433  13.842  22.885  19.357 -0.1419  0.3032 -0.1231
  928PEP     CB33434  14.096  23.228  19.378 -0.0215  0.1366 -0.2784
  928PEP     CB33435  14.460  23.402  19.161  0.0404 -0.0842 -0.0207
  928PEP     CB33436  14.711  23.583  18.952  0.1797 -0.2788  0.2890
  928PEP     CB33437  15.039  23.871  18.896 -0.1060  0.0738 -0.2915
  928PEP     CB33438  15.057  24.274  19.255 -0.3208  0.2501 -0.1605
  928PEP     CB33439  15.102  24.670  19.496 -0.2924 -0.3058 -0.1584
  928PEP     CB33440  15.014  25.037  19.748 -0.5382  0.0719  0.4470
  929PEP     CB33441   8.653  20.591   1.832  0.0973 -0.2201 -0.0995
  929PEP     CB33442   8.492  20.926   1.888 -0.4111 -0.2112  0.1641
  929PEP     CB33443   8.368  21.456   1.720  0.2292 -0.0101  0.1299
  929PEP     CB33444   8.452  21.903   1.903 -0.1629 -0.0389  0.5865
  929PEP     CB33445   8.213  22.311   2.070  0.2684 -0.0631 -0.0547
  929PEP     CB33446   8.104  22.602   2.315 -0.1161 -0.3347  0.0117
  929PEP     CB33447   7.837  23.028   2.417  0.1677 -0.2282 -0.1010
  929PEP     CB33448   7.449  23.362   2.443  0.1468  0.0953  0.1308
  929PEP     CB33449   7.305  23.688   2.721 -0.1180 -0.0675  0.2668
  929PEP     CB33450   7.294  24.214   2.838  0.1127 -0.3506  0.1259
  929PEP     CB33451   7.216  24.359   3.212 -0.1357 -0.1566 -0.1062
  929PEP     CB33452   6.932  24.411   3.629  0.0965  0.1231  0.0416
  929PEP     CB33453   6.637  24.512   3.945 -0.0555  0.0908  0.4335
  929PEP     CB33454   6.411  24.780   4.146  0.2146 -0.1315  0.2806
  929PEP     CB33455   6.386  25.133   4.442  0.0001 -0.1076  0.0751
  929PEP     CB33456   6.566  25.473   4.698 -0.1225 -0.1671  0.1115
  929PEP     CB33457   6.426  25.439   5.024 -0.2532  0.2264  0.5047
  929PEP     CB33458   6.168  25.262   5.122  0.2364  0.3274  0.3124
  929PEP     CB33459   5.931  24.989   5.445 -0.1472  0.0544  0.3293
  929PEP     CB33460   5.799  24.717   5.801  0.2513 -0.5408  0.2827
  929PEP     CB33461   5.579  24.618   6.113 -0.0127 -0.0970 -0.3103
  929PEP     CB33462   5.379  24.641   6.597 -0.0692  0.0405 -0.0021
  929PEP     CB33463   5.312  24.510   7.058 -0.1141 -0.3172  0.3051
  929PEP     CB33464   5.346  24.297   7.358  0.0571  0.0856 -0.0511
  929PEP     CB33465   5.402  24.051   7.870 -0.1294 -0.2752  0.2444
  929PEP     CB33466   5.609  24.005   8.254 -0.1670 -0.0257  0.1127
  929PEP     CB33467   5.572  24.123   8.712  0.1895 -0.2919  0.2109
  929PEP     CB33468   5.927  23.927   8.941  0.0270 -0.1723 -0.1809
  929PEP     CB33469   6.030  23.621   8.590  0.2328  0.2724 -0.0899
  929PEP     CB33470   5.658  23.487   8.312  0.3088  0.2025 -0.1431
  929PEP     CB33471   5.251  23.694   8.234 -0.1390  0.2869  0.1035
  929PEP     CB33472   5.121  24.100   8.288  0.4812 -0.7056  0.2593
  929PEP     CB33473   5.434  24.433   8.396 -0.2174  0.0377 -0.0287
  929PEP     CB33474   5.945  24.414   8.482 -0.0397 -0.0274 -0.0940
  929PEP     CB33475   6.267  24.279   8.749 -0.1831  0.1367  0.0982
  929PEP     CB33476   6.411  23.971   8.996 -0.0253  0.2185 -0.1382
  929PEP     CB33477   6.642  23.648   8.936 -0.0141  0.0869  0.1757
  929PEP     CB33478   6.983  23.395   8.929  0.2270 -0.0757 -0.5261
  929PEP     CB33479   7.431  23.200   8.972 -0.2290 -0.3331 -0.1602
  929PEP     CB33480   7.957  23.076   8.850  0.2595  0.0707 -0.0297
  930PEP     CB33481   3.937  13.908  19.872 -0.0768 -0.2595 -0.0415
  930PEP     CB33482   3.856  14.250  20.187  0.2051  0.0613  0.5757
  930PEP     CB33483   3.508  14.517  20.222 -0.0500 -0.4292 -0.2047
  930PEP     CB33484   3.197  14.601  20.459  0.0881 -0.0658  0.0890
  930PEP     CB33485   3.003  14.934  20.729  0.1274 -0.3950 -0.1184
  930PEP     CB33486   2.874  15.042  21.121  0.0481  0.2814  0.2272
  930PEP     CB33487   2.962  15.391  21.429  0.1412  0.0975 -0.0362
  930PEP     CB33488   3.097  15.748  21.629  0.0928 -0.0115  0.1668
  930PEP     CB33489   3.425  16.110  21.592 -0.0505  0.1430  0.5774
  930PEP     CB33490   3.654  16.455  21.475  0.0331  0.2602 -0.1187
  930PEP     CB33491   3.445  16.749  21.217 -0.2356  0.2072  0.1583
  930PEP     CB33492   3.348  17.124  21.250  0.2129  0.0267 -0.2138
  930PEP     CB33493   3.148  17.487  21.309  0.0704  0.2530  0.4528
  930PEP     CB33494   2.944  17.831  21.185 -0.0317  0.0821 -0.0016
  930PEP     CB33495   2.716  18.048  20.897 -0.0640 -0.1534  0.1573
  930PEP     CB33496   2.695  18.282  20.466  0.0676 -0.0723  0.2391
  930PEP     CB33497   2.651  18.626  20.240  0.0241  0.1535  0.0409
  930PEP     CB33498   2.677  18.982  20.003  0.1493 -0.0861 -0.0616
  930PEP     CB33499   2.434  19.335  19.993 -0.2911 -0.2444 -0.3206
  930PEP     CB33500   2.209  19.483  20.276  0.3075  0.0003  0.2741
  930PEP     CB33501   2.270  19.905  20.485 -0.0782  0.7935  0.0920
  930PEP     CB33502   2.334  20.338  20.383 -0.4582  0.1969 -0.0139
  930PEP     CB33503   2.578  20.611  20.343 -0.2396 -0.1844 -0.0360
  930PEP     CB33504   2.827  20.753  20.042 -0.0690  0.0568 -0.3143
  930PEP     CB33505   2.745  20.609  19.578 -0.1228 -0.1514  0.1033
  930PEP     CB33506   2.450  20.276  19.350 -0.1204 -0.3163 -0.3404
  930PEP     CB33507   2.469  19.816  19.246 -0.2547  0.1974  0.3990
  930PEP     CB33508   2.674  19.399  19.443 -0.0288  0.2127  0.0897
  930PEP     CB33509   2.945  19.119  19.578  0.1550  0.2872 -0.0072
  930PEP     CB33510   3.364  19.236  19.707 -0.2283 -0.0518  0.0524
  930PEP     CB33511   3.641  19.615  19.572 -0.2082  0.0222  0.1755
  930PEP     CB33512   3.600  19.771  19.164 -0.4906  0.5214  0.1323
  930PEP     CB33513   3.461  19.902  18.763 -0.2782 -0.0232 -0.1558
  930PEP     CB33514   3.476  20.087  18.319  0.0532  0.2954  0.1049
  930PEP     CB33515   3.621  20.052  17.842  0.0227 -0.2221 -0.2315
  930PEP     CB33516   3.948  19.870  17.575 -0.0184  0.0167  0.1090
  930PEP     CB33517   4.442  19.761  17.661  0.2379  0.1249  0.2754
  930PEP     CB33518   4.799  19.523  17.789  0.2373 -0.0292 -0.2439
  930PEP     CB33519   4.869  19.139  17.984 -0.1075  0.0096  0.3532
  930PEP     CB33520   4.994  18.841  18.274 -0.3118  0.2945  0.0471
  931PEP     CB33521   6.075   1.538   0.531  0.1898  0.1716 -0.0094
  931PEP     CB33522   6.428   1.835   0.658 -0.0411 -0.1270 -0.3382
  931PEP     CB33523   6.487   1.938   1.060 -0.0509 -0.1170  0.1638
  931PEP     CB33524   6.603   2.107   1.539  0.0452 -0.0096 -0.1859
  931PEP     CB33525   6.587   2.536   1.750  0.3304 -0.2701  0.3462
  931PEP     CB33526   6.687   2.956   1.530 -0.1437 -0.1455  0.1111
  931PEP     CB33527   6.361   3.343   1.594 -0.1444  0.1745  0.0260
  931PEP     CB33528   6.402   3.716   1.798  0.4749  0.1776  0.4699
  931PEP     CB33529   6.211   3.901   2.130 -0.1284  0.0492 -0.0943
  931PEP     CB33530   6.083   3.799   2.556 -0.4356  0.0250 -0.3243
  931PEP     CB33531   5.825   3.700   2.909 -0.0580  0.1859 -0.1131
  931PEP     CB33532   5.498   3.390   3.152  0.0383 -0.3589  0.0030
  931PEP     CB33533   5.399   2.961   3.171 -0.0252 -0.0422 -0.0378
  931PEP     CB33534   5.563   2.550   3.167 -0.2015 -0.0010 -0.3141
  931PEP     CB33535   5.697   2.286   2.844  0.0272 -0.0981 -0.1067
  931PEP     CB33536   5.672   1.888   2.684  0.1633 -0.0209 -0.1153
  931PEP     CB33537   5.849   1.580   2.638 -0.1752 -0.0486  0.0980
  931PEP     CB33538   6.148   1.348   2.877  0.1085  0.2383  0.2196
  931PEP     CB33539   6.371   1.213   3.230 -0.0627  0.3445 -0.0318
  931PEP     CB33540   6.199   0.761   3.498  0.0409 -0.1552  0.0959
  931PEP     CB33541   5.783   0.648   3.736 -0.2094 -0.4150  0.1199
  931PEP     CB33542   5.832   0.576   4.157 -0.0892 -0.0592  0.2073
  931PEP     CB33543   6.014   0.299   4.331 -0.2586 -0.0976 -0.3359
  931PEP     CB33544   6.327   0.085   4.195 -0.0037 -0.1766 -0.0468
  931PEP     CB33545   6.763  -0.093   4.316  0.3671 -0.6467  0.3800
  931PEP     CB33546   7.083  -0.198   3.902 -0.1702 -0.0740 -0.0220
  931PEP     CB33547   6.953  -0.176   3.499 -0.1665  0.5144  0.5288
  931PEP     CB33548   6.866   0.137   3.079  0.3919  0.3265  0.0873
  931PEP     CB33549   6.493   0.336   2.817  0.1823 -0.2942  0.3019
  931PEP     CB33550   6.076   0.527   2.991 -0.2446  0.0108  0.0408
  931PEP     CB33551   5.904   0.900   3.093 -0.2353 -0.1432 -0.2043
  931PEP     CB33552   5.498   0.992   2.965 -0.2034 -0.3105 -0.0690
  931PEP     CB33553   5.175   0.743   2.925  0.0143 -0.1861 -0.1114
  931PEP     CB33554   5.107   0.299   2.850  0.4321  0.0896 -0.4060
  931PEP     CB33555   4.928  -0.062   2.551 -0.0609 -0.1472  0.2211
  931PEP     CB33556   4.779  -0.264   2.106 -0.1486  0.0388  0.0674
  931PEP     CB33557   4.464  -0.536   1.875  0.0555 -0.2264  0.1386
  931PEP     CB33558   4.104  -0.869   1.725  0.1539  0.0161  0.1984
  931PEP     CB33559   3.798  -1.260   1.591  0.5968 -0.5513 -0.1674
  931PEP     CB33560   3.531  -1.502   1.905  0.0843  0.1302 -0.4506
  932PEP     CB33561   6.198   5.792   0.690 -0.1497  0.4036 -0.2504
  932PEP     CB33562   6.122   5.866   1.100  0.0867  0.4566  0.1147
  932PEP     CB33563   6.354   5.926   1.464 -0.1665 -0.6444 -0.0413
  932PEP     CB33564   6.282   5.879   1.917  0.0036  0.1409 -0.0975
  932PEP     CB33565   6.159   6.116   2.307 -0.0070 -0.3134 -0.1791
  932PEP     CB33566   6.395   6.509   2.457  0.1136  0.2751  0.1118
  932PEP     CB33567   6.421   6.938   2.438 -0.1027 -0.1203 -0.2775
  932PEP     CB33568   6.348   7.340   2.446  0.1710 -0.1493  0.1870
  932PEP     CB33569   6.085   7.740   2.429  0.0644  0.1060 -0.0230
  932PEP     CB33570   5.906   8.005   2.187 -0.0850  0.0107 -0.0347
  932PEP     CB33571   5.918   8.372   1.799  0.0285 -0.2832 -0.0030
  932PEP     CB33572   5.953   8.846   1.777 -0.0697  0.0750  0.2371
  932PEP     CB33573   6.018   9.242   1.562  0.0201  0.1440 -0.3876
  932PEP     CB33574   6.099   9.596   1.368  0.0278  0.2038 -0.0736
  932PEP     CB33575   6.139  10.065   1.358 -0.3344  0.3155 -0.1106
  932PEP     CB33576   6.364  10.448   1.512 -0.1271  0.1831  0.3400
  932PEP     CB33577   6.169  10.758   1.875 -0.1151  0.3882  0.1323
  932PEP     CB33578   6.007  11.028   2.116 -0.1593  0.1178 -0.0428
  932PEP     CB33579   5.808  11.360   2.417  0.0511 -0.3049 -0.3658
  932PEP     CB33580   5.717  11.698   2.201 -0.2663  0.3681 -0.4899
  932PEP     CB33581   5.965  12.003   1.964 -0.2522  0.4257  0.2511
  932PEP     CB33582   6.213  12.423   1.921 -0.0824 -0.1348  0.1948
  932PEP     CB33583   6.284  12.799   1.967  0.0492  0.0321  0.0166
  932PEP     CB33584   6.178  13.223   2.136  0.0951 -0.2534 -0.3779
  932PEP     CB33585   5.696  13.338   2.248  0.1739  0.0914  0.2384
  932PEP     CB33586   5.386  13.022   2.404 -0.1931 -0.1333  0.0137
  932PEP     CB33587   5.132  12.709   2.436  0.4752  0.4352  0.0519
  932PEP     CB33588   4.791  12.530   2.343 -0.2502 -0.1766  0.0218
  932PEP     CB33589   4.375  12.396   2.467 -0.2459 -0.0734  0.2829
  932PEP     CB33590   4.131  12.485   2.815  0.0087  0.2762  0.2611
  932PEP     CB33591   3.703  12.457   2.988 -0.2679  0.1659  0.1356
  932PEP     CB33592   3.454  12.675   3.379 -0.0452  0.3892  0.1443
  932PEP     CB33593   3.225  12.561   3.686 -0.1526  0.1987  0.3601
  932PEP     CB33594   3.153  12.491   4.214 -0.0654  0.1535 -0.0135
  932PEP     CB33595   3.245  12.558   4.699  0.1016  0.0384  0.1924
  932PEP     CB33596   3.590  12.742   4.948 -0.0048 -0.1827  0.1343
  932PEP     CB33597   3.868  13.077   4.965 -0.3118 -0.5101 -0.3800
  932PEP     CB33598   3.886  13.378   4.642  0.3001 -0.1966 -0.1214
  932PEP     CB33599   3.726  13.770   4.531  0.2126 -0.1901  0.4626
  932PEP     CB33600   3.355  13.998   4.774 -0.1569 -0.0845  0.1169
  933PEP     CB33601  18.198   5.308  14.413 -0.1573  0.1523 -0.0417
  933PEP     CB33602  18.186   4.853  14.371 -0.3757 -0.0308  0.0113
  933PEP     CB33603  18.022   4.384  14.347  0.0011  0.0897  0.0569
  933PEP     CB33604  17.902   3.937  14.350  0.0751  0.5429 -0.4673
  933PEP     CB33605  17.548   3.675  14.334 -0.0006 -0.0583 -0.1304
  933PEP     CB33606  17.178   3.769  14.487 -0.5498  0.0990  0.1083
  933PEP     CB33607  17.163   3.961  14.883  0.0559  0.1868 -0.0307
  933PEP     CB33608  17.448   3.809  15.227 -0.0021  0.0613  0.0513
  933PEP     CB33609  17.621   3.389  15.479 -0.0512  0.4443 -0.0037
  933PEP     CB33610  17.459   3.094  15.741 -0.3817 -0.1338  0.1313
  933PEP     CB33611  17.391   2.694  15.949  0.0122 -0.2935 -0.0840
  933PEP     CB33612  17.158   2.250  15.954  0.3758  0.2262 -0.0834
  933PEP     CB33613  16.948   1.872  15.941  0.0354  0.0856 -0.0724
  933PEP     CB33614  16.962   1.377  15.823  0.0498  0.2788 -0.1442
  933PEP     CB33615  16.849   0.968  15.843  0.3305  0.0773  0.0253
  933PEP     CB33616  16.631   0.580  15.976  0.3010  0.0689 -0.1159
  933PEP     CB33617  16.706   0.094  16.059  0.0169 -0.0329  0.6777
  933PEP     CB33618  17.014  -0.207  15.850  0.1408 -0.2866 -0.3208
  933PEP     CB33619  17.247  -0.639  15.814 -0.0879 -0.0204  0.5668
  933PEP     CB33620  17.169  -1.016  15.872 -0.0432 -0.0861 -0.0000
  933PEP     CB33621  17.107  -1.419  16.185  0.1628  0.0571  0.0908
  933PEP     CB33622  17.258  -1.829  16.355  0.1844 -0.1863  0.1871
  933PEP     CB33623  17.431  -2.038  16.664 -0.1496  0.1818 -0.3217
  933PEP     CB33624  17.593  -2.373  16.863  0.0391 -0.0889  0.0092
  933PEP     CB33625  17.439  -2.760  17.223  0.0399 -0.2118  0.1708
  933PEP     CB33626  17.412  -2.905  17.640 -0.0293  0.2376  0.5260
  933PEP     CB33627  17.096  -2.936  18.014 -0.1501 -0.0644 -0.1805
  933PEP     CB33628  16.806  -3.077  18.268 -0.0513 -0.3586  0.0317
  933PEP     CB33629  16.710  -3.232  18.689  0.1325  0.3587  0.2865
  933PEP     CB33630  16.582  -3.281  19.189 -0.1159 -0.3863 -0.1848
  933PEP     CB33631  16.567  -2.904  19.291  0.3403  0.2263  0.1321
  933PEP     CB33632  16.702  -2.487  19.297  0.3076  0.0545 -0.1782
  933PEP     CB33633  16.565  -2.088  19.230  0.0836 -0.0286 -0.0371
  933PEP     CB33634  16.741  -1.650  19.340 -0.4067  0.4474 -0.0474
  933PEP     CB33635  17.077  -1.458  19.275 -0.3607 -0.2300  0.2715
  933PEP     CB33636  17.311  -1.291  18.821  0.0812  0.0176  0.2925
  933PEP     CB33637  17.246  -1.033  18.455  0.0307  0.1507 -0.0576
  933PEP     CB33638  17.029  -0.895  18.084  0.0975 -0.2184 -0.1132
  933PEP     CB33639  17.059  -0.614  17.889  0.3092  0.1480  0.0403
  933PEP     CB33640  17.181  -0.524  17.529 -0.1659  0.0980  0.1903
  934PEP     CB33641   7.784   9.677  21.185 -0.0409 -0.4231 -0.0766
  934PEP     CB33642   7.645  10.002  21.493 -0.1769 -0.3959  0.2099
  934PEP     CB33643   7.350  10.299  21.654 -0.0642  0.0870  0.1106
  934PEP     CB33644   7.119  10.524  21.971  0.2765  0.1913 -0.1289
  934PEP     CB33645   7.223  10.736  22.286 -0.2022 -0.4190 -0.2140
  934PEP     CB33646   7.481  10.726  22.675  0.1639  0.0027  0.2620
  934PEP     CB33647   7.745  10.426  22.959  0.1335 -0.4518  0.1134
  934PEP     CB33648   7.840  10.426  23.392  0.2137 -0.1936 -0.1506
  934PEP     CB33649   7.685  10.192  23.841  0.0288  0.4617 -0.1296
  934PEP     CB33650   7.484  10.141  24.241 -0.4257  0.2188 -0.1194
  934PEP     CB33651   7.111  10.295  24.361  0.0712  0.2535 -0.0306
  934PEP     CB33652   6.984  10.609  24.629  0.0874 -0.3177  0.2255
  934PEP     CB33653   7.262  10.884  24.901  0.0391  0.0194  0.3276
  934PEP     CB33654   7.632  11.112  24.818  0.2681  0.2926 -0.1299
  934PEP     CB33655   7.815  11.356  24.347  0.1713  0.0417 -0.3877
  934PEP     CB33656   8.141  11.614  24.138 -0.1180 -0.2551 -0.3451
  934PEP     CB33657   8.503  11.658  24.171  0.1601 -0.1898 -0.2682
  934PEP     CB33658   8.850  11.776  24.483  0.2879 -0.0017 -0.0790
  934PEP     CB33659   9.106  11.997  24.807 -0.0641 -0.0680  0.3009
  934PEP     CB33660   9.170  12.433  24.868 -0.1733  0.1164 -0.1614
  934PEP     CB33661   8.920  12.746  24.706 -0.1917  0.0486 -0.0538
  934PEP     CB33662   8.519  12.705  24.747  0.1172  0.1198 -0.0180
  934PEP     CB33663   8.079  12.857  24.677 -0.1397  0.2181  0.1855
  934PEP     CB33664   7.759  13.020  24.316  0.0256  0.2641  0.2177
  934PEP     CB33665   7.800  13.213  23.938  0.1808  0.1148 -0.1380
  934PEP     CB33666   7.443  13.281  23.636 -0.0226 -0.2562  0.0473
  934PEP     CB33667   7.054  13.024  23.729 -0.0653 -0.1050  0.1342
  934PEP     CB33668   6.668  12.661  23.645 -0.1356  0.0364 -0.1661
  934PEP     CB33669   6.384  12.265  23.458  0.0143  0.3967 -0.5895
  934PEP     CB33670   5.983  12.383  23.243 -0.0649  0.1591  0.3387
  934PEP     CB33671   5.772  12.845  23.090  0.0435 -0.1472 -0.2937
  934PEP     CB33672   5.919  13.247  22.866  0.2082 -0.2002 -0.2317
  934PEP     CB33673   6.297  13.559  22.843 -0.3643 -0.0792  0.1348
  934PEP     CB33674   6.718  13.582  23.150 -0.0883 -0.0844  0.2039
  934PEP     CB33675   6.825  13.299  23.349  0.0355 -0.0474  0.0161
  934PEP     CB33676   6.706  12.865  23.175  0.0955  0.5320  0.1276
  934PEP     CB33677   6.451  12.761  22.860 -0.4832  0.1318  0.0804
  934PEP     CB33678   6.346  13.123  22.565  0.0000  0.1493 -0.3740
  934PEP     CB33679   6.684  13.448  22.436 -0.0347  0.1903 -0.0932
  934PEP     CB33680   6.980  13.629  22.688 -0.1001  0.0993  0.5721
  935PEP     CB33681  16.075  14.908  21.526 -0.0016 -0.1944  0.2103
  935PEP     CB33682  16.347  15.244  21.606 -0.0272 -0.1608  0.0711
  935PEP     CB33683  16.578  15.555  21.790 -0.1968  0.0276  0.0911
  935PEP     CB33684  16.718  15.899  22.013 -0.2533 -0.0980  0.0101
  935PEP     CB33685  16.865  16.287  22.088 -0.0486  0.0300 -0.0783
  935PEP     CB33686  16.855  16.588  21.803  0.1904  0.2528 -0.0733
  935PEP     CB33687  16.774  16.463  21.295  0.0652 -0.3132  0.1353
  935PEP     CB33688  16.987  16.107  21.171  0.2275 -0.1310 -0.3507
  935PEP     CB33689  16.792  15.778  21.374 -0.2996 -0.0687 -0.1442
  935PEP     CB33690  16.398  16.009  21.520  0.2465  0.1963  0.0838
  935PEP     CB33691  16.396  16.427  21.677  0.2450  0.0761  0.1563
  935PEP     CB33692  16.435  16.572  22.144 -0.2841  0.0205 -0.2717
  935PEP     CB33693  16.287  16.938  22.343 -0.1148 -0.2457  0.0993
  935PEP     CB33694  16.025  17.290  22.107 -0.1096 -0.2587 -0.1803
  935PEP     CB33695  15.961  17.180  21.668 -0.1463  0.0054  0.1407
  935PEP     CB33696  16.299  16.933  21.432 -0.0963 -0.0364 -0.0553
  935PEP     CB33697  16.764  17.011  21.460 -0.2216 -0.0738 -0.1175
  935PEP     CB33698  17.102  17.058  21.815 -0.1051  0.0609  0.0040
  935PEP     CB33699  17.225  16.696  22.172 -0.0976  0.0616 -0.2348
  935PEP     CB33700  17.398  16.343  22.173 -0.1717  0.0067 -0.2975
  935PEP     CB33701  17.838  16.174  22.184  0.1780  0.0244 -0.0902
  935PEP     CB33702  18.070  15.840  22.198  0.1455  0.4367  0.1434
  935PEP     CB33703  18.459  15.698  22.471 -0.2980 -0.0430  0.1009
  935PEP     CB33704  18.809  15.741  22.742 -0.2199 -0.2568 -0.3002
  935PEP     CB33705  18.989  15.892  23.034  0.0587  0.1011 -0.0077
  935PEP     CB33706  19.153  15.856  23.507  0.1705  0.1243 -0.3697
  935PEP     CB33707  19.279  15.492  23.606  0.4070  0.1254 -0.3148
  935PEP     CB33708  19.644  15.229  23.462  0.1752 -0.2880  0.0999
  935PEP     CB33709  19.820  15.083  23.112  0.3118 -0.0492 -0.2325
  935PEP     CB33710  19.778  14.834  22.864  0.1202  0.4012  0.1451
  935PEP     CB33711  19.512  14.674  22.554 -0.0197 -0.6048 -0.1249
  935PEP     CB33712  19.157  14.786  22.269 -0.2934  0.0411 -0.1451
  935PEP     CB33713  18.875  14.756  21.999  0.0019  0.2825  0.1600
  935PEP     CB33714  18.517  14.685  21.944  0.4257 -0.2541 -0.0742
  935PEP     CB33715  18.193  14.940  21.757  0.0671  0.1749  0.3024
  935PEP     CB33716  17.751  15.184  21.868  0.2764  0.1707  0.3427
  935PEP     CB33717  17.606  15.606  21.941 -0.2247 -0.1260  0.0633
  935PEP     CB33718  17.590  16.040  21.804 -0.1220  0.7084 -0.1574
  935PEP     CB33719  17.803  16.230  21.416 -0.2154 -0.1120  0.2328
  935PEP     CB33720  18.179  16.072  21.069 -0.1765  0.4064 -0.0027
  936PEP     CB33721   1.200  10.255  10.443  0.2211 -0.0429  0.2635
  936PEP     CB33722   1.476  10.638  10.653  0.1354 -0.1161 -0.4371
  936PEP     CB33723   1.682  10.894  10.967  0.0896 -0.0180 -0.1080
  936PEP     CB33724   1.717  10.976  11.386 -0.1085  0.4146  0.4526
  936PEP     CB33725   1.986  11.131  11.658  0.1639 -0.2950 -0.1341
  936PEP     CB33726   2.407  11.365  11.500 -0.0984  0.2832  0.1330
  936PEP     CB33727   2.899  11.530  11.457  0.0175  0.1930  0.2323
  936PEP     CB33728   3.147  11.728  11.773  0.0592 -0.0435 -0.1199
  936PEP     CB33729   3.262  11.857  12.223 -0.2528  0.1459  0.0547
  936PEP     CB33730   3.614  12.002  12.304  0.0802 -0.4639  0.1709
  936PEP     CB33731   4.001  11.875  12.132 -0.3553  0.4170  0.2457
  936PEP     CB33732   4.130  11.579  11.903  0.1082 -0.0464  0.1835
  936PEP     CB33733   4.016  11.479  11.509 -0.2432 -0.0217  0.0914
  936PEP     CB33734   3.985  11.621  11.177 -0.1845  0.2236  0.0061
  936PEP     CB33735   3.725  11.820  10.920 -0.0353  0.0662 -0.1315
  936PEP     CB33736   3.451  12.018  10.697 -0.1236 -0.1046 -0.0239
  936PEP     CB33737   3.229  12.443  10.469 -0.0872 -0.3990  0.3881
  936PEP     CB33738   2.809  12.587  10.198 -0.3740  0.3719 -0.1721
  936PEP     CB33739   2.387  12.675  10.089 -0.0196 -0.0614  0.1781
  936PEP     CB33740   2.000  12.692  10.176 -0.2205  0.1009  0.0557
  936PEP     CB33741   1.755  12.512  10.402 -0.2132  0.4086  0.2070
  936PEP     CB33742   1.716  12.155  10.494  0.0539  0.3264  0.3939
  936PEP     CB33743   1.512  11.830  10.806  0.0031 -0.1677  0.2828
  936PEP     CB33744   1.419  11.345  11.071 -0.2829  0.1781  0.2664
  936PEP     CB33745   1.153  10.952  11.132  0.3357 -0.1900  0.2945
  936PEP     CB33746   1.114  10.486  10.955  0.1968 -0.0801 -0.0624
  936PEP     CB33747   1.217  10.032  10.960  0.3148  0.0212  0.5541
  936PEP     CB33748   1.554   9.755  11.038 -0.2750 -0.4754 -0.2132
  936PEP     CB33749   1.915   9.636  11.238  0.1183 -0.2318 -0.0961
  936PEP     CB33750   2.276   9.514  11.311 -0.1931 -0.3353 -0.4685
  936PEP     CB33751   2.692   9.220  11.362 -0.2008  0.0591  0.4312
  936PEP     CB33752   3.090   8.948  11.499  0.1114  0.1665 -0.1514
  936PEP     CB33753   3.164   8.484  11.598 -0.2022 -0.2889  0.0381
  936PEP     CB33754   3.083   8.261  11.885  0.3425 -0.1003 -0.0030
  936PEP     CB33755   2.737   8.051  12.097  0.0730  0.1235 -0.3513
  936PEP     CB33756   2.429   7.728  12.221 -0.2645  0.3564 -0.6745
  936PEP     CB33757   2.099   7.363  12.127  0.2307  0.1230 -0.1053
  936PEP     CB33758   1.840   7.073  12.293 -0.3035  0.0780 -0.1809
  936PEP     CB33759   1.542   7.056  12.580 -0.0398  0.5009 -0.1844
  936PEP     CB33760   1.238   7.311  12.740  0.1029  0.1632  0.2451
  937PEP     CB33761   1.037  11.304  11.640  0.1108  0.4158 -0.3428
  937PEP     CB33762   1.465  11.456  11.549  0.0460 -0.0952  0.1234
  937PEP     CB33763   1.806  11.527  11.195 -0.5670 -0.3198 -0.1138
  937PEP     CB33764   2.055  11.222  11.087 -0.1805  0.0157 -0.2588
  937PEP     CB33765   2.140  10.838  11.179 -0.2098 -0.0664  0.2890
  937PEP     CB33766   2.313  10.485  11.440 -0.1404 -0.0008 -0.1824
  937PEP     CB33767   2.653  10.497  11.764 -0.0135  0.4368  0.0948
  937PEP     CB33768   2.752  10.876  11.938 -0.1524  0.1456 -0.1716
  937PEP     CB33769   2.449  11.225  12.002 -0.3357  0.1366 -0.0588
  937PEP     CB33770   2.045  11.102  12.164 -0.3076  0.1988  0.1281
  937PEP     CB33771   1.724  10.863  11.915 -0.0415 -0.0587 -0.4614
  937PEP     CB33772   1.297  10.762  11.909  0.2413  0.1358  0.4913
  937PEP     CB33773   1.123  10.421  11.867  0.0234  0.2443 -0.2253
  937PEP     CB33774   0.846  10.183  11.890 -0.1190  0.2194  0.1230
  937PEP     CB33775   0.520   9.942  11.864 -0.0503  0.1034  0.0191
  937PEP     CB33776   0.142   9.991  12.083  0.1739  0.1959  0.3027
  937PEP     CB33777  -0.177   9.833  12.367 -0.0227 -0.0556 -0.0448
  937PEP     CB33778  -0.181   9.843  12.765  0.0771  0.3133 -0.4649
  937PEP     CB33779  -0.013   9.670  13.184 -0.2419 -0.1366  0.0215
  937PEP     CB33780   0.309   9.752  13.498  0.1979  0.1544  0.2566
  937PEP     CB33781   0.608  10.002  13.571 -0.3942 -0.0567 -0.0289
  937PEP     CB33782   0.600  10.390  13.780 -0.4160 -0.2530  0.0284
  937PEP     CB33783   0.371  10.742  13.877 -0.3660 -0.3161 -0.0724
  937PEP     CB33784   0.274  11.027  14.195 -0.0454  0.5208  0.2394
  937PEP     CB33785   0.241  10.874  14.724  0.2631 -0.2586  0.0177
  937PEP     CB33786   0.561  10.486  14.763 -0.3083  0.1090 -0.3258
  937PEP     CB33787   0.908  10.341  14.489  0.2222  0.0763  0.1547
  937PEP     CB33788   1.295  10.588  14.216 -0.3667 -0.1769 -0.0787
  937PEP     CB33789   1.320  11.042  14.173  0.1763 -0.1320 -0.0304
  937PEP     CB33790   1.518  11.324  14.485  0.3428  0.2049 -0.0488
  937PEP     CB33791   1.655  11.089  14.981 -0.1696 -0.0214  0.0878
  937PEP     CB33792   1.829  10.781  15.267  0.0908  0.0533 -0.0700
  937PEP     CB33793   2.101  10.593  15.656 -0.2866 -0.2206  0.1060
  937PEP     CB33794   2.158  10.505  16.069 -0.0548  0.0512  0.1592
  937PEP     CB33795   2.414  10.366  16.515 -0.0036 -0.0167  0.3577
  937PEP     CB33796   2.573  10.220  16.929 -0.0808  0.2075  0.4448
  937PEP     CB33797   2.777   9.992  17.229  0.0693  0.1457 -0.0959
  937PEP     CB33798   2.789   9.888  17.694 -0.0808  0.5298  0.1564
  937PEP     CB33799   3.053  10.184  18.043  0.3233  0.1788 -0.0651
  937PEP     CB33800   3.305  10.126  18.365 -0.2623  0.0499 -0.0239
  938PEP     CB33801  20.755   7.171   4.873  0.1639  0.0783 -0.4677
  938PEP     CB33802  20.443   7.357   4.738  0.1695 -0.0990 -0.2077
  938PEP     CB33803  20.299   7.666   4.847  0.4591  0.2159 -0.1173
  938PEP     CB33804  20.482   7.822   5.228 -0.1235  0.0536  0.2325
  938PEP     CB33805  20.663   7.709   5.576  0.1054 -0.1016  0.0865
  938PEP     CB33806  20.957   7.421   5.952 -0.1882 -0.2503  0.2230
  938PEP     CB33807  20.829   7.351   6.403 -0.1191 -0.1257 -0.5081
  938PEP     CB33808  20.551   7.041   6.547  0.1884  0.1605 -0.1246
  938PEP     CB33809  20.141   7.132   6.765 -0.0452 -0.1694  0.1607
  938PEP     CB33810  19.937   7.027   7.132 -0.1273  0.1007  0.0100
  938PEP     CB33811  19.903   6.702   7.480 -0.0319 -0.0991  0.1241
  938PEP     CB33812  19.693   6.614   7.864 -0.0582  0.1735  0.0418
  938PEP     CB33813  19.286   6.485   7.978 -0.3697  0.2300  0.0115
  938PEP     CB33814  18.979   6.492   7.799  0.1044  0.2321  0.1522
  938PEP     CB33815  18.830   6.606   7.338  0.0005  0.1379 -0.0247
  938PEP     CB33816  18.526   6.827   7.027  0.1246  0.2729  0.0733
  938PEP     CB33817  18.315   7.169   6.847 -0.1804  0.2738  0.2559
  938PEP     CB33818  18.388   7.579   6.822 -0.1171 -0.0797  0.2838
  938PEP     CB33819  18.519   7.950   6.959 -0.2720  0.0809  0.0080
  938PEP     CB33820  18.585   8.133   7.346  0.0635 -0.1994  0.0947
  938PEP     CB33821  18.542   8.087   7.833  0.2087  0.3541 -0.3975
  938PEP     CB33822  18.466   8.258   8.223 -0.0347 -0.0500  0.1931
  938PEP     CB33823  18.688   8.506   8.562  0.0111  0.1369  0.0119
  938PEP     CB33824  18.991   8.514   8.789  0.1193 -0.0388 -0.2165
  938PEP     CB33825  19.219   8.878   8.867 -0.2249  0.0320  0.1788
  938PEP     CB33826  19.545   9.226   8.984  0.0261  0.1971 -0.1657
  938PEP     CB33827  19.871   9.481   8.833  0.3554  0.1567 -0.0490
  938PEP     CB33828  20.300   9.631   8.727  0.2063  0.0795  0.1548
  938PEP     CB33829  20.667   9.772   8.515 -0.1236  0.1959 -0.1400
  938PEP     CB33830  20.728   9.673   8.103  0.3130 -0.1570 -0.2463
  938PEP     CB33831  20.702   9.432   7.736 -0.0492  0.0172  0.2601
  938PEP     CB33832  20.776   9.117   7.515  0.0764  0.0624 -0.1009
  938PEP     CB33833  21.014   8.994   7.172 -0.2195 -0.1324 -0.0194
  938PEP     CB33834  21.120   9.084   6.742 -0.1581 -0.0417  0.2773
  938PEP     CB33835  21.273   9.198   6.383 -0.2468 -0.1227 -0.1813
  938PEP     CB33836  21.034   9.138   6.002 -0.1010  0.3130 -0.0519
  938PEP     CB33837  20.698   8.781   5.942  0.2128  0.0071  0.1977
  938PEP     CB33838  20.345   8.637   6.152  0.0701  0.6340  0.1445
  938PEP     CB33839  20.300   8.775   6.597 -0.0446  0.3270 -0.3504
  938PEP     CB33840  20.553   8.961   6.841 -0.2183  0.0791  0.3282
  939PEP     CB33841   2.817  18.530  21.838  0.4053  0.0605  0.0958
  939PEP     CB33842   3.173  18.667  22.026 -0.1187 -0.1515 -0.2375
  939PEP     CB33843   3.614  18.649  22.119  0.2978  0.1241  0.3536
  939PEP     CB33844   3.962  18.307  22.039  0.0723  0.1344  0.0619
  939PEP     CB33845   4.074  17.878  22.152  0.2307 -0.0817  0.1539
  939PEP     CB33846   3.860  17.470  22.127 -0.2684 -0.2957 -0.1070
  939PEP     CB33847   3.552  17.210  21.895  0.0733 -0.2837 -0.1569
  939PEP     CB33848   3.366  16.772  21.725  0.0902 -0.1184  0.1116
  939PEP     CB33849   3.032  16.599  21.546  0.0169 -0.0289  0.4353
  939PEP     CB33850   2.773  16.502  21.081  0.2501 -0.0220 -0.0982
  939PEP     CB33851   2.838  16.806  20.752 -0.1545  0.0631  0.1235
  939PEP     CB33852   3.139  16.890  20.382 -0.0420 -0.1064 -0.3151
  939PEP     CB33853   3.029  16.958  19.916  0.1927  0.1209  0.1682
  939PEP     CB33854   2.608  17.116  19.749 -0.2134 -0.1882 -0.1968
  939PEP     CB33855   2.311  16.826  19.553  0.3674 -0.0297  0.0482
  939PEP     CB33856   2.345  16.382  19.431  0.0676  0.0195  0.4232
  939PEP     CB33857   2.404  16.021  19.246  0.0461  0.1866 -0.3074
  939PEP     CB33858   2.190  15.717  19.011  0.1716 -0.0688 -0.0529
  939PEP     CB33859   1.918  15.689  18.654 -0.0978  0.2203  0.0271
  939PEP     CB33860   1.566  15.924  18.617 -0.2299 -0.2003  0.1831
  939PEP     CB33861   1.354  16.208  18.947  0.0664  0.0179 -0.3072
  939PEP     CB33862   1.253  16.018  19.414 -0.1201  0.0727 -0.0294
  939PEP     CB33863   1.475  15.786  19.626 -0.0349  0.0505 -0.1936
  939PEP     CB33864   1.801  15.682  19.961  0.1006 -0.1711  0.0918
  939PEP     CB33865   2.106  15.814  20.249 -0.1214 -0.1812 -0.0755
  939PEP     CB33866   2.468  15.763  20.523  0.1023  0.1580 -0.0056
  939PEP     CB33867   2.913  15.616  20.457 -0.0004  0.0567  0.1474
  939PEP     CB33868   3.082  15.205  20.246 -0.1960  0.1535 -0.6616
  939PEP     CB33869   3.472  15.015  20.207  0.1364 -0.1039  0.0873
  939PEP     CB33870   3.917  14.926  20.154 -0.2167  0.1854 -0.2154
  939PEP     CB33871   4.208  15.095  20.416 -0.1006 -0.0525  0.2912
  939PEP     CB33872   4.373  14.956  20.774  0.2496 -0.0991  0.2260
  939PEP     CB33873   4.226  14.639  21.002  0.1535 -0.0201  0.1982
  939PEP     CB33874   3.906  14.420  21.099 -0.2132 -0.5469  0.0659
  939PEP     CB33875   3.807  14.002  21.114 -0.1309 -0.2302  0.0899
  939PEP     CB33876   3.431  13.780  20.959 -0.1057 -0.0554  0.1279
  939PEP     CB33877   3.365  13.613  20.546  0.0786  0.2505 -0.1078
  939PEP     CB33878   3.160  13.385  20.357 -0.2337  0.4066  0.2449
  939PEP     CB33879   3.087  13.212  19.985  0.0706  0.2806  0.5390
  939PEP     CB33880   2.818  12.918  19.745 -0.1161 -0.0346  0.3497
  940PEP     CB33881  21.010  18.649   2.635 -0.1731 -0.2724 -0.1865
  940PEP     CB33882  21.427  18.628   2.786  0.1019 -0.0208  0.2319
  940PEP     CB33883  21.819  18.421   2.743 -0.3668 -0.0449 -0.1386
  940PEP     CB33884  22.032  18.041   2.745 -0.1011 -0.0943 -0.1170
  940PEP     CB33885  22.475  17.942   2.616  0.0982  0.4667 -0.0592
  940PEP     CB33886  22.879  17.886   2.503 -0.1807 -0.2528  0.0208
  940PEP     CB33887  23.126  18.076   2.131 -0.2883 -0.2527 -0.0715
  940PEP     CB33888  23.040  18.162   1.629  0.2564  0.0599 -0.0441
  940PEP     CB33889  23.021  17.958   1.165  0.1781  0.1027  0.0366
  940PEP     CB33890  23.287  17.864   0.873 -0.2155 -0.1098  0.4666
  940PEP     CB33891  23.619  17.675   0.693  0.1870  0.4112  0.1876
  940PEP     CB33892  23.927  17.410   0.466  0.0789 -0.3955 -0.0378
  940PEP     CB33893  24.099  17.020   0.600 -0.0233  0.0487  0.3988
  940PEP     CB33894  24.158  16.891   1.011 -0.2958 -0.2703  0.2243
  940PEP     CB33895  23.778  16.956   1.350  0.4062 -0.0041 -0.2364
  940PEP     CB33896  23.382  16.884   1.188 -0.3259 -0.0687  0.1060
  940PEP     CB33897  23.289  16.530   0.979 -0.0594  0.1892  0.1042
  940PEP     CB33898  23.043  16.194   0.982 -0.0690  0.0048 -0.0295
  940PEP     CB33899  22.713  15.956   1.297  0.0896 -0.2676 -0.2663
  940PEP     CB33900  22.298  15.949   1.460 -0.3928 -0.1168  0.2304
  940PEP     CB33901  21.916  15.618   1.259 -0.2735  0.1982 -0.1725
  940PEP     CB33902  21.906  15.549   0.751 -0.2247 -0.1829  0.0357
  940PEP     CB33903  22.227  15.388   0.519  0.0245 -0.2329  0.3955
  940PEP     CB33904  22.424  15.046   0.584  0.0344  0.0056  0.1473
  940PEP     CB33905  22.817  14.678   0.598  0.2334 -0.4971  0.3225
  940PEP     CB33906  23.282  14.379   0.574  0.1335  0.1097  0.0456
  940PEP     CB33907  23.684  14.444   0.531  0.0112 -0.0631  0.4229
  940PEP     CB33908  24.031  14.497   0.189 -0.0907 -0.1404 -0.4286
  940PEP     CB33909  24.441  14.667   0.046  0.0343 -0.1394  0.1692
  940PEP     CB33910  24.842  14.468  -0.173  0.4225  0.4204  0.3370
  940PEP     CB33911  25.326  14.497  -0.033 -0.2549 -0.4067  0.1114
  940PEP     CB33912  25.517  14.526   0.441 -0.0469  0.4613 -0.2196
  940PEP     CB33913  25.299  14.469   0.773  0.1493 -0.1473 -0.2078
  940PEP     CB33914  25.239  14.530   1.260  0.3701  0.2483 -0.1017
  940PEP     CB33915  25.085  14.448   1.653 -0.1919  0.1352 -0.2139
  940PEP     CB33916  24.787  14.152   1.859 -0.0421 -0.1312 -0.0605
  940PEP     CB33917  24.866  13.896   2.166 -0.2174 -0.3693 -0.0115
  940PEP     CB33918  25.186  14.031   2.498 -0.1119  0.1109 -0.0693
  940PEP     CB33919  25.667  14.149   2.365 -0.0935  0.0323 -0.0554
  940PEP     CB33920  25.831  14.603   2.375  0.1846 -0.0091 -0.1592
  941PEP     CB33921   4.354  13.446   2.643  0.2655 -0.1325  0.0633
  941PEP     CB33922   4.317  13.231   3.029 -0.3540 -0.0780 -0.1180
  941PEP     CB33923   4.134  13.289   3.421  0.1051 -0.0761  0.1804
  941PEP     CB33924   4.039  13.322   3.797  0.1683  0.1789 -0.0417
  941PEP     CB33925   4.039  13.512   4.193  0.1940 -0.0158 -0.1221
  941PEP     CB33926   4.209  13.912   4.372 -0.0047  0.1197  0.2931
  941PEP     CB33927   3.963  14.289   4.303  0.1703 -0.2190  0.4679
  941PEP     CB33928   3.644  14.221   3.963 -0.1159 -0.0598 -0.4592
  941PEP     CB33929   3.167  14.170   3.826  0.0927 -0.1321  0.2229
  941PEP     CB33930   2.704  14.153   3.737  0.0835  0.1085 -0.2629
  941PEP     CB33931   2.336  14.421   3.657 -0.0260  0.1222 -0.2306
  941PEP     CB33932   2.180  14.549   3.311 -0.1855 -0.2723 -0.4069
  941PEP     CB33933   2.177  14.420   2.833  0.0074  0.1509  0.1997
  941PEP     CB33934   2.275  14.534   2.420  0.0301  0.0144  0.2043
  941PEP     CB33935   2.393  14.966   2.319  0.1454 -0.2157 -0.1417
  941PEP     CB33936   2.411  15.205   2.554 -0.1491 -0.2960  0.1900
  941PEP     CB33937   2.272  15.030   2.989 -0.3352 -0.0064  0.1276
  941PEP     CB33938   1.877  14.818   3.035  0.2887 -0.0999 -0.0464
  941PEP     CB33939   1.453  14.949   2.951  0.1339  0.1117  0.1295
  941PEP     CB33940   1.036  14.853   3.132 -0.2620 -0.1815 -0.3331
  941PEP     CB33941   0.593  14.879   3.127 -0.1467  0.1735 -0.1235
  941PEP     CB33942   0.118  14.957   3.190  0.1014  0.0615 -0.1043
  941PEP     CB33943  -0.318  14.922   3.092 -0.2926 -0.2927 -0.0406
  941PEP     CB33944  -0.761  14.865   2.991  0.2541 -0.4041  0.3926
  941PEP     CB33945  -1.087  14.780   3.189 -0.1123  0.0369 -0.1336
  941PEP     CB33946  -1.489  14.820   3.424 -0.0116  0.2770  0.4045
  941PEP     CB33947  -1.748  14.988   3.518  0.0575  0.5465 -0.1828
  941PEP     CB33948  -1.848  15.288   3.705 -0.2580  0.1542 -0.1297
  941PEP     CB33949  -1.959  15.533   4.068  0.3095 -0.3010 -0.0354
  941PEP     CB33950  -2.058  15.541   4.563  0.0056  0.1794  0.0649
  941PEP     CB33951  -1.977  15.505   4.994  0.0516  0.0592  0.0642
  941PEP     CB33952  -1.767  15.595   5.326 -0.2431  0.2051 -0.0465
  941PEP     CB33953  -1.805  15.498   5.699 -0.3273  0.0618  0.0372
  941PEP     CB33954  -1.979  15.492   6.092 -0.1503 -0.3031 -0.1763
  941PEP     CB33955  -2.308  15.293   6.302  0.0362  0.1506  0.1264
  941PEP     CB33956  -2.625  15.257   6.653 -0.0252  0.1970  0.3491
  941PEP     CB33957  -2.947  15.516   6.543  0.3393 -0.3520 -0.1165
  941PEP     CB33958  -2.837  15.791   6.261  0.1424  0.2175  0.5541
  941PEP     CB33959  -2.670  16.007   5.842 -0.1353 -0.1517  0.1453
  941PEP     CB33960  -2.799  16.246   5.510 -0.1668  0.1072 -0.4892
  942PEP     CB33961  12.360   6.989   4.788  0.0961 -0.0716 -0.0457
  942PEP     CB33962  12.102   6.985   4.498  0.0102 -0.6451 -0.1657
  942PEP     CB33963  11.700   6.964   4.507  0.1702 -0.3005 -0.0262
  942PEP     CB33964  11.431   7.189   4.791  0.4284 -0.1021  0.3728
  942PEP     CB33965  11.126   7.471   4.921 -0.1821 -0.2258 -0.3550
  942PEP     CB33966  11.212   7.893   4.843 -0.1707  0.2233  0.1283
  942PEP     CB33967  11.268   8.341   4.847  0.0724  0.1151  0.1019
  942PEP     CB33968  11.390   8.705   4.751  0.2736  0.1344  0.1166
  942PEP     CB33969  11.664   9.033   4.571  0.3872 -0.3180 -0.0568
  942PEP     CB33970  11.905   9.343   4.751 -0.2159  0.1573 -0.0946
  942PEP     CB33971  11.946   9.432   5.222 -0.3372 -0.4191  0.1167
  942PEP     CB33972  11.588   9.500   5.528 -0.2111 -0.0387 -0.0093
  942PEP     CB33973  11.165   9.541   5.583 -0.2755  0.3426 -0.1209
  942PEP     CB33974  10.767   9.546   5.381 -0.4387  0.4335  0.3286
  942PEP     CB33975  10.417   9.518   5.203 -0.1461  0.1380  0.4528
  942PEP     CB33976  10.040   9.468   5.279 -0.3028  0.0433  0.0085
  942PEP     CB33977   9.766   9.200   5.435  0.2241  0.0234 -0.1587
  942PEP     CB33978   9.262   9.241   5.493 -0.1164 -0.0029  0.0549
  942PEP     CB33979   9.084   9.685   5.588 -0.0585  0.1532  0.1283
  942PEP     CB33980   9.304  10.016   5.854  0.3992  0.8353 -0.0960
  942PEP     CB33981   9.736  10.037   5.901 -0.0651  0.3320 -0.1010
  942PEP     CB33982  10.000   9.656   5.780 -0.0121  0.0053 -0.0822
  942PEP     CB33983  10.426   9.462   5.711 -0.0889  0.0083  0.3628
  942PEP     CB33984  10.756   9.277   5.775 -0.2075 -0.1129  0.3352
  942PEP     CB33985  10.849   8.983   5.447 -0.0573 -0.1327 -0.0348
  942PEP     CB33986  10.951   8.672   5.012 -0.3761 -0.0710  0.0840
  942PEP     CB33987  10.712   8.365   4.919 -0.0124  0.1437  0.1264
  942PEP     CB33988  10.608   8.122   4.566  0.1253  0.0063  0.1191
  942PEP     CB33989  10.366   7.747   4.287  0.2209 -0.1057  0.2172
  942PEP     CB33990  10.231   7.330   4.441  0.0543 -0.1695 -0.1831
  942PEP     CB33991  10.240   6.896   4.501  0.0109 -0.3145  0.1027
  942PEP     CB33992  10.265   6.528   4.279 -0.1298 -0.0406 -0.1768
  942PEP     CB33993  10.288   6.432   3.788  0.2800  0.1180 -0.3831
  942PEP     CB33994  10.588   6.626   3.567 -0.2659 -0.0776 -0.1294
  942PEP     CB33995  10.847   7.011   3.598 -0.0833 -0.0600  0.2425
  942PEP     CB33996  11.241   7.116   3.802  0.0831 -0.2402  0.5998
  942PEP     CB33997  11.649   7.102   3.829  0.1680 -0.0953  0.1941
  942PEP     CB33998  12.001   7.272   4.081 -0.1217 -0.0915 -0.4802
  942PEP     CB33999  12.413   7.318   4.263 -0.2337  0.1794 -0.0985
  942PEP     CB34000  12.845   7.436   4.404  0.3142 -0.0562 -0.4960
  943PEP     CB34001  12.263   0.291  19.728 -0.1461  0.1453  0.0193
  943PEP     CB34002  12.624   0.364  19.471  0.3474 -0.1754 -0.0553
  943PEP     CB34003  12.720   0.093  19.148 -0.3171  0.1758 -0.0810
  943PEP     CB34004  12.612  -0.305  19.217  0.1992  0.5572  0.2182
  943PEP     CB34005  12.258  -0.484  19.476 -0.1871  0.1488  0.0122
  943PEP     CB34006  12.110  -0.581  19.933  0.2454 -0.2261 -0.0284
  943PEP     CB34007  12.091  -0.987  20.065  0.1582  0.1872  0.0377
  943PEP     CB34008  12.275  -1.318  19.837  0.0233 -0.1307  0.2519
  943PEP     CB34009  12.558  -1.345  19.422  0.3427 -0.2316 -0.3444
  943PEP     CB34010  12.763  -1.326  18.990  0.0532  0.0185  0.1591
  943PEP     CB34011  13.212  -1.129  18.911  0.3710  0.1391 -0.1120
  943PEP     CB34012  13.473  -0.809  19.225 -0.0733  0.0640  0.1062
  943PEP     CB34013  13.261  -0.513  19.606  0.1949 -0.4074  0.2123
  943PEP     CB34014  13.262  -0.225  19.854 -0.3304 -0.0007 -0.0868
  943PEP     CB34015  13.183   0.244  19.940  0.1317  0.0996 -0.0482
  943PEP     CB34016  13.123   0.584  19.638  0.0426  0.0445  0.2577
  943PEP     CB34017  12.773   0.826  19.472  0.0499  0.3616 -0.1358
  943PEP     CB34018  12.400   1.113  19.342 -0.1421  0.0567 -0.2251
  943PEP     CB34019  11.868   1.391  19.383  0.4354  0.1867 -0.1426
  943PEP     CB34020  11.512   1.338  19.104 -0.0227 -0.4923  0.0956
  943PEP     CB34021  11.263   1.307  18.858 -0.0376 -0.1066 -0.0364
  943PEP     CB34022  11.110   1.650  18.513 -0.1663  0.1562 -0.0041
  943PEP     CB34023  11.117   1.962  18.323 -0.2142 -0.1933  0.1489
  943PEP     CB34024  10.929   2.254  17.967 -0.0258 -0.0207 -0.0860
  943PEP     CB34025  10.599   2.214  17.614 -0.0812  0.2018 -0.2251
  943PEP     CB34026  10.344   1.909  17.412 -0.0917  0.1052  0.0094
  943PEP     CB34027  10.518   1.483  17.369  0.0849 -0.0946 -0.0870
  943PEP     CB34028  10.979   1.494  17.579  0.2161 -0.1675 -0.0944
  943PEP     CB34029  11.230   1.851  17.827 -0.0775  0.1408  0.1747
  943PEP     CB34030  11.572   2.022  17.769 -0.1558  0.0478  0.1754
  943PEP     CB34031  11.740   2.343  17.440  0.6078  0.0728 -0.0725
  943PEP     CB34032  12.003   2.567  17.186 -0.1644  0.0708  0.2341
  943PEP     CB34033  11.994   2.628  16.775 -0.2236 -0.0083  0.1224
  943PEP     CB34034  11.725   2.713  16.458  0.1589 -0.1160 -0.1806
  943PEP     CB34035  11.471   3.033  16.176  0.2472 -0.4787  0.1695
  943PEP     CB34036  11.571   3.282  15.877  0.0544 -0.2869  0.4571
  943PEP     CB34037  11.980   3.284  15.629 -0.1134 -0.0172  0.0861
  943PEP     CB34038  12.208   2.916  15.355 -0.0507 -0.2837  0.0814
  943PEP     CB34039  12.365   2.551  15.445 -0.3922 -0.1926  0.1806
  943PEP     CB34040  12.530   2.292  15.333 -0.3020 -0.2364  0.1257
  944PEP     CB34041  12.539  15.355   7.989  0.5121 -0.0924  0.1724
  944PEP     CB34042  12.945  15.419   8.156  0.3152  0.2957  0.0972
  944PEP     CB34043  13.271  15.699   8.225  0.1617  0.3233  0.0477
  944PEP     CB34044  13.506  15.995   7.922  0.1052  0.2334  0.1064
  944PEP     CB34045  13.813  15.947   7.612  0.3180  0.0300 -0.3994
  944PEP     CB34046  14.001  16.130   7.218  0.1692  0.0906 -0.0492
  944PEP     CB34047  14.307  16.313   6.966 -0.1900  0.5464 -0.1201
  944PEP     CB34048  14.490  16.271   6.527 -0.0475  0.1026  0.1194
  944PEP     CB34049  14.347  15.957   6.174  0.1849  0.1701 -0.0753
  944PEP     CB34050  14.341  15.586   6.126  0.1278  0.0490 -0.3147
  944PEP     CB34051  14.056  15.278   6.084  0.2145  0.0336 -0.0718
  944PEP     CB34052  14.054  15.023   5.680 -0.0507 -0.1083  0.2018
  944PEP     CB34053  14.108  15.247   5.307 -0.1837  0.4812  0.0578
  944PEP     CB34054  14.141  15.700   5.220  0.2698 -0.0203 -0.0217
  944PEP     CB34055  14.170  16.116   5.017 -0.2702  0.0523  0.3477
  944PEP     CB34056  14.330  16.578   4.931  0.5963  0.0250 -0.2213
  944PEP     CB34057  14.319  17.020   4.881 -0.3800 -0.0669  0.1815
  944PEP     CB34058  14.320  17.435   4.742  0.3491  0.0991 -0.2438
  944PEP     CB34059  14.218  17.885   4.770 -0.1496  0.0283  0.4470
  944PEP     CB34060  14.134  18.173   5.030 -0.1960 -0.0580 -0.3607
  944PEP     CB34061  14.337  18.504   5.226  0.4653 -0.0070 -0.2250
  944PEP     CB34062  14.441  18.902   5.101 -0.0183 -0.0327 -0.3781
  944PEP     CB34063  14.389  19.295   4.888 -0.1893 -0.1497 -0.2082
  944PEP     CB34064  14.583  19.697   4.963  0.1413 -0.1159 -0.0181
  944PEP     CB34065  14.654  19.916   5.248  0.2295 -0.3012  0.0083
  944PEP     CB34066  14.679  19.797   5.653 -0.2170  0.1209  0.1025
  944PEP     CB34067  14.959  19.461   5.875  0.0374 -0.0517 -0.1001
  944PEP     CB34068  15.397  19.488   5.904 -0.3803  0.2309 -0.5003
  944PEP     CB34069  15.592  19.823   5.822  0.2583  0.3546 -0.0357
  944PEP     CB34070  15.500  20.188   5.623  0.3829 -0.2239  0.1290
  944PEP     CB34071  15.277  20.509   5.556 -0.0037  0.1047 -0.3437
  944PEP     CB34072  14.997  20.830   5.720 -0.1084  0.0530  0.1220
  944PEP     CB34073  14.893  20.956   6.208  0.1331 -0.1447 -0.1561
  944PEP     CB34074  14.877  20.874   6.588 -0.2370 -0.0988 -0.4336
  944PEP     CB34075  15.157  21.105   6.896  0.3169  0.1722  0.2305
  944PEP     CB34076  15.462  21.488   7.034 -0.0693 -0.1154 -0.1047
  944PEP     CB34077  15.803  21.463   7.326  0.3452 -0.3002  0.1377
  944PEP     CB34078  16.123  21.429   7.593 -0.1208  0.0003 -0.1008
  944PEP     CB34079  16.327  21.773   7.798 -0.1658 -0.1015 -0.3117
  944PEP     CB34080  16.617  22.021   8.078 -0.3554  0.0662  0.0559
  945PEP     CB34081  18.950   4.323  19.111  0.2681  0.5802 -0.1365
  945PEP     CB34082  19.222   4.400  19.513  0.0193  0.0520  0.2589
  945PEP     CB34083  19.350   4.658  19.885 -0.1312 -0.3374 -0.1411
  945PEP     CB34084  19.475   4.855  20.312  0.3376  0.0263  0.1615
  945PEP     CB34085  19.646   4.992  20.782  0.2863  0.0130 -0.7157
  945PEP     CB34086  19.646   5.261  21.033  0.1201  0.5307 -0.2205
  945PEP     CB34087  19.649   5.220  21.563 -0.1791 -0.1631  0.3100
  945PEP     CB34088  19.367   5.105  21.902 -0.5191 -0.0760 -0.4634
  945PEP     CB34089  19.126   4.722  22.055 -0.0899  0.0674 -0.2499
  945PEP     CB34090  19.179   4.358  21.750  0.1429 -0.1580  0.2081
  945PEP     CB34091  19.233   4.497  21.191  0.1893 -0.1087 -0.0082
  945PEP     CB34092  19.211   4.874  20.880 -0.0693 -0.1393 -0.2217
  945PEP     CB34093  19.205   5.351  20.910 -0.1691 -0.2376  0.0008
  945PEP     CB34094  19.199   5.685  21.080  0.0191  0.2686 -0.2870
  945PEP     CB34095  19.020   5.950  21.054 -0.0362  0.0227  0.0030
  945PEP     CB34096  18.908   6.306  21.225  0.0110 -0.4536 -0.0284
  945PEP     CB34097  19.082   6.675  21.336  0.0595 -0.0010 -0.0137
  945PEP     CB34098  19.347   6.824  21.635  0.0337 -0.1859  0.3572
  945PEP     CB34099  19.792   6.912  21.760 -0.3597  0.0794 -0.1805
  945PEP     CB34100  20.270   6.933  21.750  0.2215 -0.3521 -0.1719
  945PEP     CB34101  20.639   6.809  21.897  0.1719 -0.2045  0.0300
  945PEP     CB34102  20.850   6.663  22.083  0.2496 -0.2701  0.1075
  945PEP     CB34103  21.135   6.318  22.100  0.3729  0.0850 -0.1666
  945PEP     CB34104  21.415   5.960  22.236 -0.1110  0.0851  0.0736
  945PEP     CB34105  21.676   5.600  22.398 -0.0405  0.1476 -0.0026
  945PEP     CB34106  21.923   5.243  22.695 -0.1076 -0.1129  0.0532
  945PEP     CB34107  22.095   4.829  22.746  0.0875 -0.1942  0.2250
  945PEP     CB34108  22.434   4.623  22.929  0.0074 -0.3687 -0.4220
  945PEP     CB34109  22.906   4.450  22.918 -0.1066  0.0266  0.0362
  945PEP     CB34110  23.345   4.484  22.865 -0.2285 -0.0897  0.2012
  945PEP     CB34111  23.825   4.354  22.752  0.0539 -0.0977 -0.1354
  945PEP     CB34112  24.051   4.453  22.345  0.4734 -0.0906  0.2505
  945PEP     CB34113  24.171   4.226  21.936  0.0382 -0.4181 -0.1516
  945PEP     CB34114  24.342   4.068  21.507  0.1518  0.1159  0.3172
  945PEP     CB34115  24.668   3.990  21.309  0.0562  0.0496  0.5024
  945PEP     CB34116  25.153   3.970  21.262 -0.1756 -0.1603  0.2771
  945PEP     CB34117  25.544   3.892  21.343  0.0059 -0.0740 -0.1444
  945PEP     CB34118  25.891   3.874  21.658 -0.2832 -0.1902 -0.2263
  945PEP     CB34119  26.195   3.755  21.950 -0.2615  0.2575 -0.0566
  945PEP     CB34120  26.530   3.701  22.150  0.4267 -0.0761 -0.0045
  946PEP     CB34121   2.594   6.199   9.465 -0.1968 -0.3552 -0.0292
  946PEP     CB34122   2.774   6.533   9.613  0.0652 -0.1602  0.0955
  946PEP     CB34123   2.824   6.984   9.718  0.2765  0.0675  0.1623
  946PEP     CB34124   2.397   7.275   9.637  0.6354  0.0411 -0.2568
  946PEP     CB34125   2.200   7.283   9.186  0.3623 -0.1344 -0.2579
  946PEP     CB34126   2.328   6.979   8.821 -0.3273 -0.0802  0.2023
  946PEP     CB34127   2.665   6.825   8.694  0.2454  0.0172 -0.2790
  946PEP     CB34128   3.017   6.591   8.659 -0.3991 -0.0343  0.0773
  946PEP     CB34129   2.996   6.180   8.573 -0.1589  0.0506  0.0547
  946PEP     CB34130   2.866   5.880   8.365  0.2885 -0.2142 -0.2318
  946PEP     CB34131   3.058   5.500   8.272  0.1549  0.3732 -0.0410
  946PEP     CB34132   2.923   5.012   8.261  0.2609  0.1374 -0.1219
  946PEP     CB34133   2.680   4.698   8.624  0.0288  0.2975  0.2368
  946PEP     CB34134   2.857   4.734   8.994 -0.1806 -0.1120 -0.2799
  946PEP     CB34135   2.977   4.668   9.412  0.0071  0.0901  0.0004
  946PEP     CB34136   2.912   4.376   9.764 -0.4066 -0.3151  0.0489
  946PEP     CB34137   3.015   3.974   9.918 -0.2656 -0.1379 -0.1184
  946PEP     CB34138   3.155   3.724  10.243  0.4744  0.2882 -0.0686
  946PEP     CB34139   3.209   3.241  10.311  0.1901  0.0267 -0.1101
  946PEP     CB34140   3.183   2.904  10.012  0.2754 -0.1293  0.1089
  946PEP     CB34141   2.838   2.857   9.671  0.2601  0.0483  0.1617
  946PEP     CB34142   2.370   3.009   9.672 -0.0982  0.2912  0.0793
  946PEP     CB34143   2.063   2.908  10.134 -0.1977 -0.2807 -0.1500
  946PEP     CB34144   2.126   2.537  10.474 -0.3400  0.1461  0.0537
  946PEP     CB34145   2.292   2.134  10.315 -0.0049  0.0199  0.2574
  946PEP     CB34146   2.665   2.168  10.109  0.1887 -0.1239  0.0606
  946PEP     CB34147   2.812   2.351   9.811 -0.0478 -0.1323 -0.2701
  946PEP     CB34148   3.200   2.415   9.522 -0.0742 -0.0471  0.0962
  946PEP     CB34149   3.585   2.227   9.329  0.2646  0.0738  0.1127
  946PEP     CB34150   4.006   2.105   9.050  0.3281  0.3406 -0.5206
  946PEP     CB34151   4.142   2.036   8.715  0.0461 -0.2533 -0.3678
  946PEP     CB34152   4.191   1.750   8.363  0.2765  0.0806 -0.1202
  946PEP     CB34153   3.819   1.431   8.163  0.0939  0.0227 -0.0558
  946PEP     CB34154   3.278   1.372   8.203  0.3032  0.0577 -0.1035
  946PEP     CB34155   3.019   1.757   8.240 -0.0730  0.2442  0.1373
  946PEP     CB34156   3.094   2.020   8.575 -0.1659  0.0645 -0.0788
  946PEP     CB34157   3.472   1.977   8.861  0.2454 -0.0011  0.1249
  946PEP     CB34158   3.776   1.666   8.841 -0.0074  0.0192 -0.0047
  946PEP     CB34159   3.746   1.264   8.625 -0.2652  0.0894 -0.3397
  946PEP     CB34160   3.537   1.009   8.450 -0.1326 -0.0521  0.0439
  947PEP     CB34161   2.624  14.159   2.628 -0.2496  0.0726 -0.1710
  947PEP     CB34162   2.742  14.394   2.306 -0.0186  0.1210 -0.2311
  947PEP     CB34163   2.823  14.861   2.166  0.1370 -0.0933  0.0431
  947PEP     CB34164   2.779  15.247   2.197 -0.2054 -0.3827 -0.0051
  947PEP     CB34165   2.572  15.622   2.312 -0.3519 -0.1201 -0.3015
  947PEP     CB34166   2.237  15.953   2.338 -0.2451  0.0326  0.0119
  947PEP     CB34167   1.876  16.055   2.548 -0.1182  0.2873  0.1449
  947PEP     CB34168   1.519  16.377   2.312 -0.0675 -0.1244  0.4867
  947PEP     CB34169   1.439  16.651   1.911 -0.1502  0.1634  0.1386
  947PEP     CB34170   1.027  16.769   1.680  0.4257  0.1433 -0.0541
  947PEP     CB34171   0.593  16.876   1.819  0.1973 -0.0948  0.2359
  947PEP     CB34172   0.564  16.836   2.244 -0.0183  0.0912 -0.0990
  947PEP     CB34173   0.708  16.452   2.437  0.1669  0.0198  0.2571
  947PEP     CB34174   0.735  15.997   2.333  0.1032  0.2421 -0.0599
  947PEP     CB34175   0.676  15.523   2.188  0.0593  0.0770  0.1520
  947PEP     CB34176   0.793  15.106   2.227  0.3540 -0.1305 -0.0139
  947PEP     CB34177   0.669  14.795   2.565 -0.0535 -0.2451 -0.1474
  947PEP     CB34178   0.311  14.723   2.731 -0.6372  0.0127 -0.1765
  947PEP     CB34179  -0.095  14.853   2.625  0.2622 -0.0911  0.0258
  947PEP     CB34180  -0.574  14.854   2.481 -0.0626 -0.3506  0.0105
  947PEP     CB34181  -0.902  14.663   2.510  0.0446 -0.1965  0.0680
  947PEP     CB34182  -1.261  14.720   2.400  0.0441 -0.0259  0.2705
  947PEP     CB34183  -1.459  14.898   2.010 -0.4211 -0.0366 -0.2253
  947PEP     CB34184  -1.512  15.349   1.859 -0.1091 -0.1429 -0.1698
  947PEP     CB34185  -1.128  15.575   1.821  0.1394  0.3019  0.2279
  947PEP     CB34186  -0.669  15.365   1.924 -0.0060  0.0087  0.1080
  947PEP     CB34187  -0.248  15.080   1.955  0.3531  0.1665 -0.0213
  947PEP     CB34188  -0.065  14.778   1.750  0.1492 -0.2043  0.0379
  947PEP     CB34189   0.066  14.672   1.291 -0.1759  0.2455  0.2389
  947PEP     CB34190  -0.006  14.365   0.828  0.0371  0.2955  0.1988
  947PEP     CB34191  -0.429  14.032   0.701  0.0874  0.1251  0.1264
  947PEP     CB34192  -0.408  13.617   1.071  0.1355  0.2249  0.3419
  947PEP     CB34193  -0.172  13.732   1.464  0.2476 -0.3921  0.2738
  947PEP     CB34194   0.160  14.056   1.430 -0.0576  0.0586 -0.2231
  947PEP     CB34195   0.312  14.104   1.041  0.1609 -0.0710 -0.2488
  947PEP     CB34196   0.137  13.815   0.693  0.0438  0.3528 -0.0702
  947PEP     CB34197   0.167  13.512   0.364 -0.0388  0.0111  0.1551
  947PEP     CB34198   0.144  13.129   0.193 -0.0238 -0.2525 -0.2365
  947PEP     CB34199  -0.091  12.719   0.083  0.3080  0.1871  0.2617
  947PEP     CB34200  -0.271  12.351   0.288 -0.0711 -0.2104  0.0792
  948PEP     CB34201  18.275   8.540   2.054  0.0530  0.1843 -0.2600
  948PEP     CB34202  18.133   8.418   1.660 -0.2504 -0.2526  0.2902
  948PEP     CB34203  17.889   8.556   1.316 -0.3192 -0.0819  0.0498
  948PEP     CB34204  17.577   8.669   0.955 -0.0493 -0.1431 -0.1464
  948PEP     CB34205  17.255   8.441   0.854  0.2281  0.1086  0.0605
  948PEP     CB34206  17.074   8.304   0.554 -0.0968  0.4294 -0.0629
  948PEP     CB34207  17.090   8.023   0.259 -0.3251  0.1267  0.1073
  948PEP     CB34208  17.395   7.746   0.204 -0.4182  0.4328 -0.2376
  948PEP     CB34209  17.636   7.443   0.265 -0.2630 -0.0633  0.0142
  948PEP     CB34210  17.691   7.146   0.099  0.2235 -0.1341  0.0866
  948PEP     CB34211  17.366   6.984  -0.179 -0.0557  0.1018  0.0411
  948PEP     CB34212  16.872   7.011  -0.238  0.0247 -0.0873 -0.1841
  948PEP     CB34213  16.454   7.085  -0.013 -0.1164  0.1114 -0.0187
  948PEP     CB34214  16.079   6.937   0.206  0.0479 -0.0534  0.0601
  948PEP     CB34215  15.691   6.978   0.059 -0.1752  0.1077  0.2160
  948PEP     CB34216  15.551   6.944  -0.351  0.1139 -0.1882 -0.2014
  948PEP     CB34217  15.279   7.203  -0.563 -0.2172 -0.0510 -0.2790
  948PEP     CB34218  15.127   7.628  -0.334 -0.2831  0.2612  0.0784
  948PEP     CB34219  15.235   8.010  -0.354 -0.1388 -0.2914 -0.2657
  948PEP     CB34220  15.414   8.073  -0.692 -0.0837 -0.3352  0.1040
  948PEP     CB34221  15.748   7.876  -0.872  0.2485 -0.0501 -0.2890
  948PEP     CB34222  15.786   7.399  -0.975  0.0182  0.2168  0.1068
  948PEP     CB34223  15.726   6.898  -0.897  0.2938  0.3811 -0.1885
  948PEP     CB34224  15.629   6.524  -0.807  0.0566 -0.0282  0.2051
  948PEP     CB34225  15.305   6.114  -0.804  0.0078  0.2446 -0.0833
  948PEP     CB34226  15.240   5.771  -0.626 -0.2455 -0.0509 -0.0065
  948PEP     CB34227  14.861   5.604  -0.460 -0.2659  0.1250  0.0419
  948PEP     CB34228  14.491   5.883  -0.292  0.2449 -0.1326  0.0991
  948PEP     CB34229  14.451   6.276  -0.371  0.4158 -0.3300  0.0744
  948PEP     CB34230  14.288   6.651  -0.401 -0.2332  0.0102  0.0450
  948PEP     CB34231  13.993   6.880  -0.602  0.0569 -0.1560 -0.1524
  948PEP     CB34232  13.672   7.213  -0.533 -0.0481 -0.0883 -0.1445
  948PEP     CB34233  13.395   7.514  -0.704 -0.0389  0.2127 -0.1893
  948PEP     CB34234  13.248   7.803  -0.891  0.1005  0.1765  0.1809
  948PEP     CB34235  12.894   8.006  -1.188 -0.3830  0.0768  0.0788
  948PEP     CB34236  12.650   8.029  -1.617  0.1808  0.1220  0.0872
  948PEP     CB34237  12.289   7.910  -1.744  0.1497 -0.3431  0.3538
  948PEP     CB34238  11.826   7.845  -1.500  0.1027  0.0500  0.4581
  948PEP     CB34239  11.591   8.183  -1.235  0.1183 -0.1927 -0.2447
  948PEP     CB34240  11.283   8.409  -0.923  0.3702 -0.1067 -0.0119
  949PEP     CB34241   2.338  11.114   6.762  0.2582 -0.1497 -0.1530
  949PEP     CB34242   2.668  10.899   6.618 -0.3333 -0.2161 -0.1000
  949PEP     CB34243   3.014  10.752   6.570  0.0115 -0.3198  0.0570
  949PEP     CB34244   3.270  10.489   6.784  0.1646  0.0501  0.1738
  949PEP     CB34245   3.151  10.279   7.160 -0.0049 -0.1942 -0.1196
  949PEP     CB34246   2.676  10.173   7.212  0.1622  0.0048 -0.2851
  949PEP     CB34247   2.395  10.188   7.502 -0.0342 -0.2672 -0.1408
  949PEP     CB34248   2.210  10.015   7.916 -0.0586 -0.2116  0.1757
  949PEP     CB34249   1.989   9.936   8.243  0.0803  0.1846 -0.0645
  949PEP     CB34250   1.935  10.040   8.683 -0.0966  0.0451  0.3965
  949PEP     CB34251   1.902  10.318   9.001  0.0750  0.1433 -0.0092
  949PEP     CB34252   1.860  10.731   9.090  0.0635  0.5971  0.2425
  949PEP     CB34253   1.759  11.168   9.099 -0.0785  0.3068 -0.0894
  949PEP     CB34254   1.695  11.628   9.164 -0.4239  0.2260  0.1126
  949PEP     CB34255   1.541  12.074   9.297  0.0296  0.3317  0.2516
  949PEP     CB34256   1.365  12.490   9.543  0.2906  0.2961 -0.1443
  949PEP     CB34257   1.024  12.564   9.760  0.6627  0.1413 -0.0368
  949PEP     CB34258   0.809  12.240   9.979 -0.1756 -0.1030  0.0378
  949PEP     CB34259   1.026  11.945  10.342  0.0794 -0.1686  0.1417
  949PEP     CB34260   1.443  11.821  10.169  0.2225 -0.0382  0.2108
  949PEP     CB34261   1.527  11.761   9.708 -0.1634  0.0966  0.2730
  949PEP     CB34262   1.346  11.446   9.487 -0.2336  0.1922 -0.1034
  949PEP     CB34263   1.049  11.104   9.628  0.1448 -0.0648  0.1388
  949PEP     CB34264   0.801  10.807   9.824 -0.0126  0.3225 -0.1846
  949PEP     CB34265   0.509  10.483   9.819 -0.3127 -0.1291 -0.2929
  949PEP     CB34266   0.303  10.209   9.540 -0.0492 -0.1252  0.1539
  949PEP     CB34267   0.409   9.936   9.226  0.2811 -0.2879 -0.0308
  949PEP     CB34268   0.349   9.579   9.238 -0.0211  0.8782  0.3180
  949PEP     CB34269   0.062   9.366   9.366  0.0484  0.1730 -0.1060
  949PEP     CB34270  -0.152   9.102   9.738 -0.0485 -0.2361 -0.1770
  949PEP     CB34271  -0.347   9.103  10.211 -0.0277  0.1572 -0.1054
  949PEP     CB34272  -0.298   9.314  10.615  0.1963  0.0441  0.0273
  949PEP     CB34273  -0.364   9.628  10.910  0.4942  0.4831 -0.0880
  949PEP     CB34274  -0.215   9.920  11.236 -0.1722  0.0274 -0.3455
  949PEP     CB34275  -0.290   9.924  11.759  0.3020 -0.4019 -0.0787
  949PEP     CB34276  -0.670  10.015  11.975 -0.1392  0.4322  0.0675
  949PEP     CB34277  -1.081  10.127  11.874 -0.3130  0.0542  0.2741
  949PEP     CB34278  -1.407  10.187  11.546  0.2045 -0.3561  0.0866
  949PEP     CB34279  -1.420  10.107  11.140  0.1214 -0.2624  0.0853
  949PEP     CB34280  -1.293   9.982  10.678  0.0010  0.2828 -0.1592
  950PEP     CB34281  15.039   4.184   1.362  0.0424  0.2564 -0.3260
  950PEP     CB34282  14.755   4.339   1.602  0.0565  0.4509 -0.1153
  950PEP     CB34283  14.545   4.409   1.935 -0.1365 -0.2314 -0.0312
  950PEP     CB34284  14.466   4.881   2.156 -0.0519 -0.2079 -0.1125
  950PEP     CB34285  14.475   5.320   1.989  0.1336  0.0409  0.2460
  950PEP     CB34286  14.348   5.648   1.787  0.0954  0.0945 -0.2074
  950PEP     CB34287  13.990   5.818   1.549 -0.0195  0.1360  0.2177
  950PEP     CB34288  13.693   6.146   1.596 -0.2240  0.2347 -0.0535
  950PEP     CB34289  13.758   6.600   1.614 -0.0996  0.0917  0.2535
  950PEP     CB34290  14.021   6.764   1.949 -0.3281  0.0034  0.4150
  950PEP     CB34291  14.038   6.464   2.258 -0.0007 -0.2993  0.0455
  950PEP     CB34292  13.774   6.110   2.349  0.1423 -0.3787 -0.3887
  950PEP     CB34293  13.630   5.654   2.223 -0.2642  0.0696 -0.4615
  950PEP     CB34294  13.796   5.380   1.851 -0.5736  0.1560  0.2311
  950PEP     CB34295  13.759   5.441   1.383 -0.0517 -0.1661  0.6361
  950PEP     CB34296  13.680   5.368   1.044 -0.2780 -0.1006 -0.1102
  950PEP     CB34297  13.400   5.287   0.668 -0.0557 -0.0333  0.2987
  950PEP     CB34298  12.927   5.217   0.762 -0.0189  0.1612  0.0383
  950PEP     CB34299  12.750   5.249   1.246  0.4665  0.1543  0.0955
  950PEP     CB34300  12.718   5.023   1.627  0.3278 -0.4204 -0.0110
  950PEP     CB34301  12.669   4.508   1.732 -0.0597  0.0650 -0.2161
  950PEP     CB34302  12.706   4.029   1.821  0.0787  0.0370 -0.1452
  950PEP     CB34303  12.904   3.645   1.791 -0.0214 -0.2989 -0.2047
  950PEP     CB34304  13.236   3.352   1.750  0.3378  0.1819 -0.0901
  950PEP     CB34305  13.479   3.313   1.465 -0.1696  0.0067 -0.1508
  950PEP     CB34306  13.291   3.388   1.087  0.2610 -0.0098 -0.3425
  950PEP     CB34307  13.015   3.718   0.845 -0.3233  0.0997  0.2565
  950PEP     CB34308  13.106   4.182   0.655  0.0987 -0.0066 -0.1998
  950PEP     CB34309  13.337   4.505   0.972  0.4881 -0.0120  0.0622
  950PEP     CB34310  13.185   4.370   1.331  0.1541 -0.0499  0.0001
  950PEP     CB34311  12.819   4.083   1.346  0.3479  0.0612  0.1023
  950PEP     CB34312  12.502   3.755   1.367  0.1611 -0.0268 -0.0306
  950PEP     CB34313  12.310   3.608   1.728 -0.0214 -0.0765  0.0957
  950PEP     CB34314  12.498   3.631   2.101 -0.1578  0.3125 -0.0160
  950PEP     CB34315  12.767   3.883   2.411 -0.1184 -0.3589  0.0536
  950PEP     CB34316  13.096   4.089   2.342  0.3234 -0.1902 -0.4157
  950PEP     CB34317  13.136   4.291   1.906 -0.1263 -0.2386  0.0736
  950PEP     CB34318  13.112   4.693   1.661 -0.0481  0.0874  0.0439
  950PEP     CB34319  12.901   4.718   1.226  0.0183 -0.1142 -0.2331
  950PEP     CB34320  12.785   4.410   0.920  0.1496 -0.0375  0.2739
  951PEP     CB34321   7.856  17.402  17.591  0.0418 -0.0869 -0.0818
  951PEP     CB34322   7.718  16.989  17.724 -0.5682 -0.0743 -0.0914
  951PEP     CB34323   7.663  16.801  18.143  0.1825 -0.1841  0.0948
  951PEP     CB34324   7.533  16.971  18.405 -0.3528  0.2852 -0.0397
  951PEP     CB34325   7.220  17.284  18.454 -0.1709  0.4059 -0.0024
  951PEP     CB34326   6.875  17.301  18.214 -0.4004  0.1606  0.2667
  951PEP     CB34327   6.526  17.191  17.879  0.0660 -0.0260  0.5438
  951PEP     CB34328   6.139  17.257  17.585 -0.2772 -0.1056 -0.0884
  951PEP     CB34329   5.895  17.639  17.513 -0.0068 -0.2224 -0.1719
  951PEP     CB34330   6.067  17.973  17.633  0.4027  0.3693 -0.2935
  951PEP     CB34331   6.382  18.124  17.450 -0.3660  0.0386  0.0811
  951PEP     CB34332   6.625  18.130  17.007 -0.0404 -0.0952  0.0478
  951PEP     CB34333   6.707  18.208  16.571  0.3275 -0.0686  0.0130
  951PEP     CB34334   7.134  18.323  16.332  0.1906  0.4806  0.1034
  951PEP     CB34335   7.412  18.525  16.607  0.0189 -0.0055 -0.0934
  951PEP     CB34336   7.330  18.871  16.877  0.6084 -0.3416  0.1729
  951PEP     CB34337   7.072  19.144  16.997 -0.1150  0.2134  0.0490
  951PEP     CB34338   6.862  19.443  16.828  0.2505  0.1859  0.0972
  951PEP     CB34339   6.789  19.905  16.808  0.2371 -0.1103  0.0439
  951PEP     CB34340   6.973  20.245  16.799 -0.1684 -0.0451 -0.0974
  951PEP     CB34341   6.743  20.701  16.750 -0.3818  0.0096 -0.1571
  951PEP     CB34342   6.314  20.725  16.809  0.3066  0.0597  0.2275
  951PEP     CB34343   6.197  20.683  17.223 -0.0759  0.3716 -0.4226
  951PEP     CB34344   6.537  20.732  17.588 -0.1257  0.1952 -0.0922
  951PEP     CB34345   6.816  20.917  17.861  0.6726 -0.3243  0.3495
  951PEP     CB34346   6.827  21.145  18.216  0.0502  0.0534  0.5765
  951PEP     CB34347   6.620  21.488  18.427  0.0758  0.0418 -0.2806
  951PEP     CB34348   6.181  21.537  18.574  0.0250 -0.0942 -0.5564
  951PEP     CB34349   5.824  21.499  18.900  0.3705 -0.0290  0.0722
  951PEP     CB34350   5.425  21.359  19.099  0.0288 -0.1481  0.3339
  951PEP     CB34351   4.987  21.406  19.120 -0.3196 -0.2153  0.0443
  951PEP     CB34352   4.752  21.699  19.330  0.2361  0.0529  0.1058
  951PEP     CB34353   4.679  21.987  19.530 -0.4280  0.2858  0.0254
  951PEP     CB34354   4.875  22.395  19.411 -0.3612 -0.3126 -0.0037
  951PEP     CB34355   4.789  22.838  19.188 -0.0030 -0.1141  0.5693
  951PEP     CB34356   4.770  23.082  18.889 -0.0254 -0.2318  0.1342
  951PEP     CB34357   5.150  23.162  18.681  0.1830  0.0661  0.0544
  951PEP     CB34358   5.585  23.165  18.895 -0.0373  0.0017  0.1066
  951PEP     CB34359   5.925  22.968  19.109 -0.2916 -0.1085  0.0791
  951PEP     CB34360   6.116  23.089  19.479 -0.1381 -0.2243 -0.2213
  952PEP     CB34361   3.436  12.132  16.882 -0.2769 -0.1658 -0.1700
  952PEP     CB34362   2.967  12.006  16.634  0.0521 -0.0306 -0.1270
  952PEP     CB34363   2.572  12.018  16.477  0.3493  0.0241  0.2415
  952PEP     CB34364   2.190  11.971  16.416  0.3411  0.0401  0.0782
  952PEP     CB34365   2.070  11.606  16.216  0.1863  0.0180  0.1727
  952PEP     CB34366   2.099  11.255  16.351 -0.3918 -0.2042  0.4367
  952PEP     CB34367   2.047  10.924  16.599  0.3662  0.1790  0.4347
  952PEP     CB34368   1.968  10.480  16.857  0.2955  0.4457 -0.0133
  952PEP     CB34369   1.955  10.032  16.964 -0.1246 -0.1703 -0.1614
  952PEP     CB34370   1.917   9.637  17.080  0.1792  0.1625  0.3818
  952PEP     CB34371   1.982   9.303  16.805  0.0004  0.1638  0.1655
  952PEP     CB34372   2.000   8.944  16.485  0.3185  0.0858  0.1190
  952PEP     CB34373   1.759   8.601  16.551 -0.0121  0.0547 -0.0603
  952PEP     CB34374   1.345   8.393  16.755  0.1859  0.0751 -0.4627
  952PEP     CB34375   1.158   8.158  16.448 -0.1919  0.0223  0.2219
  952PEP     CB34376   1.465   8.123  16.082  0.0480 -0.1055 -0.2925
  952PEP     CB34377   1.998   8.283  16.207  0.1771  0.1514  0.1505
  952PEP     CB34378   2.194   8.399  16.546 -0.1812 -0.0408 -0.0088
  952PEP     CB34379   2.352   8.169  16.919  0.2645  0.0783  0.1554
  952PEP     CB34380   2.231   7.863  17.148  0.2679  0.0318 -0.1302
  952PEP     CB34381   1.780   7.673  17.165 -0.2446  0.3291  0.1720
  952PEP     CB34382   1.467   7.733  16.760  0.4422  0.1155 -0.1032
  952PEP     CB34383   1.302   7.420  16.546  0.0757  0.0107 -0.4734
  952PEP     CB34384   1.549   7.018  16.502  0.3053  0.0331  0.0793
  952PEP     CB34385   1.949   6.849  16.430  0.2313  0.1575  0.1503
  952PEP     CB34386   2.293   6.977  16.242 -0.2461  0.2024 -0.1697
  952PEP     CB34387   2.674   7.218  16.128  0.1674  0.0502  0.2115
  952PEP     CB34388   3.042   7.194  16.359 -0.4651 -0.0076  0.1368
  952PEP     CB34389   3.139   6.872  16.623  0.2231  0.0001  0.2580
  952PEP     CB34390   2.917   6.775  17.048  0.0840  0.2571  0.1163
  952PEP     CB34391   2.945   7.008  17.453  0.1309  0.0063 -0.1039
  952PEP     CB34392   3.203   7.095  17.846  0.1045  0.1385  0.0562
  952PEP     CB34393   3.712   7.173  17.975  0.0207  0.0919 -0.2548
  952PEP     CB34394   4.203   7.105  17.934 -0.3080  0.0591  0.1379
  952PEP     CB34395   4.663   7.246  17.930 -0.5113  0.1738 -0.2233
  952PEP     CB34396   5.005   7.420  18.192  0.1228  0.2052  0.0177
  952PEP     CB34397   5.124   7.438  18.617 -0.0107 -0.0457 -0.0219
  952PEP     CB34398   4.919   7.227  18.983  0.2158 -0.2042  0.0697
  952PEP     CB34399   4.458   7.072  18.934 -0.3696 -0.2904 -0.1952
  952PEP     CB34400   4.094   7.055  18.515 -0.1955  0.1392 -0.2299
  953PEP     CB34401  14.573   9.058  20.115  0.1390 -0.1302  0.1112
  953PEP     CB34402  14.194   9.337  20.033  0.2089  0.0179 -0.4112
  953PEP     CB34403  14.005   9.407  19.648 -0.0681 -0.0825 -0.0239
  953PEP     CB34404  13.941   9.221  19.186  0.1007  0.0572  0.1428
  953PEP     CB34405  14.172   8.894  19.021  0.2179 -0.1338  0.0371
  953PEP     CB34406  14.470   8.548  18.967 -0.0777  0.2088 -0.1308
  953PEP     CB34407  14.700   8.175  18.903 -0.0493 -0.2805 -0.2006
  953PEP     CB34408  14.721   7.839  18.709 -0.2832 -0.0146 -0.0973
  953PEP     CB34409  14.399   7.607  18.537 -0.1188 -0.0315  0.0382
  953PEP     CB34410  14.223   7.295  18.321 -0.0413 -0.3033  0.0660
  953PEP     CB34411  14.206   6.963  18.043  0.0823  0.3844 -0.3336
  953PEP     CB34412  14.219   6.532  17.821  0.0162  0.0682 -0.6641
  953PEP     CB34413  14.198   6.082  17.535  0.0799 -0.0138 -0.3049
  953PEP     CB34414  14.040   5.868  17.125  0.3281  0.0502  0.0006
  953PEP     CB34415  13.986   5.656  16.703  0.1506  0.2442  0.2091
  953PEP     CB34416  13.591   5.350  16.606  0.1735  0.2736  0.3095
  953PEP     CB34417  13.283   5.380  16.848 -0.1268 -0.0111  0.1343
  953PEP     CB34418  13.180   5.794  16.910  0.1092 -0.3384 -0.3509
  953PEP     CB34419  13.421   6.124  16.702  0.2713 -0.0005  0.2042
  953PEP     CB34420  13.865   6.169  16.727  0.2538  0.2144 -0.1458
  953PEP     CB34421  14.209   6.527  16.677  0.3873 -0.5963 -0.0557
  953PEP     CB34422  14.282   6.898  16.955 -0.0014 -0.0654 -0.1057
  953PEP     CB34423  14.411   7.206  17.279 -0.2409  0.1586 -0.1970
  953PEP     CB34424  14.530   7.094  17.690 -0.0944 -0.3623 -0.2451
  953PEP     CB34425  14.677   6.828  18.024  0.0508 -0.2953  0.2690
  953PEP     CB34426  14.939   6.424  18.211 -0.0413  0.4521  0.0186
  953PEP     CB34427  15.203   6.212  18.350 -0.0932 -0.1229 -0.1608
  953PEP     CB34428  15.453   6.014  18.682  0.0072 -0.0158  0.4239
  953PEP     CB34429  15.561   6.086  19.066  0.0119  0.0469 -0.1201
  953PEP     CB34430  15.483   6.205  19.452  0.3764  0.2186 -0.0365
  953PEP     CB34431  15.664   6.603  19.807 -0.0635 -0.1075  0.2324
  953PEP     CB34432  15.620   7.094  19.801  0.2907  0.0674  0.1288
  953PEP     CB34433  15.723   7.346  19.488 -0.1743  0.1426  0.1451
  953PEP     CB34434  15.683   7.533  19.182 -0.3054  0.2526 -0.0041
  953PEP     CB34435  15.286   7.650  19.033  0.0882 -0.1454  0.4400
  953PEP     CB34436  14.828   7.500  19.141 -0.3567 -0.2714  0.0767
  953PEP     CB34437  14.782   7.060  19.137  0.0259  0.0355 -0.1095
  953PEP     CB34438  15.016   6.798  18.788 -0.1395  0.1138 -0.0576
  953PEP     CB34439  15.426   6.691  18.613  0.3609  0.3328  0.1760
  953PEP     CB34440  15.694   6.492  18.252 -0.0332  0.2713 -0.0232
  954PEP     CB34441   5.228  14.120   8.080  0.0397 -0.1066  0.0650
  954PEP     CB34442   5.672  13.965   8.033 -0.4381 -0.0784 -0.2656
  954PEP     CB34443   5.986  13.714   7.811  0.1410  0.1700 -0.4458
  954PEP     CB34444   6.206  13.581   7.412  0.0435  0.1891 -0.0535
  954PEP     CB34445   6.512  13.349   7.047 -0.2440 -0.2444 -0.3271
  954PEP     CB34446   6.448  12.998   6.682  0.0312 -0.1652  0.0190
  954PEP     CB34447   6.322  12.815   6.353 -0.1861 -0.1560  0.2498
  954PEP     CB34448   6.002  12.818   6.072 -0.1883 -0.3111 -0.1028
  954PEP     CB34449   5.883  13.010   5.708  0.1737 -0.0924 -0.1112
  954PEP     CB34450   5.582  13.133   5.453  0.1453 -0.0720  0.0204
  954PEP     CB34451   5.175  13.150   5.322 -0.3868  0.0032 -0.2573
  954PEP     CB34452   4.901  13.396   5.096  0.4567 -0.0344  0.0044
  954PEP     CB34453   4.563  13.197   4.807 -0.0824 -0.6337 -0.0224
  954PEP     CB34454   4.279  12.906   4.789 -0.2874 -0.3464 -0.3989
  954PEP     CB34455   4.054  12.497   4.894 -0.0179 -0.1336  0.1015
  954PEP     CB34456   3.734  12.262   4.760  0.1474  0.0583  0.2638
  954PEP     CB34457   3.401  12.098   4.423  0.0191 -0.0517 -0.1116
  954PEP     CB34458   3.565  12.157   3.973 -0.5208  0.1629 -0.2597
  954PEP     CB34459   3.858  12.198   3.729 -0.1949 -0.1742  0.3873
  954PEP     CB34460   4.033  12.130   3.383 -0.0268  0.3293  0.0491
  954PEP     CB34461   4.284  12.055   2.968 -0.0386 -0.0990 -0.5312
  954PEP     CB34462   4.238  11.872   2.490  0.0402 -0.1131  0.0361
  954PEP     CB34463   4.236  11.458   2.409 -0.1679  0.1141 -0.0626
  954PEP     CB34464   4.373  11.013   2.275  0.2460 -0.2924 -0.4059
  954PEP     CB34465   4.555  10.878   1.883  0.0178  0.0514 -0.1035
  954PEP     CB34466   4.568  10.924   1.466 -0.1633 -0.1137  0.0165
  954PEP     CB34467   4.593  10.864   0.967  0.1747  0.0754  0.0532
  954PEP     CB34468   4.800  10.791   0.672  0.5092 -0.0891 -0.3659
  954PEP     CB34469   5.036  10.518   0.517 -0.1761  0.5115 -0.4939
  954PEP     CB34470   5.419  10.268   0.603  0.0840  0.3560  0.3797
  954PEP     CB34471   5.687   9.995   0.382  0.0896  0.5945  0.2943
  954PEP     CB34472   6.044   9.905   0.111  0.2635 -0.1831  0.4255
  954PEP     CB34473   6.422  10.002  -0.174  0.4478  0.3704 -0.4456
  954PEP     CB34474   6.671  10.241  -0.352 -0.1807 -0.2569 -0.0144
  954PEP     CB34475   6.839  10.606  -0.431  0.3556 -0.1834 -0.2286
  954PEP     CB34476   6.924  11.015  -0.369 -0.2110 -0.1494 -0.3416
  954PEP     CB34477   7.087  11.462  -0.212  0.0877 -0.1888 -0.0775
  954PEP     CB34478   7.437  11.754  -0.281  0.1577 -0.6966  0.0656
  954PEP     CB34479   7.658  11.980  -0.497 -0.2182  0.1054 -0.0043
  954PEP     CB34480   7.504  12.124  -0.922 -0.0840  0.1887 -0.3371
  955PEP     CB34481   4.482   2.032  12.078  0.1434 -0.3930  0.1909
  955PEP     CB34482   4.018   2.104  11.977  0.1082 -0.3390  0.0928
  955PEP     CB34483   3.577   2.060  11.776 -0.1682  0.0958 -0.1967
  955PEP     CB34484   3.213   2.054  11.883  0.2221  0.1108 -0.0693
  955PEP     CB34485   2.828   2.190  12.022  0.1511 -0.2321 -0.0879
  955PEP     CB34486   2.902   2.548  12.295 -0.1011  0.3760 -0.3825
  955PEP     CB34487   3.161   2.863  12.158  0.2205  0.4319 -0.0164
  955PEP     CB34488   3.314   3.168  12.457  0.1439  0.0182  0.0283
  955PEP     CB34489   3.311   3.112  12.904 -0.0154  0.3197  0.2613
  955PEP     CB34490   3.065   2.967  13.307 -0.3207 -0.0465  0.1261
  955PEP     CB34491   2.972   2.523  13.383 -0.0989  0.1372  0.5642
  955PEP     CB34492   3.140   2.201  13.326  0.1569 -0.5591 -0.0678
  955PEP     CB34493   3.474   1.857  13.321 -0.3408 -0.2039  0.1654
  955PEP     CB34494   3.709   1.499  13.283  0.0041  0.1202  0.0872
  955PEP     CB34495   3.847   1.048  13.512 -0.2251  0.2061  0.2002
  955PEP     CB34496   4.181   0.824  13.659 -0.3035  0.4567 -0.0056
  955PEP     CB34497   4.593   0.720  13.735  0.0194  0.4399 -0.2489
  955PEP     CB34498   4.999   0.639  13.600 -0.0866 -0.2869 -0.0387
  955PEP     CB34499   5.333   0.372  13.634 -0.2220 -0.2013 -0.0579
  955PEP     CB34500   5.664   0.038  13.636  0.1392  0.2971  0.4242
  955PEP     CB34501   5.679  -0.398  13.493  0.2403  0.1078 -0.3866
  955PEP     CB34502   5.662  -0.759  13.797  0.3057  0.1189  0.1782
  955PEP     CB34503   5.450  -0.801  14.194 -0.3072 -0.0947 -0.0348
  955PEP     CB34504   5.385  -0.413  14.402  0.1443 -0.3588  0.1811
  955PEP     CB34505   5.037  -0.260  14.530 -0.1238  0.3615  0.0187
  955PEP     CB34506   4.801  -0.063  14.894 -0.0305 -0.0606  0.2578
  955PEP     CB34507   4.784  -0.184  15.306 -0.0782 -0.2144 -0.3237
  955PEP     CB34508   4.884  -0.010  15.715  0.1912 -0.0598  0.1413
  955PEP     CB34509   5.140   0.024  16.074  0.0459  0.0697 -0.1335
  955PEP     CB34510   5.469   0.396  16.083 -0.4861 -0.0494  0.0488
  955PEP     CB34511   5.724   0.478  15.750  0.0243  0.2670  0.1775
  955PEP     CB34512   6.066   0.145  15.609  0.1849 -0.4332  0.0892
  955PEP     CB34513   6.094  -0.111  15.818 -0.1547  0.1846 -0.4041
  955PEP     CB34514   6.336  -0.214  16.162 -0.0411 -0.2759 -0.1998
  955PEP     CB34515   6.310  -0.236  16.543  0.1035 -0.0959  0.1630
  955PEP     CB34516   6.170  -0.316  16.966 -0.0499 -0.2914 -0.3627
  955PEP     CB34517   6.125  -0.371  17.357  0.0590  0.0111  0.3105
  955PEP     CB34518   5.888  -0.596  17.685 -0.0672  0.5899  0.1697
  955PEP     CB34519   5.589  -0.579  17.979  0.0151 -0.0393  0.0360
  955PEP     CB34520   5.191  -0.496  18.258  0.4077 -0.1345 -0.1773
  956PEP     CB34521  15.797   2.375   3.523 -0.0287 -0.5238 -0.0005
  956PEP     CB34522  16.078   2.011   3.592  0.1248 -0.5266 -0.1581
  956PEP     CB34523  16.399   1.833   3.872  0.4369 -0.0374  0.0576
  956PEP     CB34524  16.506   1.531   4.158  0.3143 -0.3555 -0.4105
  956PEP     CB34525  16.983   1.206   4.198  0.2118 -0.2387  0.1877
  956PEP     CB34526  17.266   1.065   3.961 -0.2880  0.2170  0.0678
  956PEP     CB34527  17.185   0.846   3.516 -0.3876  0.2391 -0.1879
  956PEP     CB34528  16.923   0.793   3.172 -0.0422 -0.3016 -0.3816
  956PEP     CB34529  16.691   0.590   2.849  0.2041  0.0737 -0.0048
  956PEP     CB34530  16.468   0.583   2.446  0.1400 -0.2328 -0.2430
  956PEP     CB34531  16.155   0.712   2.158  0.1626  0.4735  0.0768
  956PEP     CB34532  15.888   0.584   1.848 -0.1562  0.2523 -0.2485
  956PEP     CB34533  15.539   0.361   1.744  0.4352 -0.3026 -0.2916
  956PEP     CB34534  15.193   0.305   1.962 -0.1479 -0.0018  0.2241
  956PEP     CB34535  15.153   0.632   2.277 -0.0576 -0.0460  0.3360
  956PEP     CB34536  15.249   0.944   2.567 -0.0506  0.0381 -0.6559
  956PEP     CB34537  15.295   1.227   2.974  0.2097  0.0848 -0.0212
  956PEP     CB34538  15.396   1.375   3.388 -0.2374 -0.0551  0.1409
  956PEP     CB34539  15.487   1.175   3.775  0.1445 -0.5404 -0.0335
  956PEP     CB34540  15.496   1.157   4.230 -0.0858 -0.0057  0.3205
  956PEP     CB34541  15.521   1.100   4.650 -0.1090  0.2000 -0.2957
  956PEP     CB34542  15.435   1.156   5.118 -0.1455 -0.1835  0.0738
  956PEP     CB34543  15.525   1.420   5.517  0.0708 -0.0522 -0.1143
  956PEP     CB34544  15.685   1.772   5.701 -0.1744  0.2888  0.2816
  956PEP     CB34545  15.719   2.156   5.844  0.5910  0.1164  0.0822
  956PEP     CB34546  15.932   2.555   5.816  0.0520  0.4372 -0.0591
  956PEP     CB34547  15.874   2.921   6.008  0.5938 -0.4091 -0.1504
  956PEP     CB34548  15.505   3.187   6.041 -0.0973 -0.1825 -0.1214
  956PEP     CB34549  15.135   3.249   5.790  0.1042  0.2819  0.3323
  956PEP     CB34550  14.686   3.337   5.577 -0.2334  0.0615  0.2096
  956PEP     CB34551  14.335   3.170   5.462 -0.3014 -0.0120  0.1133
  956PEP     CB34552  14.105   2.924   5.650 -0.3534 -0.2168 -0.1199
  956PEP     CB34553  14.063   2.569   5.930  0.2344 -0.3979 -0.2503
  956PEP     CB34554  14.055   2.381   6.244 -0.2479  0.1311 -0.3311
  956PEP     CB34555  13.875   2.365   6.697 -0.3042 -0.1038 -0.0865
  956PEP     CB34556  13.849   2.488   7.081 -0.3256  0.1203 -0.0980
  956PEP     CB34557  13.604   2.698   7.449 -0.0260 -0.3348 -0.5277
  956PEP     CB34558  13.561   2.843   7.877 -0.6054  0.0983 -0.9512
  956PEP     CB34559  13.443   3.067   8.237 -0.0524  0.2759 -0.1418
  956PEP     CB34560  13.310   3.387   8.619  0.2646  0.1710 -0.3934
  957PEP     CB34561   2.808   4.159  17.186 -0.3786 -0.1816  0.1379
  957PEP     CB34562   2.873   4.437  16.837 -0.0220  0.3870  0.0472
  957PEP     CB34563   2.598   4.718  16.617 -0.2368  0.1778 -0.1060
  957PEP     CB34564   2.288   5.050  16.464 -0.1322 -0.1618  0.2231
  957PEP     CB34565   1.954   5.406  16.645  0.1047  0.1579 -0.3274
  957PEP     CB34566   1.644   5.737  16.575  0.1605 -0.0682  0.2387
  957PEP     CB34567   1.647   6.125  16.582 -0.1600  0.5830 -0.4082
  957PEP     CB34568   1.630   6.537  16.734  0.2064 -0.0023  0.3268
  957PEP     CB34569   1.614   6.967  17.006  0.1627 -0.1457  0.0734
  957PEP     CB34570   1.306   7.368  17.058 -0.0557  0.0393 -0.3039
  957PEP     CB34571   0.893   7.567  16.875  0.0429  0.0115  0.1250
  957PEP     CB34572   0.747   7.878  16.817  0.1370  0.1339 -0.1517
  957PEP     CB34573   0.785   8.282  17.010 -0.3491 -0.2388  0.0573
  957PEP     CB34574   1.126   8.485  17.181  0.1591 -0.0293  0.3168
  957PEP     CB34575   1.499   8.228  17.391 -0.1173  0.0487  0.3671
  957PEP     CB34576   1.961   8.213  17.657  0.3733  0.1869 -0.1622
  957PEP     CB34577   2.217   8.567  17.800 -0.3310 -0.2565 -0.3928
  957PEP     CB34578   2.348   8.998  18.045 -0.2529 -0.1620 -0.1451
  957PEP     CB34579   1.986   9.371  18.085  0.0302 -0.0297 -0.0492
  957PEP     CB34580   1.543   9.571  18.016 -0.3047 -0.1125 -0.0143
  957PEP     CB34581   1.417   9.951  17.888 -0.1777 -0.1438  0.3336
  957PEP     CB34582   1.195  10.257  17.708 -0.0388  0.1496 -0.1501
  957PEP     CB34583   1.241  10.647  17.761  0.0747 -0.2866  0.0902
  957PEP     CB34584   1.625  10.855  17.678 -0.0593 -0.2437 -0.1460
  957PEP     CB34585   1.973  11.167  17.569 -0.2272  0.3914 -0.2448
  957PEP     CB34586   2.325  11.224  17.263 -0.5233 -0.0720 -0.2748
  957PEP     CB34587   2.518  11.605  17.052  0.2688 -0.4061 -0.1502
  957PEP     CB34588   2.409  12.053  17.055 -0.0870  0.1065 -0.1950
  957PEP     CB34589   2.293  12.391  17.008  0.1187 -0.3138 -0.0384
  957PEP     CB34590   2.371  12.811  16.763  0.0553  0.1111 -0.1515
  957PEP     CB34591   2.638  12.961  16.322 -0.2336  0.2835  0.0938
  957PEP     CB34592   3.111  12.909  16.050  0.5021  0.2289  0.1275
  957PEP     CB34593   3.299  13.090  15.723  0.0174  0.0275  0.1052
  957PEP     CB34594   3.555  13.107  15.440 -0.0990  0.4208  0.2407
  957PEP     CB34595   3.729  13.491  15.115  0.1174 -0.1278  0.2061
  957PEP     CB34596   3.571  13.937  14.981 -0.5037 -0.0578 -0.1517
  957PEP     CB34597   3.252  14.194  15.233 -0.0932  0.2316  0.6917
  957PEP     CB34598   3.366  14.262  15.564 -0.3206  0.0330 -0.0362
  957PEP     CB34599   3.728  14.071  15.698  0.0420  0.1830 -0.0409
  957PEP     CB34600   3.940  13.956  15.331  0.0368 -0.1860 -0.2490
  958PEP     CB34601  21.181   4.802  14.276  0.2433 -0.0544 -0.2316
  958PEP     CB34602  20.920   5.200  14.135  0.0333  0.3695  0.3084
  958PEP     CB34603  20.771   5.664  14.005 -0.0669  0.2904  0.0588
  958PEP     CB34604  20.655   6.075  14.023 -0.0253  0.1401  0.2324
  958PEP     CB34605  20.748   6.479  13.912 -0.0793 -0.3161  0.1639
  958PEP     CB34606  20.877   6.860  14.037 -0.2479  0.1097 -0.0837
  958PEP     CB34607  21.043   7.240  14.258 -0.2217  0.2556 -0.0046
  958PEP     CB34608  21.206   7.573  14.446 -0.1452 -0.2483 -0.6073
  958PEP     CB34609  21.532   7.644  14.590 -0.0488 -0.0604 -0.2805
  958PEP     CB34610  22.050   7.512  14.531 -0.0186  0.7653 -0.6038
  958PEP     CB34611  22.280   7.345  14.198  0.0444  0.0993  0.1134
  958PEP     CB34612  22.232   7.337  13.797  0.0370 -0.1134  0.1264
  958PEP     CB34613  21.988   7.236  13.366  0.2104 -0.2431 -0.1664
  958PEP     CB34614  21.698   6.915  13.275  0.2836 -0.2591  0.3626
  958PEP     CB34615  21.666   6.444  13.191  0.1503  0.1956 -0.3544
  958PEP     CB34616  21.846   6.046  13.285 -0.3972 -0.0424  0.0619
  958PEP     CB34617  21.987   5.927  13.623 -0.4854  0.0074  0.1028
  958PEP     CB34618  21.901   6.106  13.912 -0.0970  0.1528 -0.1384
  958PEP     CB34619  21.608   6.319  13.786  0.0004 -0.3287  0.2988
  958PEP     CB34620  21.442   6.699  13.642 -0.4318 -0.3577 -0.2640
  958PEP     CB34621  21.280   7.129  13.402 -0.1509 -0.2795  0.0585
  958PEP     CB34622  21.350   7.574  13.378  0.3558 -0.0728 -0.0130
  958PEP     CB34623  21.642   7.835  13.524 -0.1154 -0.2560  0.1966
  958PEP     CB34624  21.823   8.267  13.679  0.1164 -0.0000  0.1330
  958PEP     CB34625  22.057   8.393  14.005  0.1148  0.1644  0.5317
  958PEP     CB34626  22.343   8.813  14.141 -0.0794 -0.3243 -0.3590
  958PEP     CB34627  22.471   9.145  13.864  0.0459 -0.0216 -0.0777
  958PEP     CB34628  22.229   9.210  13.465 -0.1926 -0.3803 -0.1315
  958PEP     CB34629  22.210   8.948  13.076  0.5171  0.1290 -0.1353
  958PEP     CB34630  22.584   8.729  12.908  0.2566 -0.3285  0.1885
  958PEP     CB34631  22.940   8.761  12.659  0.2275 -0.2708  0.2071
  958PEP     CB34632  23.242   9.095  12.744 -0.3094 -0.0766  0.1002
  958PEP     CB34633  23.651   9.165  12.956  0.1626  0.3806  0.0689
  958PEP     CB34634  23.933   8.967  13.166 -0.4097  0.0024  0.1573
  958PEP     CB34635  24.346   8.865  13.250 -0.0463  0.0963  0.0158
  958PEP     CB34636  24.706   9.124  13.392  0.0029 -0.0776 -0.3349
  958PEP     CB34637  25.034   9.314  13.287 -0.0745  0.5830 -0.2363
  958PEP     CB34638  25.345   9.595  13.174 -0.0797 -0.5088  0.7656
  958PEP     CB34639  25.659   9.869  13.252  0.2953 -0.1350  0.1439
  958PEP     CB34640  26.072   9.870  13.423 -0.0251 -0.0153  0.0781
  959PEP     CB34641  20.209   8.387   8.861  0.1179  0.1543  0.1817
  959PEP     CB34642  20.352   8.591   9.203 -0.2967 -0.0976  0.0699
  959PEP     CB34643  20.514   9.012   9.184  0.1501 -0.0581 -0.2269
  959PEP     CB34644  20.594   9.452   9.129  0.0606  0.1237 -0.1059
  959PEP     CB34645  20.847   9.628   8.929  0.0146 -0.3718 -0.0895
  959PEP     CB34646  21.131   9.598   8.569  0.0390 -0.0691 -0.1892
  959PEP     CB34647  21.401   9.644   8.187  0.0872  0.0347  0.0829
  959PEP     CB34648  21.609   9.415   7.822  0.1943  0.0819 -0.0379
  959PEP     CB34649  21.822   9.021   7.768 -0.0744  0.3676  0.4770
  959PEP     CB34650  21.474   8.711   7.878 -0.3755  0.2239  0.3809
  959PEP     CB34651  21.050   8.840   8.038 -0.6215  0.1945 -0.1907
  959PEP     CB34652  20.643   8.921   8.004 -0.1107  0.0525  0.3518
  959PEP     CB34653  20.319   8.766   7.810 -0.1414  0.0657 -0.2720
  959PEP     CB34654  20.162   8.462   7.536 -0.4155 -0.1086  0.3482
  959PEP     CB34655  20.068   8.069   7.462 -0.1835 -0.0679  0.0732
  959PEP     CB34656  19.762   7.794   7.368  0.1519  0.2870 -0.0815
  959PEP     CB34657  19.362   7.827   7.314 -0.0769 -0.1548  0.0363
  959PEP     CB34658  18.927   7.777   7.323  0.0422  0.3683 -0.0122
  959PEP     CB34659  18.555   7.482   7.267 -0.2167  0.1890 -0.4011
  959PEP     CB34660  18.195   7.456   7.255  0.2450 -0.0634  0.3300
  959PEP     CB34661  17.876   7.457   7.143  0.1414 -0.0166 -0.0579
  959PEP     CB34662  17.425   7.489   7.240  0.0035 -0.1761  0.2204
  959PEP     CB34663  17.100   7.616   7.566  0.3828 -0.0538 -0.1123
  959PEP     CB34664  16.755   7.831   7.755 -0.0498  0.2768 -0.1392
  959PEP     CB34665  16.608   8.191   8.047 -0.2328 -0.2301 -0.3621
  959PEP     CB34666  16.364   8.415   8.348  0.1274 -0.0500  0.5145
  959PEP     CB34667  16.270   8.666   8.645  0.2509 -0.1469 -0.6924
  959PEP     CB34668  16.261   8.682   9.176  0.0605 -0.0135 -0.0040
  959PEP     CB34669  16.410   8.388   9.458  0.1386 -0.1334 -0.1406
  959PEP     CB34670  16.808   8.207   9.429  0.0527  0.0161  0.2557
  959PEP     CB34671  17.091   7.737   9.473  0.1038  0.1608 -0.1920
  959PEP     CB34672  16.937   7.296   9.445 -0.1812  0.2259  0.2291
  959PEP     CB34673  16.884   6.891   9.364  0.0250 -0.2508 -0.0052
  959PEP     CB34674  16.763   6.750   9.025 -0.1209  0.1009  0.2325
  959PEP     CB34675  16.419   6.869   8.769 -0.1055  0.2075 -0.0045
  959PEP     CB34676  16.146   6.901   8.416 -0.0020 -0.2018 -0.4391
  959PEP     CB34677  16.134   6.768   8.021  0.3140  0.2808 -0.0253
  959PEP     CB34678  16.126   6.363   7.809 -0.0226 -0.0309 -0.2120
  959PEP     CB34679  16.253   5.976   7.575  0.0125 -0.0670 -0.0009
  959PEP     CB34680  16.335   5.590   7.478  0.0984  0.1590 -0.0742
  960PEP     CB34681   7.534   8.344   4.341  0.1218  0.3765  0.2296
  960PEP     CB34682   7.538   8.450   3.909 -0.5649 -0.2150 -0.2528
  960PEP     CB34683   7.721   8.332   3.458 -0.1840 -0.3388 -0.2247
  960PEP     CB34684   8.080   8.249   3.378  0.4383  0.5220  0.1487
  960PEP     CB34685   8.350   8.303   3.747 -0.1615 -0.1024 -0.1825
  960PEP     CB34686   8.467   8.609   4.028  0.1019  0.0813  0.3021
  960PEP     CB34687   8.398   9.006   4.233  0.0781 -0.0278 -0.3052
  960PEP     CB34688   8.262   9.406   4.332 -0.1640 -0.2323 -0.3892
  960PEP     CB34689   7.952   9.581   4.513 -0.3539 -0.1449 -0.4260
  960PEP     CB34690   7.584   9.583   4.690  0.0594  0.0779  0.1875
  960PEP     CB34691   7.358   9.738   5.016 -0.0308  0.1209 -0.1543
  960PEP     CB34692   7.017  10.070   5.258  0.1771  0.5636  0.3607
  960PEP     CB34693   6.619   9.982   5.461 -0.3435 -0.0084  0.0668
  960PEP     CB34694   6.500   9.663   5.748 -0.0294 -0.0741 -0.0585
  960PEP     CB34695   6.669   9.410   6.000  0.2286  0.1007 -0.2110
  960PEP     CB34696   6.523   9.245   6.385 -0.0293  0.3645 -0.2682
  960PEP     CB34697   6.200   9.164   6.512 -0.1420 -0.0695  0.2205
  960PEP     CB34698   5.747   9.321   6.338 -0.1345 -0.0259  0.1754
  960PEP     CB34699   5.704   9.695   6.145 -0.0248 -0.3206 -0.1012
  960PEP     CB34700   5.991   9.975   5.979  0.0913  0.4206  0.1078
  960PEP     CB34701   6.425  10.098   5.983  0.4904 -0.2876 -0.0699
  960PEP     CB34702   6.898  10.254   5.822 -0.1196  0.0006  0.2197
  960PEP     CB34703   7.200  10.608   5.868 -0.0087 -0.2400  0.0368
  960PEP     CB34704   7.308  10.907   5.690  0.2108 -0.1611 -0.2330
  960PEP     CB34705   7.543  10.976   5.336  0.0348 -0.1291  0.0938
  960PEP     CB34706   7.818  11.142   4.957 -0.0672 -0.2500  0.2557
  960PEP     CB34707   7.758  11.406   4.542  0.3858 -0.4546  0.2486
  960PEP     CB34708   7.850  11.576   4.147 -0.0191  0.2230  0.1695
  960PEP     CB34709   8.244  11.768   3.926 -0.0044 -0.2172 -0.0822
  960PEP     CB34710   8.541  12.076   3.747 -0.1639  0.0024 -0.2023
  960PEP     CB34711   8.557  12.507   3.784  0.0248 -0.0240  0.0083
  960PEP     CB34712   8.287  12.827   4.009  0.2254 -0.0086 -0.3238
  960PEP     CB34713   8.007  12.953   4.369  0.0842 -0.1964  0.5320
  960PEP     CB34714   7.814  12.963   4.800 -0.1324  0.5034 -0.1456
  960PEP     CB34715   7.755  12.920   5.252  0.0610  0.5230  0.1338
  960PEP     CB34716   8.006  12.762   5.609 -0.0097  0.1632  0.2079
  960PEP     CB34717   8.160  12.371   5.840 -0.0673  0.2148  0.2200
  960PEP     CB34718   8.526  12.186   5.948  0.0891  0.0772  0.0988
  960PEP     CB34719   8.789  11.876   5.798  0.1725 -0.5232  0.7104
  960PEP     CB34720   9.126  11.591   5.997 -0.0503 -0.4131 -0.0387
  961PEP     CB34721  21.228   7.797   5.805  0.1996 -0.2344 -0.0210
  961PEP     CB34722  21.358   8.140   5.991 -0.1994 -0.2725 -0.1101
  961PEP     CB34723  21.518   8.610   6.050  0.5342  0.4533 -0.0881
  961PEP     CB34724  21.591   8.952   5.991 -0.0694  0.5280  0.1070
  961PEP     CB34725  21.962   9.075   5.904  0.4569  0.0290  0.1377
  961PEP     CB34726  22.385   8.873   5.937 -0.3544  0.0468 -0.4396
  961PEP     CB34727  22.399   8.448   6.217  0.0439 -0.1690  0.3790
  961PEP     CB34728  22.233   8.078   6.308  0.1042  0.3050 -0.3986
  961PEP     CB34729  22.258   7.594   6.399 -0.1242  0.2442  0.0438
  961PEP     CB34730  22.298   7.328   6.798 -0.2639  0.0264  0.0628
  961PEP     CB34731  21.956   7.405   7.207  0.2755 -0.2637 -0.0804
  961PEP     CB34732  21.838   7.812   7.359 -0.0140  0.0344 -0.1136
  961PEP     CB34733  22.021   8.233   7.135 -0.2810  0.2917 -0.0037
  961PEP     CB34734  21.949   8.406   6.715 -0.2970 -0.1342  0.3662
  961PEP     CB34735  21.704   8.271   6.450  0.0048  0.0439 -0.1225
  961PEP     CB34736  21.295   8.349   6.467 -0.1381 -0.3289 -0.0169
  961PEP     CB34737  20.974   8.096   6.549 -0.3154 -0.1541  0.1095
  961PEP     CB34738  20.996   7.670   6.799  0.1854  0.2253  0.0028
  961PEP     CB34739  20.827   7.441   7.121 -0.2331  0.0367 -0.2047
  961PEP     CB34740  20.765   7.330   7.506  0.0725  0.0146  0.0510
  961PEP     CB34741  20.890   7.647   7.848  0.4657 -0.0846 -0.0428
  961PEP     CB34742  21.067   8.069   7.746 -0.1066 -0.0030 -0.2903
  961PEP     CB34743  21.482   8.219   7.751  0.0257 -0.0117  0.0962
  961PEP     CB34744  21.833   8.529   7.607  0.2953 -0.1417 -0.3682
  961PEP     CB34745  22.311   8.601   7.512 -0.3325  0.0430 -0.1276
  961PEP     CB34746  22.604   8.416   7.685  0.0640  0.0551  0.1472
  961PEP     CB34747  22.870   8.058   7.521  0.2289 -0.0303 -0.0327
  961PEP     CB34748  23.171   7.928   7.258 -0.0562 -0.0269  0.5061
  961PEP     CB34749  23.546   8.017   7.040  0.1503 -0.0017 -0.2808
  961PEP     CB34750  23.933   8.070   7.012 -0.5199  0.2405  0.0576
  961PEP     CB34751  24.107   8.105   6.648  0.0029  0.3943 -0.0460
  961PEP     CB34752  24.078   7.918   6.265  0.0828  0.0030 -0.1354
  961PEP     CB34753  24.112   7.734   5.873  0.1804  0.1049  0.4303
  961PEP     CB34754  24.134   7.407   5.610  0.2008  0.4349 -0.0058
  961PEP     CB34755  24.552   7.174   5.408  0.2918 -0.2865 -0.3602
  961PEP     CB34756  24.669   6.892   5.169 -0.2542  0.0224  0.2544
  961PEP     CB34757  24.800   6.836   4.752 -0.0531 -0.1806  0.4500
  961PEP     CB34758  24.819   6.733   4.268  0.0234 -0.0276  0.1724
  961PEP     CB34759  24.547   6.457   4.029  0.0290  0.2437 -0.0701
  961PEP     CB34760  24.317   6.268   3.843  0.0823 -0.0667  0.1134
  962PEP     CB34761  17.319  15.617   4.240 -0.0244 -0.0781 -0.0560
  962PEP     CB34762  17.544  15.791   3.923 -0.0870 -0.2623  0.1708
  962PEP     CB34763  17.711  16.058   3.537  0.1477 -0.3488  0.0277
  962PEP     CB34764  17.559  16.350   3.264 -0.1136 -0.1470 -0.1956
  962PEP     CB34765  17.244  16.677   3.198  0.0800 -0.0040  0.1993
  962PEP     CB34766  16.933  16.958   3.160 -0.1190 -0.1208 -0.0714
  962PEP     CB34767  16.778  17.364   3.085  0.1401 -0.2390  0.0404
  962PEP     CB34768  16.540  17.619   2.817  0.2974  0.7794  0.0774
  962PEP     CB34769  16.162  17.647   2.565  0.2811  0.1875  0.1355
  962PEP     CB34770  15.812  17.393   2.423 -0.1529  0.5048 -0.0553
  962PEP     CB34771  15.385  17.418   2.596 -0.0194 -0.3320 -0.0990
  962PEP     CB34772  15.271  17.231   2.950  0.2070 -0.4368  0.2490
  962PEP     CB34773  15.577  16.962   2.970 -0.1033  0.0609 -0.0713
  962PEP     CB34774  15.874  16.897   2.686 -0.0272 -0.1224 -0.2340
  962PEP     CB34775  16.157  17.033   2.409 -0.2788 -0.0202  0.4483
  962PEP     CB34776  16.292  16.938   2.004 -0.1832 -0.0169 -0.0403
  962PEP     CB34777  16.373  16.628   1.645  0.0766  0.3576  0.0609
  962PEP     CB34778  16.386  16.185   1.561 -0.2864 -0.1720 -0.2052
  962PEP     CB34779  16.100  16.099   1.207  0.0971 -0.0810  0.0872
  962PEP     CB34780  15.664  16.289   1.126 -0.0385 -0.0762  0.1826
  962PEP     CB34781  15.408  16.549   1.420  0.1832 -0.1212  0.1702
  962PEP     CB34782  15.504  16.475   1.785 -0.0778 -0.1192 -0.1355
  962PEP     CB34783  15.914  16.516   1.999 -0.0972 -0.1699 -0.1055
  962PEP     CB34784  16.167  16.489   2.459  0.0624 -0.1300 -0.1989
  962PEP     CB34785  16.370  16.515   2.835 -0.0336 -0.0794 -0.4202
  962PEP     CB34786  16.636  16.598   3.172  0.3746  0.0368 -0.2458
  962PEP     CB34787  16.562  16.479   3.553 -0.0019 -0.0445 -0.3276
  962PEP     CB34788  16.135  16.343   3.690  0.1820  0.0639  0.4832
  962PEP     CB34789  15.635  16.375   3.584  0.2474 -0.2029  0.1992
  962PEP     CB34790  15.404  16.505   3.283 -0.5808 -0.0000  0.2091
  962PEP     CB34791  15.131  16.812   3.096  0.1187  0.0263 -0.1026
  962PEP     CB34792  14.799  17.129   3.101  0.0166 -0.1748 -0.3067
  962PEP     CB34793  14.472  17.324   3.226 -0.1821 -0.2147 -0.2518
  962PEP     CB34794  14.082  17.349   3.323 -0.1298 -0.2594  0.1097
  962PEP     CB34795  13.654  17.530   3.312  0.2221  0.0356 -0.2825
  962PEP     CB34796  13.319  17.615   2.975 -0.4086 -0.0760  0.1002
  962PEP     CB34797  12.896  17.499   2.767  0.0151 -0.1597 -0.1973
  962PEP     CB34798  12.489  17.265   2.888 -0.0240 -0.0018  0.0627
  962PEP     CB34799  12.212  17.013   3.209 -0.3175 -0.1237  0.1185
  962PEP     CB34800  12.140  16.557   3.308  0.0484 -0.5549  0.1961
  963PEP     CB34801   6.400  11.762   2.947  0.1542 -0.1526 -0.0460
  963PEP     CB34802   6.823  12.008   2.964  0.2100  0.0564  0.0204
  963PEP     CB34803   7.062  12.379   2.892  0.0271 -0.2367 -0.0723
  963PEP     CB34804   7.049  12.811   2.693  0.1622  0.0181  0.0386
  963PEP     CB34805   6.978  13.288   2.842 -0.1973 -0.1120  0.3838
  963PEP     CB34806   7.165  13.766   2.950  0.3936  0.2311 -0.1291
  963PEP     CB34807   7.234  14.274   2.876  0.1054 -0.0625  0.2360
  963PEP     CB34808   7.189  14.593   3.068 -0.1149 -0.2362 -0.1882
  963PEP     CB34809   7.185  14.809   3.496 -0.4043  0.0250  0.0591
  963PEP     CB34810   7.263  15.196   3.542 -0.0993 -0.0124 -0.1958
  963PEP     CB34811   7.253  15.579   3.335 -0.2112 -0.0089 -0.4878
  963PEP     CB34812   7.166  15.848   3.085 -0.0998  0.1381  0.2097
  963PEP     CB34813   7.448  16.178   2.856  0.0530  0.0863 -0.4259
  963PEP     CB34814   7.794  16.420   3.028 -0.0739 -0.0608  0.1043
  963PEP     CB34815   8.299  16.420   3.125  0.2858 -0.0305  0.3619
  963PEP     CB34816   8.597  16.100   3.363 -0.0373  0.1314 -0.0839
  963PEP     CB34817   8.670  15.870   3.719  0.3159  0.0842 -0.0331
  963PEP     CB34818   8.609  16.045   4.175  0.1148  0.2487  0.1607
  963PEP     CB34819   8.302  16.226   4.338  0.1636 -0.4061  0.0344
  963PEP     CB34820   8.137  16.652   4.171 -0.1149 -0.0845  0.0781
  963PEP     CB34821   8.144  17.044   4.191 -0.2674  0.4862  0.2539
  963PEP     CB34822   7.918  17.422   4.081  0.3927 -0.3961 -0.1043
  963PEP     CB34823   7.388  17.511   4.031  0.5939  0.1826  0.2097
  963PEP     CB34824   7.097  17.233   4.301 -0.1073  0.0945 -0.1110
  963PEP     CB34825   7.157  16.840   4.380  0.3328  0.0877  0.2220
  963PEP     CB34826   7.239  16.447   4.253 -0.0475 -0.3934  0.1534
  963PEP     CB34827   7.347  16.116   3.991  0.3561 -0.1097 -0.4093
  963PEP     CB34828   7.746  16.003   3.843 -0.2402  0.2763  0.3515
  963PEP     CB34829   8.203  16.243   3.831 -0.0646 -0.0914 -0.1231
  963PEP     CB34830   8.460  16.541   3.724  0.0411 -0.2792  0.2520
  963PEP     CB34831   8.583  16.835   3.436 -0.4414  0.0263 -0.6090
  963PEP     CB34832   8.456  17.246   3.339  0.1318  0.0007  0.1449
  963PEP     CB34833   8.175  17.528   3.546 -0.4595  0.2375  0.5343
  963PEP     CB34834   7.868  17.931   3.523 -0.2068 -0.1246 -0.0058
  963PEP     CB34835   7.760  18.277   3.551 -0.1843  0.1443  0.3694
  963PEP     CB34836   7.696  18.558   3.318 -0.2449 -0.2415 -0.1298
  963PEP     CB34837   7.489  18.719   2.959 -0.0194  0.2453  0.0152
  963PEP     CB34838   7.682  18.599   2.574 -0.0016  0.0038 -0.1587
  963PEP     CB34839   7.718  18.453   2.186  0.1801  0.2449  0.6521
  963PEP     CB34840   7.799  18.731   1.746  0.0346  0.2906 -0.0380
  964PEP     CB34841  20.262   3.507  12.222  0.1761 -0.1975  0.1080
  964PEP     CB34842  20.286   3.239  11.853 -0.1355 -0.0642  0.0082
  964PEP     CB34843  20.629   3.260  11.565  0.3012 -0.1374  0.1065
  964PEP     CB34844  20.847   3.376  11.269 -0.2123  0.0022  0.3060
  964PEP     CB34845  20.834   3.547  10.878 -0.1325  0.1835  0.1748
  964PEP     CB34846  20.737   3.719  10.461  0.0291  0.0175 -0.1158
  964PEP     CB34847  20.335   3.651  10.284 -0.2519 -0.0992 -0.2247
  964PEP     CB34848  19.911   3.595  10.341  0.1205 -0.0086  0.0522
  964PEP     CB34849  19.674   3.380  10.554  0.2758 -0.4086 -0.0091
  964PEP     CB34850  19.704   3.326  11.045  0.2763 -0.2171 -0.2238
  964PEP     CB34851  20.124   3.291  11.193 -0.1129  0.1368 -0.0649
  964PEP     CB34852  20.437   3.642  11.288  0.1191 -0.0065 -0.0108
  964PEP     CB34853  20.677   4.013  11.335 -0.0200 -0.2235  0.0806
  964PEP     CB34854  20.741   4.488  11.352  0.3418  0.0199 -0.1342
  964PEP     CB34855  20.900   4.722  11.701  0.0027  0.0903  0.1033
  964PEP     CB34856  21.059   4.528  12.069  0.0543  0.0182  0.0496
  964PEP     CB34857  21.007   4.196  12.220 -0.2054  0.1463  0.1315
  964PEP     CB34858  20.662   3.855  12.205  0.0610 -0.2325  0.0679
  964PEP     CB34859  20.722   3.378  12.048  0.0448 -0.1123 -0.3299
  964PEP     CB34860  20.876   3.021  12.111 -0.1075 -0.0717 -0.4022
  964PEP     CB34861  21.054   2.673  12.295 -0.1318  0.2224 -0.1277
  964PEP     CB34862  21.347   2.363  12.079  0.1256  0.1381  0.2490
  964PEP     CB34863  21.790   2.079  11.904 -0.2226 -0.0645  0.5116
  964PEP     CB34864  22.204   1.944  11.917 -0.2425  0.2243 -0.0547
  964PEP     CB34865  22.676   1.852  11.946 -0.3579  0.0688  0.1391
  964PEP     CB34866  22.937   2.058  12.176 -0.2696  0.2108 -0.2246
  964PEP     CB34867  23.334   2.257  12.396  0.1286 -0.0437  0.2538
  964PEP     CB34868  23.434   2.238  12.896  0.0335  0.1207  0.0877
  964PEP     CB34869  23.359   1.965  13.242  0.2472  0.0259  0.1170
  964PEP     CB34870  23.414   1.571  13.506  0.1218 -0.1214 -0.3798
  964PEP     CB34871  23.008   1.418  13.741  0.4336 -0.1443  0.0319
  964PEP     CB34872  22.697   1.751  13.873 -0.1815 -0.1102  0.0541
  964PEP     CB34873  22.413   2.011  14.045 -0.2273 -0.4139 -0.0423
  964PEP     CB34874  22.039   2.269  14.220 -0.1708  0.1931 -0.1552
  964PEP     CB34875  21.622   2.418  14.128  0.2495  0.1151  0.1982
  964PEP     CB34876  21.260   2.575  14.035  0.1472 -0.4593 -0.4502
  964PEP     CB34877  20.841   2.617  14.072  0.1559 -0.0632  0.2396
  964PEP     CB34878  20.532   3.051  14.136 -0.4072  0.0360 -0.2481
  964PEP     CB34879  20.461   3.469  13.935  0.3707 -0.0508  0.3459
  964PEP     CB34880  20.440   3.866  13.749  0.0290  0.0588 -0.2039
  965PEP     CB34881  15.834   0.553   9.438 -0.3899 -0.1634 -0.0062
  965PEP     CB34882  15.759   0.682   9.815  0.0990  0.1081  0.0294
  965PEP     CB34883  15.667   0.688  10.284 -0.2764  0.2190 -0.0876
  965PEP     CB34884  15.711   0.534  10.743  0.1500  0.1496  0.0536
  965PEP     CB34885  15.508   0.374  11.021  0.1882 -0.2916 -0.3495
  965PEP     CB34886  15.044   0.339  11.040 -0.0461 -0.2676 -0.0300
  965PEP     CB34887  14.708   0.227  10.697 -0.1630 -0.1446  0.3616
  965PEP     CB34888  14.875   0.283  10.173 -0.0699 -0.2162 -0.2910
  965PEP     CB34889  15.196   0.523   9.950  0.0722  0.1618  0.2679
  965PEP     CB34890  15.313   0.765   9.562  0.0436  0.1505  0.0052
  965PEP     CB34891  15.374   0.612   9.143  0.3489  0.0323  0.2535
  965PEP     CB34892  15.203   0.235   9.083  0.1083  0.1513  0.2328
  965PEP     CB34893  15.170  -0.089   9.398 -0.0701  0.1720  0.2972
  965PEP     CB34894  15.142   0.042   9.803 -0.1500 -0.0858  0.0441
  965PEP     CB34895  15.567   0.223   9.853  0.0143 -0.2959  0.0115
  965PEP     CB34896  15.823   0.027   9.636  0.4052 -0.1873 -0.3750
  965PEP     CB34897  15.742  -0.405   9.511 -0.1801  0.1721  0.1381
  965PEP     CB34898  15.373  -0.637   9.635  0.3497  0.1644 -0.2248
  965PEP     CB34899  14.912  -0.484   9.669 -0.5392 -0.0070 -0.1728
  965PEP     CB34900  14.652  -0.132   9.754 -0.0064  0.5564  0.0617
  965PEP     CB34901  14.737   0.349   9.690  0.0214 -0.1800  0.2582
  965PEP     CB34902  14.749   0.800   9.622  0.0394  0.3370  0.0384
  965PEP     CB34903  14.766   1.245   9.618 -0.0082  0.6564  0.2239
  965PEP     CB34904  14.768   1.555   9.327 -0.2368 -0.0723  0.1779
  965PEP     CB34905  14.943   1.927   9.075 -0.1326  0.1087  0.0087
  965PEP     CB34906  15.021   2.220   8.874 -0.2882 -0.4678  0.2651
  965PEP     CB34907  14.934   2.576   8.573 -0.2565 -0.1702 -0.1097
  965PEP     CB34908  14.936   2.798   8.229  0.2254 -0.1630  0.0021
  965PEP     CB34909  14.703   2.887   7.929  0.1576 -0.0405  0.3641
  965PEP     CB34910  14.572   3.005   7.505  0.1922  0.0113  0.1187
  965PEP     CB34911  14.332   2.830   7.092  0.0032 -0.1837 -0.1941
  965PEP     CB34912  14.136   2.749   6.716 -0.0183 -0.0514  0.1862
  965PEP     CB34913  13.785   2.788   6.405 -0.1933 -0.2806  0.1391
  965PEP     CB34914  13.385   2.933   6.385 -0.0344 -0.0086 -0.0529
  965PEP     CB34915  13.055   2.894   6.602 -0.1199  0.3793 -0.1271
  965PEP     CB34916  12.611   2.819   6.466 -0.0638 -0.3078 -0.2973
  965PEP     CB34917  12.320   2.595   6.229 -0.1291  0.0334 -0.4426
  965PEP     CB34918  12.332   2.464   5.849 -0.2747  0.1325 -0.1670
  965PEP     CB34919  12.346   2.235   5.433  0.1489  0.0550  0.3993
  965PEP     CB34920  12.255   1.960   5.079 -0.0761  0.0709 -0.1335
  966PEP     CB34921  14.869   5.194   4.381  0.1531  0.1337  0.1181
  966PEP     CB34922  14.639   5.510   4.699 -0.1596 -0.0008 -0.2188
  966PEP     CB34923  14.577   5.728   5.082 -0.0251  0.3404 -0.4770
  966PEP     CB34924  14.923   6.010   5.234 -0.1110 -0.3941  0.0894
  966PEP     CB34925  15.422   6.086   5.157  0.1494  0.1665  0.1165
  966PEP     CB34926  15.868   5.949   5.264 -0.2692  0.0822 -0.1593
  966PEP     CB34927  16.215   5.699   5.468 -0.0659 -0.0919 -0.2154
  966PEP     CB34928  16.661   5.487   5.388 -0.2975 -0.1621 -0.1802
  966PEP     CB34929  16.773   5.139   5.522  0.0591  0.0739  0.1134
  966PEP     CB34930  16.482   4.823   5.532 -0.0681  0.0651  0.1523
  966PEP     CB34931  16.206   4.681   5.175 -0.1793  0.1103  0.0342
  966PEP     CB34932  16.171   4.738   4.746 -0.0977 -0.1660 -0.0489
  966PEP     CB34933  16.370   5.135   4.514 -0.0205  0.2787 -0.1872
  966PEP     CB34934  16.802   5.419   4.369  0.0340 -0.0047 -0.2515
  966PEP     CB34935  16.915   5.715   4.064 -0.3057  0.1382 -0.3775
  966PEP     CB34936  17.209   5.789   3.711  0.0517 -0.3239  0.1306
  966PEP     CB34937  17.486   5.934   3.339  0.2142 -0.2060 -0.1156
  966PEP     CB34938  17.756   6.102   3.049 -0.0458  0.0951  0.3424
  966PEP     CB34939  17.870   6.486   3.006 -0.2005  0.1389 -0.5825
  966PEP     CB34940  17.987   6.740   3.414  0.1663  0.1086  0.0016
  966PEP     CB34941  18.072   6.625   3.832 -0.0308  0.1183 -0.0404
  966PEP     CB34942  18.349   6.787   4.143 -0.6808  0.1400 -0.1552
  966PEP     CB34943  18.621   6.731   4.515  0.2464  0.1702  0.1496
  966PEP     CB34944  18.913   6.588   4.886  0.2178  0.0029 -0.2328
  966PEP     CB34945  19.089   6.502   5.348 -0.2070 -0.0725  0.3379
  966PEP     CB34946  19.127   6.715   5.793 -0.1456 -0.2067  0.0955
  966PEP     CB34947  19.079   6.995   6.111 -0.1100  0.0215  0.3715
  966PEP     CB34948  19.229   7.263   6.465  0.0372 -0.2007  0.2049
  966PEP     CB34949  19.509   7.617   6.564  0.0564  0.1313  0.1944
  966PEP     CB34950  19.411   7.930   6.766 -0.1104  0.0185  0.1716
  966PEP     CB34951  19.006   8.062   6.935 -0.2107  0.1099 -0.1548
  966PEP     CB34952  18.724   8.385   6.899  0.1374 -0.1733  0.1025
  966PEP     CB34953  18.364   8.550   6.678  0.4680 -0.2192 -0.0736
  966PEP     CB34954  18.160   8.920   6.467  0.3796 -0.0139  0.1535
  966PEP     CB34955  17.808   9.255   6.329  0.0997  0.3926 -0.4999
  966PEP     CB34956  17.582   9.598   6.376 -0.0543 -0.3001 -0.1257
  966PEP     CB34957  17.271   9.706   6.133  0.1185 -0.2822 -0.1596
  966PEP     CB34958  17.128   9.550   5.768  0.2430 -0.3248  0.4884
  966PEP     CB34959  17.016   9.653   5.318  0.5248  0.0049  0.5087
  966PEP     CB34960  17.223   9.957   5.005  0.0985  0.3885  0.2969
  967PEP     CB34961   9.034  10.126  19.760 -0.1697  0.2417  0.1096
  967PEP     CB34962   8.911   9.998  20.139  0.0376  0.2090  0.0977
  967PEP     CB34963   8.783   9.596  20.417  0.1342 -0.0400  0.0346
  967PEP     CB34964   8.635   9.528  20.777 -0.2956 -0.1473  0.1719
  967PEP     CB34965   8.507   9.827  21.152 -0.0512  0.2601 -0.1853
  967PEP     CB34966   8.576  10.316  21.207  0.2369 -0.0072  0.1592
  967PEP     CB34967   8.844  10.557  20.977  0.1820  0.2088  0.1929
  967PEP     CB34968   8.991  10.710  20.629  0.0730 -0.0019  0.0579
  967PEP     CB34969   9.236  10.591  20.240  0.1102 -0.2025 -0.3136
  967PEP     CB34970   9.381  10.446  19.822 -0.1712  0.3988 -0.1009
  967PEP     CB34971   9.567  10.584  19.512  0.2635 -0.1530  0.0908
  967PEP     CB34972   9.873  10.906  19.468 -0.2397 -0.1574 -0.1368
  967PEP     CB34973  10.182  11.208  19.395  0.0009 -0.0464 -0.2115
  967PEP     CB34974  10.212  11.645  19.474  0.0552 -0.2257 -0.3513
  967PEP     CB34975   9.881  11.931  19.628 -0.0994 -0.1360 -0.1028
  967PEP     CB34976   9.536  11.848  19.902  0.1500 -0.3009  0.0617
  967PEP     CB34977   9.277  11.520  20.159 -0.5559 -0.0443 -0.2946
  967PEP     CB34978   9.402  11.191  20.485 -0.3819 -0.2260 -0.1124
  967PEP     CB34979   9.546  10.806  20.733 -0.2139  0.1060 -0.0735
  967PEP     CB34980   9.502  10.360  20.704  0.1565 -0.1137 -0.0313
  967PEP     CB34981   9.511  10.012  21.020 -0.3849 -0.2619 -0.0166
  967PEP     CB34982   9.880   9.705  21.129 -0.4560 -0.3668 -0.1732
  967PEP     CB34983  10.280   9.503  21.259 -0.2159  0.1156  0.3944
  967PEP     CB34984  10.288   9.246  21.552  0.2818  0.0432 -0.3306
  967PEP     CB34985  10.168   8.847  21.816 -0.0957  0.1973  0.0773
  967PEP     CB34986  10.046   8.606  22.150 -0.0432  0.1423  0.1865
  967PEP     CB34987   9.902   8.589  22.477 -0.1803 -0.4435  0.4544
  967PEP     CB34988  10.205   8.725  22.884 -0.0851  0.0684  0.0763
  967PEP     CB34989  10.610   8.935  22.755  0.2363  0.2253 -0.3289
  967PEP     CB34990  10.600   9.095  22.316 -0.0388 -0.1042  0.0442
  967PEP     CB34991  10.494   9.445  21.999  0.0354  0.0380 -0.3864
  967PEP     CB34992  10.107   9.698  21.835  0.2232  0.0971  0.0041
  967PEP     CB34993   9.691   9.846  21.937  0.1064 -0.1363 -0.2916
  967PEP     CB34994   9.456  10.199  21.896  0.1008  0.0724  0.1972
  967PEP     CB34995   9.320  10.610  21.812 -0.5657  0.3582 -0.1734
  967PEP     CB34996   9.068  10.870  22.029  0.2265 -0.1274 -0.3559
  967PEP     CB34997   8.638  10.917  22.379 -0.0418 -0.3632 -0.1400
  967PEP     CB34998   8.260  11.161  22.600  0.5034 -0.0861  0.0422
  967PEP     CB34999   7.819  11.273  22.520  0.2834 -0.3749 -0.0743
  967PEP     CB35000   7.356  11.254  22.616 -0.3024  0.1747  0.0580
  968PEP     CB35001  16.586   3.986   8.006  0.1176  0.2959  0.1719
  968PEP     CB35002  16.712   3.696   7.642 -0.2701  0.3688  0.3557
  968PEP     CB35003  17.027   3.715   7.256  0.5028 -0.1072  0.2038
  968PEP     CB35004  17.184   3.899   6.816 -0.0624  0.0492  0.2068
  968PEP     CB35005  17.466   4.077   6.419 -0.4171  0.1905  0.1868
  968PEP     CB35006  17.623   4.211   6.019  0.1082 -0.4043  0.1669
  968PEP     CB35007  17.960   4.141   5.769 -0.1909  0.1404  0.3119
  968PEP     CB35008  18.341   4.249   5.540 -0.0226 -0.1626 -0.2042
  968PEP     CB35009  18.624   4.412   5.439 -0.1318  0.1634  0.0621
  968PEP     CB35010  18.872   4.734   5.549  0.0266 -0.1406 -0.0465
  968PEP     CB35011  19.078   5.043   5.881  0.0274  0.1122 -0.3020
  968PEP     CB35012  18.946   5.343   6.183 -0.0721  0.0477  0.0106
  968PEP     CB35013  18.858   5.454   6.626  0.2414  0.3725 -0.0602
  968PEP     CB35014  18.865   5.273   6.949 -0.0306 -0.0428  0.1319
  968PEP     CB35015  19.153   4.975   7.171 -0.2067  0.0683 -0.2274
  968PEP     CB35016  19.596   5.106   7.194 -0.1593  0.0187 -0.1596
  968PEP     CB35017  19.888   5.320   6.911  0.2017  0.2041  0.1187
  968PEP     CB35018  19.869   5.361   6.470  0.3936 -0.0366 -0.3102
  968PEP     CB35019  19.906   5.391   6.051  0.0985 -0.1004  0.0522
  968PEP     CB35020  19.980   5.630   5.665 -0.0528 -0.3026 -0.0321
  968PEP     CB35021  19.635   5.656   5.336 -0.4181  0.3108 -0.1216
  968PEP     CB35022  19.277   5.969   5.316  0.4792 -0.0428  0.1494
  968PEP     CB35023  18.967   6.073   5.575 -0.4730 -0.2747 -0.0454
  968PEP     CB35024  18.698   6.396   5.700  0.0967 -0.0424  0.0795
  968PEP     CB35025  18.619   6.799   5.951 -0.1080  0.3486 -0.0875
  968PEP     CB35026  18.386   7.077   6.178 -0.3325 -0.1055 -0.0460
  968PEP     CB35027  18.192   7.493   6.257  0.0995 -0.0827  0.3563
  968PEP     CB35028  17.927   7.777   6.082  0.0997  0.3378  0.3415
  968PEP     CB35029  17.686   8.153   6.058 -0.2737 -0.3216 -0.0029
  968PEP     CB35030  17.295   8.475   6.003 -0.1302  0.2243  0.1547
  968PEP     CB35031  16.799   8.379   5.974  0.0025 -0.0287 -0.1115
  968PEP     CB35032  16.351   8.431   5.828  0.1093 -0.0052 -0.1635
  968PEP     CB35033  16.183   8.489   5.412 -0.2742  0.1203 -0.1611
  968PEP     CB35034  16.209   8.781   4.985  0.1819 -0.2790 -0.2594
  968PEP     CB35035  16.582   8.853   4.680 -0.2506  0.1655  0.2124
  968PEP     CB35036  17.049   8.862   4.726 -0.0101  0.4971 -0.1755
  968PEP     CB35037  17.439   8.642   4.652 -0.3006 -0.3553 -0.0938
  968PEP     CB35038  17.836   8.634   4.420  0.0904  0.0030  0.0785
  968PEP     CB35039  18.316   8.783   4.346  0.1604  0.3112 -0.4720
  968PEP     CB35040  18.661   8.876   4.658  0.0600 -0.1486  0.1488
  969PEP     CB35041   1.144   5.821   5.921 -0.0147 -0.0490 -0.1673
  969PEP     CB35042   1.090   5.782   5.462  0.0191 -0.2177 -0.4876
  969PEP     CB35043   0.923   5.933   5.027 -0.3918  0.2385 -0.1386
  969PEP     CB35044   0.445   5.843   4.826 -0.5038 -0.3113  0.0273
  969PEP     CB35045   0.032   5.704   5.067 -0.1662  0.2694 -0.1429
  969PEP     CB35046  -0.442   5.636   5.177  0.2748  0.2715  0.0283
  969PEP     CB35047  -0.830   5.799   5.307 -0.0638 -0.2754  0.4715
  969PEP     CB35048  -1.214   5.831   5.369 -0.1057 -0.6064 -0.4447
  969PEP     CB35049  -1.552   5.862   5.637  0.2165 -0.0755  0.0247
  969PEP     CB35050  -1.449   5.835   6.011  0.1885 -0.2891  0.4055
  969PEP     CB35051  -1.247   5.598   6.257 -0.3167  0.1551  0.1343
  969PEP     CB35052  -1.069   5.230   6.464 -0.0909 -0.2019  0.4449
  969PEP     CB35053  -0.888   4.940   6.824  0.0984 -0.3709 -0.0553
  969PEP     CB35054  -0.585   4.689   7.013 -0.2400  0.0550  0.2480
  969PEP     CB35055  -0.142   4.718   7.251  0.3229  0.3867  0.2865
  969PEP     CB35056   0.210   4.865   7.524  0.4629 -0.2588 -0.1668
  969PEP     CB35057   0.574   4.935   7.614  0.2388 -0.2699 -0.0581
  969PEP     CB35058   1.011   5.117   7.800  0.1001 -0.3349  0.1344
  969PEP     CB35059   1.375   5.365   7.977  0.1943  0.2982 -0.3050
  969PEP     CB35060   1.706   5.261   8.203 -0.1861  0.1150 -0.2002
  969PEP     CB35061   1.916   4.949   8.359  0.3769  0.2341 -0.3305
  969PEP     CB35062   2.145   4.683   8.635  0.0520 -0.4935  0.0156
  969PEP     CB35063   2.348   4.309   8.742 -0.1332  0.0302 -0.1056
  969PEP     CB35064   2.504   3.869   8.890  0.0418 -0.2725 -0.0508
  969PEP     CB35065   2.765   3.547   8.774  0.1058  0.2083  0.1516
  969PEP     CB35066   3.164   3.323   8.835 -0.0052 -0.0956  0.0604
  969PEP     CB35067   3.565   3.254   9.090  0.2367 -0.2814 -0.1953
  969PEP     CB35068   4.050   3.314   9.001 -0.2738  0.1345 -0.0246
  969PEP     CB35069   4.207   3.503   8.705 -0.2061  0.4121  0.1793
  969PEP     CB35070   4.032   3.500   8.269  0.2743 -0.0305  0.0513
  969PEP     CB35071   3.823   3.191   8.022 -0.2242 -0.4910 -0.1701
  969PEP     CB35072   3.923   2.946   7.756 -0.0327  0.2614  0.1467
  969PEP     CB35073   4.305   2.723   7.830 -0.1215  0.2983 -0.1531
  969PEP     CB35074   4.683   2.814   7.890 -0.3560  0.0092 -0.2444
  969PEP     CB35075   5.043   2.761   8.162  0.0160  0.0052  0.1109
  969PEP     CB35076   5.456   3.052   8.245  0.2120 -0.7967 -0.0686
  969PEP     CB35077   5.849   3.300   8.183  0.1243 -0.0185 -0.3134
  969PEP     CB35078   6.162   3.353   8.296  0.3142  0.2792  0.1338
  969PEP     CB35079   6.549   3.629   8.347 -0.0633  0.0994 -0.0812
  969PEP     CB35080   6.797   4.019   8.272  0.0050  0.1856  0.5381
  970PEP     CB35081  10.519   5.706   8.115  0.5800 -0.4018  0.1204
  970PEP     CB35082  10.626   5.386   8.320 -0.2755 -0.1227  0.0420
  970PEP     CB35083  10.616   4.910   8.521 -0.0855 -0.0369 -0.0215
  970PEP     CB35084  10.895   4.692   8.873  0.0573  0.1027 -0.1674
  970PEP     CB35085  10.828   4.584   9.217  0.0406 -0.2444 -0.0952
  970PEP     CB35086  10.665   4.207   9.499 -0.1951 -0.3505 -0.0594
  970PEP     CB35087  10.697   4.099   9.891 -0.3133  0.4626 -0.4909
  970PEP     CB35088  11.084   3.920   9.992  0.0753  0.0092  0.0003
  970PEP     CB35089  11.303   3.569   9.873  0.0252 -0.0979 -0.0888
  970PEP     CB35090  11.220   3.265   9.687 -0.0283 -0.1453 -0.0330
  970PEP     CB35091  11.324   2.799   9.570  0.3561  0.0847 -0.3645
  970PEP     CB35092  11.575   2.628   9.345  0.3668  0.1392 -0.1439
  970PEP     CB35093  11.804   2.443   9.013 -0.0009  0.4253 -0.0426
  970PEP     CB35094  11.936   2.026   8.726  0.1803 -0.0327  0.0761
  970PEP     CB35095  11.964   1.563   8.568 -0.1559 -0.3128 -0.0699
  970PEP     CB35096  11.945   1.128   8.591 -0.2027  0.1949  0.0855
  970PEP     CB35097  12.003   0.672   8.456 -0.1825  0.2897  0.0237
  970PEP     CB35098  12.382   0.354   8.470  0.1489 -0.4910  0.0846
  970PEP     CB35099  12.724   0.247   8.156 -0.0605  0.5340 -0.1643
  970PEP     CB35100  13.138   0.091   8.062  0.0469 -0.1603  0.1967
  970PEP     CB35101  13.605  -0.032   7.893 -0.1345  0.0918  0.1740
  970PEP     CB35102  14.039   0.157   7.779  0.1225  0.1828 -0.2764
  970PEP     CB35103  14.277   0.583   7.747 -0.0153  0.1712 -0.3811
  970PEP     CB35104  14.388   0.927   7.628 -0.0166 -0.0607  0.0151
  970PEP     CB35105  14.303   1.272   7.365 -0.4696  0.3758  0.0788
  970PEP     CB35106  14.423   1.488   6.984 -0.1355 -0.1367 -0.1598
  970PEP     CB35107  14.490   1.581   6.505  0.2655  0.0830 -0.3240
  970PEP     CB35108  14.640   1.960   6.217 -0.3128 -0.4291  0.1581
  970PEP     CB35109  14.549   2.202   5.843  0.3132  0.5826  0.1005
  970PEP     CB35110  14.676   2.164   5.404  0.0963  0.1272 -0.1218
  970PEP     CB35111  14.867   2.141   5.038 -0.3609 -0.5092 -0.1139
  970PEP     CB35112  15.074   2.291   4.665  0.0457  0.2432  0.0891
  970PEP     CB35113  15.484   2.175   4.460 -0.2747 -0.1406  0.3524
  970PEP     CB35114  15.834   2.051   4.239 -0.0077 -0.2906  0.1982
  970PEP     CB35115  15.950   1.709   4.059 -0.2663  0.0907 -0.0939
  970PEP     CB35116  15.956   1.477   3.776 -0.1356 -0.4780  0.2385
  970PEP     CB35117  16.242   1.042   3.702  0.1587  0.0738 -0.2818
  970PEP     CB35118  16.420   0.758   4.084 -0.4381 -0.0400 -0.1936
  970PEP     CB35119  16.784   0.801   4.462  0.1644  0.4668 -0.2216
  970PEP     CB35120  17.187   0.883   4.621  0.1985 -0.1781  0.0640
  971PEP     CB35121  20.656   9.974   6.569 -0.1060  0.2069 -0.0805
  971PEP     CB35122  20.383  10.189   6.302  0.1331 -0.2331  0.0083
  971PEP     CB35123  20.319  10.141   5.821 -0.1248  0.0780  0.0370
  971PEP     CB35124  20.235   9.707   5.650  0.0741  0.1036 -0.3794
  971PEP     CB35125  19.983   9.356   5.905 -0.1824  0.1140 -0.2792
  971PEP     CB35126  19.752   9.430   6.339 -0.1881 -0.0649  0.1068
  971PEP     CB35127  19.930   9.638   6.691 -0.1208 -0.0024 -0.2771
  971PEP     CB35128  20.247   9.892   6.943  0.2496  0.1183 -0.0730
  971PEP     CB35129  20.377  10.239   7.233 -0.2518  0.2017 -0.0822
  971PEP     CB35130  20.059  10.579   7.266  0.0487  0.1770 -0.1637
  971PEP     CB35131  19.871  10.626   6.854  0.5090  0.0789  0.2045
  971PEP     CB35132  20.134  10.613   6.476  0.1409 -0.0453 -0.3906
  971PEP     CB35133  20.587  10.795   6.478 -0.3225 -0.0432  0.5104
  971PEP     CB35134  20.939  10.737   6.610  0.3050  0.0975 -0.1155
  971PEP     CB35135  21.279  10.643   6.923  0.0993  0.0072 -0.0700
  971PEP     CB35136  21.665  10.338   6.858  0.1032  0.4930  0.0077
  971PEP     CB35137  21.982  10.305   7.004  0.1566  0.4371 -0.0818
  971PEP     CB35138  22.044  10.450   7.417 -0.2381 -0.1005 -0.2571
  971PEP     CB35139  21.750  10.732   7.509  0.3330 -0.1598  0.1682
  971PEP     CB35140  21.573  10.930   7.154 -0.0242 -0.2725 -0.3982
  971PEP     CB35141  21.799  10.784   6.758  0.0926 -0.2090  0.1072
  971PEP     CB35142  22.180  10.682   6.765 -0.0545  0.0753  0.1188
  971PEP     CB35143  22.450  10.667   7.034 -0.0842  0.0488 -0.3567
  971PEP     CB35144  22.385  10.844   7.440  0.2365 -0.2041  0.0435
  971PEP     CB35145  22.184  10.987   7.735  0.0405  0.0185 -0.0629
  971PEP     CB35146  21.924  11.193   8.048 -0.1475 -0.3376 -0.1941
  971PEP     CB35147  21.795  11.445   8.421 -0.1545 -0.2199 -0.2627
  971PEP     CB35148  21.838  11.435   8.947  0.0327  0.3063  0.0844
  971PEP     CB35149  21.571  11.178   9.335 -0.3442 -0.2438  0.0718
  971PEP     CB35150  21.434  10.892   9.704  0.1098  0.4477  0.0204
  971PEP     CB35151  21.561  10.538   9.984  0.0112 -0.1672 -0.1505
  971PEP     CB35152  21.552  10.058  10.088  0.1139  0.0041  0.2704
  971PEP     CB35153  21.768   9.658  10.304 -0.0095 -0.1909  0.1746
  971PEP     CB35154  22.138   9.550  10.473 -0.0046 -0.3036 -0.2555
  971PEP     CB35155  22.480   9.372  10.557  0.1524  0.1594 -0.0115
  971PEP     CB35156  22.812   9.171  10.413  0.0019 -0.2347  0.1694
  971PEP     CB35157  23.126   8.914  10.426  0.0972 -0.4679 -0.0560
  971PEP     CB35158  23.179   8.433  10.319  0.0730  0.2896  0.1535
  971PEP     CB35159  23.300   8.078  10.500  0.2565 -0.2741 -0.4189
  971PEP     CB35160  23.224   7.851  10.785 -0.3651  0.2623  0.0324
  972PEP     CB35161   0.302   3.511  12.266 -0.3370  0.0202  0.1581
  972PEP     CB35162   0.530   3.146  12.361 -0.0822  0.2813 -0.0399
  972PEP     CB35163   0.822   2.777  12.300  0.2685  0.2561  0.2315
  972PEP     CB35164   1.052   2.492  11.969  0.0354  0.3457  0.3436
  972PEP     CB35165   1.321   2.142  11.922 -0.0234  0.1098  0.2080
  972PEP     CB35166   1.569   1.876  12.155 -0.2515  0.0231  0.1123
  972PEP     CB35167   2.038   1.623  11.978 -0.0005  0.4084  0.5193
  972PEP     CB35168   2.352   1.676  11.679 -0.0303 -0.3377  0.3611
  972PEP     CB35169   2.702   1.799  11.394 -0.1130 -0.0012  0.0665
  972PEP     CB35170   3.099   1.909  11.267 -0.2928  0.2889 -0.0034
  972PEP     CB35171   3.463   1.907  11.067  0.0296 -0.0676 -0.1637
  972PEP     CB35172   3.901   1.920  11.211 -0.0356 -0.0828  0.0031
  972PEP     CB35173   4.046   1.692  11.601  0.1969 -0.1584  0.1840
  972PEP     CB35174   3.822   1.313  11.786 -0.1270  0.5139  0.2864
  972PEP     CB35175   3.474   1.080  11.663  0.1575 -0.1115  0.1154
  972PEP     CB35176   3.292   0.967  11.228  0.0371  0.0580  0.3362
  972PEP     CB35177   3.263   0.989  10.741  0.1985  0.1720 -0.3209
  972PEP     CB35178   3.510   0.964  10.309 -0.0418 -0.0216  0.0080
  972PEP     CB35179   3.858   1.204  10.183 -0.2775 -0.0091 -0.1640
  972PEP     CB35180   3.880   1.643  10.194  0.0760  0.1199 -0.2691
  972PEP     CB35181   3.939   1.898  10.521  0.1204 -0.3523 -0.2405
  972PEP     CB35182   4.274   1.929  10.838  0.0743 -0.1475  0.2853
  972PEP     CB35183   4.739   2.174  10.840 -0.3446 -0.0940  0.2672
  972PEP     CB35184   4.714   2.638  10.786  0.0268 -0.3459  0.0810
  972PEP     CB35185   4.530   2.804  10.321 -0.1513  0.1645  0.6068
  972PEP     CB35186   4.467   2.511   9.993 -0.2696 -0.1902 -0.0038
  972PEP     CB35187   4.588   2.184   9.551 -0.2283  0.0488 -0.2996
  972PEP     CB35188   4.564   2.030   9.118 -0.0579 -0.1891  0.0180
  972PEP     CB35189   4.659   1.773   8.881 -0.2147 -0.2050 -0.0725
  972PEP     CB35190   5.084   1.689   8.745  0.3052 -0.4675 -0.2014
  972PEP     CB35191   5.498   1.557   8.881  0.0260  0.3105  0.3342
  972PEP     CB35192   5.900   1.304   9.037  0.3304  0.3500  0.2596
  972PEP     CB35193   6.213   1.109   9.373 -0.3890  0.0296 -0.3009
  972PEP     CB35194   6.250   0.890   9.761  0.1559  0.1909 -0.1688
  972PEP     CB35195   6.419   0.747  10.103 -0.4759  0.0076 -0.0382
  972PEP     CB35196   6.914   0.699  10.200  0.0740  0.0328  0.3034
  972PEP     CB35197   7.255   1.017   9.990  0.3197 -0.0896  0.1998
  972PEP     CB35198   7.318   1.427   9.984 -0.1496  0.1755 -0.3531
  972PEP     CB35199   7.429   1.878   9.819  0.2493 -0.0774 -0.2747
  972PEP     CB35200   7.426   2.372   9.573  0.0766 -0.1167  0.2368
  973PEP     CB35201   2.786  17.300  20.755 -0.0497  0.0448  0.2752
  973PEP     CB35202   3.185  17.297  20.820  0.1579 -0.2341 -0.0623
  973PEP     CB35203   3.690  17.339  20.775 -0.1295  0.1471  0.2974
  973PEP     CB35204   3.996  17.702  20.831  0.1079  0.3646  0.0089
  973PEP     CB35205   3.930  17.859  21.227  0.2418  0.1908  0.2351
  973PEP     CB35206   3.743  17.599  21.396  0.3249 -0.2180 -0.1329
  973PEP     CB35207   3.851  17.209  21.400 -0.0655  0.2066 -0.0864
  973PEP     CB35208   4.106  16.786  21.337 -0.1610 -0.0719  0.0072
  973PEP     CB35209   4.167  16.353  21.329  0.2682 -0.2692  0.0401
  973PEP     CB35210   3.850  15.968  21.376  0.1631  0.3600  0.6012
  973PEP     CB35211   3.636  15.573  21.606  0.2562 -0.2869  0.2462
  973PEP     CB35212   3.458  15.278  21.386 -0.0274  0.0768 -0.0752
  973PEP     CB35213   3.275  15.309  21.016 -0.0426 -0.5337 -0.1947
  973PEP     CB35214   3.512  15.160  20.644 -0.0164  0.0634 -0.0755
  973PEP     CB35215   3.783  14.807  20.577 -0.0131  0.3153 -0.0582
  973PEP     CB35216   4.173  14.572  20.452  0.1265  0.0586 -0.0148
  973PEP     CB35217   4.531  14.755  20.366 -0.1536 -0.0130  0.1443
  973PEP     CB35218   4.842  14.884  20.184 -0.1946  0.2131  0.0218
  973PEP     CB35219   5.243  14.884  20.091 -0.2210  0.2388  0.0800
  973PEP     CB35220   5.600  14.792  19.827  0.0001 -0.0552 -0.0642
  973PEP     CB35221   5.920  14.638  19.662 -0.1821  0.1194 -0.0983
  973PEP     CB35222   5.972  14.254  19.472  0.2050 -0.1847  0.0990
  973PEP     CB35223   5.981  13.769  19.564  0.0226  0.6082  0.1381
  973PEP     CB35224   6.047  13.339  19.599 -0.2369 -0.1019  0.6122
  973PEP     CB35225   6.315  12.967  19.649  0.3383 -0.1495  0.2444
  973PEP     CB35226   6.500  12.653  19.631  0.3134  0.1677 -0.1042
  973PEP     CB35227   6.553  12.181  19.719  0.1777  0.2107  0.4864
  973PEP     CB35228   6.830  11.951  20.052 -0.0941 -0.2821  0.1993
  973PEP     CB35229   6.981  11.914  20.563 -0.3136 -0.2482 -0.0047
  973PEP     CB35230   7.094  11.753  20.965  0.1128  0.1659  0.5121
  973PEP     CB35231   7.364  11.608  21.303 -0.2305 -0.1019  0.0452
  973PEP     CB35232   7.690  11.369  21.525  0.1940  0.3506 -0.0002
  973PEP     CB35233   7.883  11.122  21.658  0.2391  0.3372  0.5276
  973PEP     CB35234   7.819  10.697  21.689  0.3668  0.0154 -0.3269
  973PEP     CB35235   7.872  10.260  21.869  0.1543 -0.2147  0.5181
  973PEP     CB35236   7.714   9.861  22.039 -0.0687  0.1075  0.5236
  973PEP     CB35237   7.588   9.507  22.276 -0.2438  0.2720  0.2782
  973PEP     CB35238   7.228   9.261  22.386  0.1207  0.2081 -0.1951
  973PEP     CB35239   6.798   9.314  22.475 -0.0798  0.0032 -0.2919
  973PEP     CB35240   6.394   9.280  22.587 -0.0480 -0.0565  0.1147
  974PEP     CB35241  19.163   4.177   8.172 -0.1483  0.1153  0.1613
  974PEP     CB35242  19.327   4.371   7.761 -0.0339  0.0579 -0.1428
  974PEP     CB35243  19.825   4.445   7.616 -0.4092  0.0856 -0.2645
  974PEP     CB35244  20.106   4.125   7.894 -0.0620 -0.0294 -0.2063
  974PEP     CB35245  19.997   4.101   8.337 -0.0633 -0.2548 -0.1975
  974PEP     CB35246  19.834   4.300   8.710  0.0142 -0.0718 -0.1217
  974PEP     CB35247  19.799   4.341   9.155 -0.0423  0.0062  0.2844
  974PEP     CB35248  20.076   4.210   9.500  0.0352 -0.0639  0.0787
  974PEP     CB35249  20.404   4.487   9.658 -0.2162  0.0261 -0.2470
  974PEP     CB35250  20.417   4.894   9.796  0.0992  0.3249 -0.2198
  974PEP     CB35251  20.443   5.280   9.532 -0.0610 -0.2453 -0.4193
  974PEP     CB35252  20.384   5.315   9.018  0.2844 -0.0089  0.0238
  974PEP     CB35253  20.034   5.314   8.940 -0.1871  0.0405 -0.0781
  974PEP     CB35254  19.679   5.415   9.287 -0.5458 -0.1974  0.0233
  974PEP     CB35255  19.233   5.468   9.411 -0.2168  0.0250 -0.1060
  974PEP     CB35256  18.922   5.693   9.592  0.2307 -0.2099  0.2389
  974PEP     CB35257  18.741   6.047   9.753 -0.0639 -0.2889 -0.4381
  974PEP     CB35258  18.675   6.249  10.201  0.0553 -0.0747 -0.3069
  974PEP     CB35259  18.666   6.601  10.466  0.0239 -0.0145 -0.0810
  974PEP     CB35260  18.338   6.763  10.687  0.1757 -0.2064 -0.0125
  974PEP     CB35261  18.002   6.675  10.959  0.3393 -0.3495 -0.1784
  974PEP     CB35262  17.668   6.421  11.145 -0.1454 -0.1825  0.3068
  974PEP     CB35263  17.560   6.018  11.445 -0.1723 -0.0300  0.0574
  974PEP     CB35264  17.556   5.895  11.893  0.3170  0.0603 -0.2382
  974PEP     CB35265  17.428   5.865  12.383 -0.0680  0.0366  0.0868
  974PEP     CB35266  17.276   5.893  12.734 -0.0710 -0.0094 -0.0303
  974PEP     CB35267  17.293   5.704  13.057 -0.1809 -0.0519  0.1352
  974PEP     CB35268  17.304   5.196  13.165  0.1629  0.2757 -0.1620
  974PEP     CB35269  17.033   4.974  13.028  0.3594  0.0633 -0.0455
  974PEP     CB35270  16.837   4.862  12.622  0.1623  0.2732 -0.7839
  974PEP     CB35271  16.842   5.104  12.242 -0.2987 -0.2781  0.0402
  974PEP     CB35272  16.871   5.614  12.098 -0.0522 -0.2018 -0.0302
  974PEP     CB35273  17.115   5.905  11.954  0.3616  0.0005 -0.2055
  974PEP     CB35274  17.305   6.251  11.804  0.3300  0.3305  0.3771
  974PEP     CB35275  17.725   6.404  11.738 -0.0529  0.1233  0.3209
  974PEP     CB35276  18.220   6.416  11.826  0.4329  0.3042 -0.1713
  974PEP     CB35277  18.615   6.332  11.584 -0.3390 -0.3254 -0.3316
  974PEP     CB35278  18.916   6.045  11.438 -0.0186  0.0538 -0.5194
  974PEP     CB35279  19.017   5.715  11.514 -0.2496 -0.2693 -0.1431
  974PEP     CB35280  18.951   5.460  11.884  0.1650 -0.0501 -0.4460
  975PEP     CB35281   0.185  11.249  19.568 -0.0344 -0.2225 -0.4651
  975PEP     CB35282   0.224  11.465  19.991  0.3179 -0.2448 -0.0011
  975PEP     CB35283   0.284  11.630  20.381 -0.1410 -0.3800  0.2983
  975PEP     CB35284   0.352  11.947  20.686  0.1159  0.2489  0.1578
  975PEP     CB35285   0.247  12.396  20.757 -0.2406 -0.0814 -0.1406
  975PEP     CB35286   0.358  12.775  20.955 -0.2909 -0.6491  0.0576
  975PEP     CB35287   0.482  13.190  21.254 -0.2911  0.1945  0.2420
  975PEP     CB35288   0.716  13.454  21.583  0.3452 -0.2856 -0.0142
  975PEP     CB35289   0.993  13.755  21.878  0.3510 -0.2574  0.0346
  975PEP     CB35290   1.206  13.964  22.154  0.0587 -0.2027  0.1257
  975PEP     CB35291   1.409  14.299  22.124 -0.1618  0.3242  0.2418
  975PEP     CB35292   1.490  14.556  21.769 -0.1187 -0.0750 -0.0420
  975PEP     CB35293   1.352  14.611  21.414  0.0357  0.2189 -0.2382
  975PEP     CB35294   1.358  14.370  20.971  0.1295 -0.2082 -0.3624
  975PEP     CB35295   1.607  14.202  20.725 -0.2488 -0.0002  0.0886
  975PEP     CB35296   1.905  13.948  20.569  0.3462  0.0076  0.3553
  975PEP     CB35297   2.234  13.948  20.280  0.1636 -0.4452 -0.0432
  975PEP     CB35298   2.171  13.830  19.790  0.0876 -0.2123  0.3089
  975PEP     CB35299   2.118  13.550  19.501 -0.1055  0.1313 -0.1582
  975PEP     CB35300   1.993  13.424  19.021  0.2641  0.2753 -0.4140
  975PEP     CB35301   1.581  13.266  18.972  0.2353 -0.2199  0.6131
  975PEP     CB35302   1.483  12.871  19.008  0.1605  0.1022 -0.1158
  975PEP     CB35303   1.795  12.511  19.132  0.0271  0.0814  0.1547
  975PEP     CB35304   2.143  12.459  18.957 -0.0491  0.1153 -0.0994
  975PEP     CB35305   2.376  12.351  18.613  0.0722  0.1484 -0.0147
  975PEP     CB35306   2.484  12.131  18.270 -0.0760  0.1077 -0.1047
  975PEP     CB35307   2.607  11.721  18.072 -0.0559  0.1938 -0.1825
  975PEP     CB35308   3.055  11.562  18.092 -0.3461  0.1581  0.1209
  975PEP     CB35309   3.387  11.536  18.435  0.1929  0.1781 -0.5654
  975PEP     CB35310   3.700  11.838  18.587  0.1036  0.0479 -0.0316
  975PEP     CB35311   3.660  12.187  18.808 -0.2037 -0.1703 -0.1171
  975PEP     CB35312   3.708  12.244  19.214 -0.0108 -0.2437 -0.1458
  975PEP     CB35313   3.790  11.987  19.641 -0.2137  0.2119 -0.0417
  975PEP     CB35314   3.602  11.779  19.927  0.1479 -0.0149 -0.1079
  975PEP     CB35315   3.794  11.703  20.321 -0.0128 -0.1543  0.2863
  975PEP     CB35316   4.272  11.765  20.452  0.2535  0.0858  0.3275
  975PEP     CB35317   4.679  11.630  20.562 -0.1958 -0.1111 -0.2340
  975PEP     CB35318   5.101  11.856  20.584  0.1466  0.3498  0.0087
  975PEP     CB35319   5.328  12.042  20.912  0.1200  0.0603  0.1229
  975PEP     CB35320   5.293  12.382  21.209  0.1563 -0.5510  0.0536
  976PEP     CB35321   0.722  10.009  21.311  0.1150  0.5921  0.0787
  976PEP     CB35322   1.056  10.178  21.151 -0.1452 -0.4638 -0.2227
  976PEP     CB35323   1.425  10.466  21.066 -0.2373  0.2120  0.0544
  976PEP     CB35324   1.857  10.595  20.928 -0.4243 -0.2212  0.1354
  976PEP     CB35325   2.285  10.538  20.806 -0.0761 -0.3551  0.0803
  976PEP     CB35326   2.657  10.242  20.592  0.1527 -0.3303  0.2293
  976PEP     CB35327   3.076  10.094  20.458 -0.4337  0.1628  0.3886
  976PEP     CB35328   3.293  10.110  20.072  0.1532  0.1553  0.1179
  976PEP     CB35329   3.377   9.854  19.674 -0.1646 -0.3550 -0.1584
  976PEP     CB35330   3.146   9.807  19.346  0.1873  0.0279 -0.2281
  976PEP     CB35331   2.841  10.024  19.337 -0.0128 -0.1555  0.2952
  976PEP     CB35332   2.539  10.334  19.572  0.1762 -0.2630 -0.2005
  976PEP     CB35333   2.501  10.676  19.765 -0.0222  0.1259 -0.0423
  976PEP     CB35334   2.900  10.904  19.782 -0.2506  0.1305 -0.0313
  976PEP     CB35335   3.284  10.766  19.889  0.0711 -0.1543  0.3233
  976PEP     CB35336   3.626  10.501  20.046 -0.0656 -0.1509  0.3930
  976PEP     CB35337   4.099  10.341  20.033 -0.1499  0.1402 -0.0677
  976PEP     CB35338   4.402  10.180  20.333  0.2421  0.3250 -0.2691
  976PEP     CB35339   4.473  10.235  20.789 -0.2062 -0.3090  0.1187
  976PEP     CB35340   4.201  10.242  21.109  0.0315 -0.1544 -0.3110
  976PEP     CB35341   3.903  10.437  21.463 -0.2189  0.0798  0.0091
  976PEP     CB35342   3.546  10.469  21.676 -0.0358  0.1081  0.0904
  976PEP     CB35343   3.154  10.309  21.981  0.4124 -0.1974 -0.0622
  976PEP     CB35344   3.197   9.959  22.299 -0.1098  0.2130 -0.0879
  976PEP     CB35345   3.243  10.092  22.687 -0.2401 -0.2383 -0.0673
  976PEP     CB35346   3.569  10.322  22.877  0.2850  0.1080  0.1718
  976PEP     CB35347   3.940  10.483  22.681 -0.0609 -0.3201 -0.0958
  976PEP     CB35348   4.075  10.603  22.294 -0.5704  0.2031  0.0459
  976PEP     CB35349   3.847  10.722  21.965 -0.1780 -0.0536  0.0622
  976PEP     CB35350   3.443  10.878  21.887  0.1900 -0.2077  0.0503
  976PEP     CB35351   3.383  11.201  21.593  0.2439  0.2800 -0.1131
  976PEP     CB35352   3.730  11.476  21.612  0.1464 -0.1415  0.2664
  976PEP     CB35353   4.112  11.365  21.834 -0.0724  0.5886 -0.1773
  976PEP     CB35354   4.398  10.966  21.955  0.4713 -0.1362 -0.0065
  976PEP     CB35355   4.783  10.699  22.128  0.1655 -0.0331  0.3435
  976PEP     CB35356   5.160  10.577  22.114 -0.2144  0.4248 -0.0751
  976PEP     CB35357   5.538  10.495  22.207  0.0919  0.0798  0.0769
  976PEP     CB35358   5.965  10.444  22.378  0.1821  0.0417 -0.3617
  976PEP     CB35359   6.334  10.166  22.522  0.0454 -0.1598  0.2229
  976PEP     CB35360   6.562   9.811  22.426  0.0240 -0.5154  0.2437
  977PEP     CB35361   5.496   5.798  12.765 -0.1477  0.2074 -0.0957
  977PEP     CB35362   5.536   6.067  12.509  0.0197  0.1844  0.2654
  977PEP     CB35363   5.414   6.383  12.239 -0.1331 -0.1061  0.3835
  977PEP     CB35364   5.195   6.413  11.802 -0.0164 -0.1952  0.2268
  977PEP     CB35365   5.106   6.623  11.385  0.1581 -0.0084 -0.0642
  977PEP     CB35366   5.015   6.744  11.034  0.0998 -0.0794 -0.1401
  977PEP     CB35367   4.733   6.855  10.638 -0.2949  0.2665 -0.4068
  977PEP     CB35368   4.620   6.529  10.317 -0.3599 -0.1210 -0.0547
  977PEP     CB35369   4.535   6.166  10.416  0.1395  0.2605 -0.0546
  977PEP     CB35370   4.475   5.846  10.742 -0.0062 -0.2027 -0.1877
  977PEP     CB35371   4.609   5.449  10.911 -0.3168  0.0683  0.5397
  977PEP     CB35372   4.626   4.944  10.893  0.1358 -0.5971 -0.4973
  977PEP     CB35373   4.349   4.566  10.817 -0.1662 -0.0373  0.2536
  977PEP     CB35374   3.971   4.648  10.552 -0.0037 -0.0115 -0.0456
  977PEP     CB35375   3.612   4.611  10.346 -0.0795  0.2320 -0.2085
  977PEP     CB35376   3.252   4.497  10.189 -0.0631  0.2438  0.4546
  977PEP     CB35377   2.805   4.389  10.277  0.0293 -0.0579 -0.3956
  977PEP     CB35378   2.529   3.928  10.501  0.1095  0.2129  0.1780
  977PEP     CB35379   2.622   3.440  10.527  0.2554  0.3209  0.3055
  977PEP     CB35380   2.882   3.071  10.617 -0.2283 -0.2551 -0.0872
  977PEP     CB35381   3.167   2.843  10.889 -0.3807 -0.1032 -0.0610
  977PEP     CB35382   3.509   2.714  11.185  0.3908 -0.0130  0.1641
  977PEP     CB35383   3.729   2.410  11.484 -0.0685  0.1448 -0.1913
  977PEP     CB35384   4.168   2.229  11.551 -0.0901  0.4114 -0.2882
  977PEP     CB35385   4.688   2.353  11.533  0.1289  0.0423 -0.0704
  977PEP     CB35386   4.973   2.397  11.275 -0.1486  0.1982  0.3343
  977PEP     CB35387   5.224   2.680  11.043 -0.0137  0.1917  0.1635
  977PEP     CB35388   5.365   3.080  10.954 -0.4100  0.0503  0.5497
  977PEP     CB35389   5.452   3.482  10.758  0.4349  0.1384  0.1091
  977PEP     CB35390   5.738   3.822  10.563 -0.3037 -0.0142 -0.0662
  977PEP     CB35391   5.914   4.221  10.357  0.1668 -0.3595  0.4763
  977PEP     CB35392   5.901   4.448  10.027 -0.2252  0.2081  0.2539
  977PEP     CB35393   5.820   4.766   9.752 -0.0183 -0.2726  0.4045
  977PEP     CB35394   5.538   4.964   9.724 -0.0043 -0.1363 -0.0246
  977PEP     CB35395   5.160   4.847   9.960 -0.0420  0.3707  0.1066
  977PEP     CB35396   4.786   4.670  10.084  0.0461 -0.3480 -0.1449
  977PEP     CB35397   4.565   4.435  10.348  0.1882  0.0190  0.0162
  977PEP     CB35398   4.320   4.011  10.265 -0.2371 -0.0093 -0.0317
  977PEP     CB35399   4.027   3.741  10.331  0.2807 -0.3159 -0.0227
  977PEP     CB35400   3.681   3.531  10.424 -0.0475  0.2251 -0.2402
  978PEP     CB35401   3.663  15.911  11.075 -0.0031  0.2099  0.0883
  978PEP     CB35402   3.663  15.450  11.015  0.2715  0.0084  0.1695
  978PEP     CB35403   3.754  15.055  10.906  0.0287  0.0116 -0.0678
  978PEP     CB35404   3.597  14.767  10.690 -0.3126  0.3052  0.1931
  978PEP     CB35405   3.569  14.337  10.553 -0.0023 -0.0515 -0.0755
  978PEP     CB35406   3.774  13.916  10.351  0.2324  0.2361 -0.3883
  978PEP     CB35407   3.885  13.555  10.121  0.0971  0.0201  0.0334
  978PEP     CB35408   3.588  13.348   9.774 -0.2024 -0.0999  0.3452
  978PEP     CB35409   3.151  13.435   9.710  0.0409 -0.3114 -0.4131
  978PEP     CB35410   2.709  13.393   9.451  0.4791  0.1119  0.2755
  978PEP     CB35411   2.520  13.625   9.202  0.2241  0.0380 -0.2082
  978PEP     CB35412   2.255  13.526   8.784 -0.5590 -0.3422  0.1402
  978PEP     CB35413   1.842  13.488   8.628 -0.8500 -0.5179 -0.3691
  978PEP     CB35414   1.412  13.468   8.885  0.0011 -0.3185  0.2316
  978PEP     CB35415   1.089  13.493   9.268 -0.1692  0.5437  0.0216
  978PEP     CB35416   0.944  13.423   9.602  0.1902 -0.3703 -0.0278
  978PEP     CB35417   0.960  13.673   9.960 -0.1342 -0.1157  0.0060
  978PEP     CB35418   1.294  13.829  10.029  0.0392 -0.0667  0.0835
  978PEP     CB35419   1.772  13.794   9.839 -0.0598  0.3340 -0.0805
  978PEP     CB35420   1.919  13.782   9.413  0.1552 -0.0227 -0.1437
  978PEP     CB35421   1.702  13.901   9.027 -0.0002 -0.1165 -0.1346
  978PEP     CB35422   1.583  13.941   8.596  0.4052  0.0089  0.3689
  978PEP     CB35423   1.385  13.590   8.312  0.2393  0.0452 -0.0655
  978PEP     CB35424   1.321  13.258   7.911 -0.1330 -0.2973  0.5112
  978PEP     CB35425   1.433  12.899   7.715  0.1746  0.0180 -0.1363
  978PEP     CB35426   1.730  12.550   7.492 -0.2596 -0.0697  0.2770
  978PEP     CB35427   2.037  12.230   7.516  0.1518  0.0045  0.0288
  978PEP     CB35428   2.418  12.134   7.844  0.0950  0.4380  0.0713
  978PEP     CB35429   2.615  12.439   8.082  0.0516  0.1926  0.0806
  978PEP     CB35430   2.895  12.750   8.232  0.3133 -0.0475  0.4745
  978PEP     CB35431   3.086  12.865   8.646  0.2034 -0.0632 -0.1630
  978PEP     CB35432   2.979  12.823   9.036  0.1448 -0.2129  0.2622
  978PEP     CB35433   2.973  12.471   9.424  0.1994 -0.2954  0.2159
  978PEP     CB35434   3.098  12.250   9.884  0.3656  0.1244  0.1535
  978PEP     CB35435   3.192  11.908  10.226 -0.0134 -0.0830  0.2574
  978PEP     CB35436   3.062  11.527  10.387  0.0187  0.2765  0.2355
  978PEP     CB35437   2.889  11.150  10.496 -0.1483  0.4997  0.1765
  978PEP     CB35438   2.757  10.765  10.221  0.2226 -0.0558 -0.1868
  978PEP     CB35439   2.903  10.543   9.916  0.1366  0.0689 -0.1484
  978PEP     CB35440   2.773  10.222   9.572  0.3079  0.0499 -0.0190
  979PEP     CB35441   4.072   4.671  18.028  0.1405 -0.1521  0.2069
  979PEP     CB35442   3.917   5.028  18.282 -0.1826 -0.1406 -0.0636
  979PEP     CB35443   3.847   5.170  18.692  0.2271 -0.3871  0.0744
  979PEP     CB35444   3.880   5.222  19.084 -0.4253  0.0747  0.0878
  979PEP     CB35445   4.161   5.180  19.483 -0.1966  0.1046 -0.0192
  979PEP     CB35446   4.604   5.140  19.802 -0.0798 -0.0058 -0.1296
  979PEP     CB35447   5.023   5.021  20.055 -0.0005  0.2307 -0.3179
  979PEP     CB35448   5.241   4.986  20.493 -0.0167  0.1197 -0.4351
  979PEP     CB35449   5.615   5.148  20.817  0.1665 -0.1731 -0.1660
  979PEP     CB35450   5.880   5.443  20.567 -0.1072 -0.2197 -0.1614
  979PEP     CB35451   6.047   5.294  20.131 -0.1783 -0.2719 -0.1791
  979PEP     CB35452   6.003   5.319  19.604  0.0926 -0.1886 -0.1649
  979PEP     CB35453   5.949   5.214  19.247 -0.3441 -0.0750  0.3436
  979PEP     CB35454   5.706   4.993  18.976 -0.0018 -0.0847  0.0903
  979PEP     CB35455   5.452   4.605  19.018 -0.3231 -0.7132  0.1560
  979PEP     CB35456   5.247   4.505  19.489 -0.2790 -0.0158 -0.0125
  979PEP     CB35457   4.924   4.497  19.866 -0.0647 -0.2113  0.0284
  979PEP     CB35458   4.848   4.551  20.290 -0.1662  0.0918  0.2328
  979PEP     CB35459   4.442   4.597  20.460 -0.0531  0.0713  0.0886
  979PEP     CB35460   4.085   4.750  20.209 -0.1592 -0.4355 -0.3239
  979PEP     CB35461   4.093   5.116  20.032 -0.3024 -0.3539 -0.0763
  979PEP     CB35462   4.404   5.538  19.948 -0.0556 -0.0124 -0.2326
  979PEP     CB35463   4.545   5.895  20.178 -0.1113  0.1003 -0.1009
  979PEP     CB35464   4.312   6.052  20.536  0.1707 -0.2568  0.1221
  979PEP     CB35465   3.945   6.133  20.647 -0.1823  0.0275  0.2270
  979PEP     CB35466   3.584   5.907  20.681  0.0675 -0.1058 -0.2074
  979PEP     CB35467   3.368   5.599  20.490 -0.1314 -0.2673  0.3998
  979PEP     CB35468   3.239   5.166  20.566  0.2288 -0.0352  0.0260
  979PEP     CB35469   3.267   4.831  20.315  0.0392  0.1515  0.1053
  979PEP     CB35470   3.599   4.685  20.042 -0.3545 -0.1266 -0.3077
  979PEP     CB35471   3.721   4.875  19.702 -0.1689 -0.1286  0.2413
  979PEP     CB35472   3.441   4.995  19.361  0.2408  0.3656  0.2004
  979PEP     CB35473   3.192   5.047  19.083 -0.1479  0.1043 -0.0462
  979PEP     CB35474   2.967   4.707  19.008 -0.0944 -0.2791 -0.0892
  979PEP     CB35475   3.138   4.285  18.958  0.1609  0.1251 -0.2265
  979PEP     CB35476   3.495   4.133  18.745  0.0708  0.0836 -0.1226
  979PEP     CB35477   3.912   4.241  18.858  0.1854 -0.3567  0.0909
  979PEP     CB35478   4.194   4.143  19.218  0.0616  0.1143  0.1869
  979PEP     CB35479   4.562   3.832  19.348 -0.3683 -0.3055 -0.4163
  979PEP     CB35480   4.517   3.455  19.250 -0.1951  0.1067  0.1242
  980PEP     CB35481  14.018  20.765  21.603  0.0093 -0.5091 -0.0297
  980PEP     CB35482  13.942  21.027  21.922  0.1323  0.1893  0.0967
  980PEP     CB35483  13.630  21.254  21.911 -0.0976  0.1755 -0.1941
  980PEP     CB35484  13.255  21.184  21.864  0.1831 -0.2520  0.1638
  980PEP     CB35485  12.899  21.172  22.073 -0.4255 -0.2597  0.0086
  980PEP     CB35486  12.521  21.277  22.248  0.2029  0.0017 -0.1086
  980PEP     CB35487  12.107  21.558  22.268 -0.5176 -0.1276  0.4313
  980PEP     CB35488  11.716  21.476  22.246  0.1667  0.1762 -0.4423
  980PEP     CB35489  11.590  21.195  21.987 -0.0440 -0.2593 -0.3187
  980PEP     CB35490  11.779  20.815  21.862  0.2332 -0.0430 -0.0198
  980PEP     CB35491  12.036  20.471  21.610  0.1275  0.1129  0.0425
  980PEP     CB35492  12.463  20.404  21.451  0.3285  0.2871  0.2009
  980PEP     CB35493  12.810  20.525  21.730 -0.4101  0.3459 -0.1702
  980PEP     CB35494  12.836  21.016  21.598 -0.0057 -0.2177 -0.2485
  980PEP     CB35495  12.561  21.157  21.335  0.3085  0.2280 -0.0537
  980PEP     CB35496  12.278  21.001  21.084  0.1375  0.0181 -0.1021
  980PEP     CB35497  11.876  21.148  20.899 -0.3928  0.1387 -0.2830
  980PEP     CB35498  11.481  21.151  21.076 -0.0444 -0.2357  0.2291
  980PEP     CB35499  11.215  21.260  21.421 -0.0767 -0.3259  0.0016
  980PEP     CB35500  11.250  21.683  21.705  0.1902  0.0571 -0.1552
  980PEP     CB35501  11.596  21.871  21.878  0.3615  0.2855 -0.1181
  980PEP     CB35502  11.791  22.132  22.169  0.0856 -0.3118 -0.1703
  980PEP     CB35503  11.898  22.473  22.477  0.0530 -0.1880  0.0567
  980PEP     CB35504  12.118  22.717  22.794  0.2006  0.1045 -0.2543
  980PEP     CB35505  12.224  23.068  23.100  0.4700 -0.0804 -0.0978
  980PEP     CB35506  11.978  23.350  23.467 -0.1292 -0.0040 -0.2651
  980PEP     CB35507  11.660  23.600  23.756 -0.2910 -0.0535  0.1007
  980PEP     CB35508  11.322  23.893  23.828  0.0511 -0.0931  0.1920
  980PEP     CB35509  10.992  24.149  23.935  0.2107  0.1209 -0.1545
  980PEP     CB35510  11.006  24.541  24.163  0.2872 -0.1068  0.2095
  980PEP     CB35511  11.212  24.832  24.391  0.4636  0.2459  0.1477
  980PEP     CB35512  11.334  25.276  24.569  0.1697  0.3140  0.1148
  980PEP     CB35513  11.340  25.654  24.752 -0.0784 -0.0606  0.1120
  980PEP     CB35514  11.032  25.891  25.011 -0.4352 -0.0564 -0.2519
  980PEP     CB35515  10.571  25.787  25.072  0.0442  0.1097  0.1359
  980PEP     CB35516  10.435  25.472  25.382 -0.1215 -0.3532 -0.3570
  980PEP     CB35517  10.552  25.114  25.740 -0.2664  0.3199 -0.1803
  980PEP     CB35518  10.647  24.688  25.730  0.2783  0.3471 -0.0948
  980PEP     CB35519  10.883  24.251  25.453 -0.2531  0.1015 -0.2610
  980PEP     CB35520  11.291  24.125  25.575  0.0646  0.0030  0.0227
  981PEP     CB35521  16.876  18.229   9.384 -0.0405 -0.0608  0.1099
  981PEP     CB35522  17.056  17.789   9.371  0.2875 -0.1378  0.2366
  981PEP     CB35523  17.494  17.693   9.294 -0.3756 -0.0855 -0.0460
  981PEP     CB35524  17.906  17.901   9.104  0.1744 -0.1291 -0.1481
  981PEP     CB35525  18.049  18.328   8.960  0.1052 -0.0172  0.1081
  981PEP     CB35526  17.829  18.688   8.806 -0.1796 -0.0525 -0.2365
  981PEP     CB35527  17.472  18.934   8.542  0.2616  0.2270 -0.0434
  981PEP     CB35528  17.319  19.328   8.789 -0.2260 -0.3712 -0.3158
  981PEP     CB35529  17.110  19.409   9.193 -0.0495  0.1488 -0.1240
  981PEP     CB35530  17.148  19.286   9.573 -0.1771 -0.2011 -0.0125
  981PEP     CB35531  17.480  18.915   9.629 -0.2933  0.1214 -0.1160
  981PEP     CB35532  17.375  18.468   9.753 -0.1504  0.1536 -0.1527
  981PEP     CB35533  17.433  18.046   9.743 -0.0185  0.1184  0.0368
  981PEP     CB35534  17.352  17.766  10.112  0.2220 -0.1251 -0.3792
  981PEP     CB35535  17.002  17.615  10.340 -0.3375 -0.1276  0.0700
  981PEP     CB35536  16.809  17.748  10.780  0.1743  0.0812  0.3598
  981PEP     CB35537  16.405  17.917  10.858  0.0609 -0.0610 -0.0798
  981PEP     CB35538  16.096  18.213  10.716 -0.2689 -0.0375  0.0779
  981PEP     CB35539  15.846  18.350  10.397  0.1475 -0.0429 -0.1676
  981PEP     CB35540  15.740  18.358   9.973  0.2666 -0.2202 -0.1629
  981PEP     CB35541  15.449  18.440   9.610 -0.1647 -0.4266 -0.0876
  981PEP     CB35542  15.342  18.209   9.292 -0.0020  0.2300  0.2289
  981PEP     CB35543  15.074  18.120   8.927  0.0711 -0.0550 -0.5054
  981PEP     CB35544  15.027  17.924   8.393  0.1855 -0.0166 -0.2121
  981PEP     CB35545  15.088  17.547   8.248 -0.1273 -0.0895 -0.2588
  981PEP     CB35546  15.253  17.229   8.552 -0.4325 -0.0081 -0.4415
  981PEP     CB35547  15.039  17.281   8.967 -0.1103  0.3865 -0.2562
  981PEP     CB35548  14.954  17.712   9.238 -0.0649 -0.0529 -0.1104
  981PEP     CB35549  14.592  18.038   9.107  0.0361  0.0273 -0.0112
  981PEP     CB35550  14.512  18.434   8.817  0.2190 -0.2756 -0.2611
  981PEP     CB35551  14.424  18.811   8.921  0.1817  0.1212 -0.0479
  981PEP     CB35552  14.332  19.204   9.022  0.4006  0.0126 -0.3029
  981PEP     CB35553  13.967  19.450   9.142  0.0211 -0.2352  0.0152
  981PEP     CB35554  13.670  19.344   9.535 -0.2445 -0.2481 -0.0379
  981PEP     CB35555  13.394  19.086   9.778  0.1160  0.2107 -0.3665
  981PEP     CB35556  13.168  19.046  10.108 -0.3041  0.2367  0.1234
  981PEP     CB35557  12.909  18.714  10.218  0.0240  0.3931  0.4023
  981PEP     CB35558  12.825  18.370  10.335 -0.2828  0.1386  0.0248
  981PEP     CB35559  12.477  18.135  10.360  0.3017  0.3162  0.0086
  981PEP     CB35560  12.038  18.215  10.416 -0.1007  0.0437  0.4559
  982PEP     CB35561   8.726  11.433  17.055 -0.0148  0.3119 -0.0080
  982PEP     CB35562   8.954  11.751  16.906 -0.0253 -0.4514 -0.2190
  982PEP     CB35563   9.227  12.020  17.082  0.0982 -0.1964 -0.2814
  982PEP     CB35564   9.444  11.910  17.492  0.0548 -0.1942 -0.1785
  982PEP     CB35565   9.423  11.918  17.909  0.2424 -0.0052 -0.0383
  982PEP     CB35566   9.242  11.692  18.255  0.0552 -0.2876 -0.5737
  982PEP     CB35567   8.995  11.614  18.532  0.1649  0.0094  0.2628
  982PEP     CB35568   8.624  11.607  18.771 -0.2292  0.4032 -0.3014
  982PEP     CB35569   8.166  11.581  18.841  0.0117 -0.2387  0.2969
  982PEP     CB35570   7.759  11.506  19.086 -0.2730  0.2037  0.1419
  982PEP     CB35571   7.399  11.296  19.225  0.3090 -0.2186  0.2454
  982PEP     CB35572   7.151  11.211  19.624  0.1416  0.0461  0.1800
  982PEP     CB35573   7.107  11.426  20.090  0.1706 -0.0485  0.2187
  982PEP     CB35574   7.423  11.365  20.415 -0.3031 -0.2929 -0.0340
  982PEP     CB35575   7.886  11.344  20.527 -0.0599 -0.3120  0.1005
  982PEP     CB35576   8.345  11.291  20.444 -0.5253 -0.1580 -0.1448
  982PEP     CB35577   8.780  11.364  20.458  0.0747 -0.0241 -0.0041
  982PEP     CB35578   9.062  11.642  20.524  0.3538 -0.2537 -0.1266
  982PEP     CB35579   9.568  11.771  20.578  0.2478  0.4488  0.1217
  982PEP     CB35580   9.989  11.814  20.676  0.3141  0.0777 -0.0819
  982PEP     CB35581  10.314  12.108  20.615  0.5541  0.1001  0.0564
  982PEP     CB35582  10.339  12.246  20.290  0.0888 -0.2047  0.0176
  982PEP     CB35583  10.127  12.588  20.142  0.1678 -0.0838 -0.0633
  982PEP     CB35584  10.014  12.960  20.277  0.3491  0.1297  0.2263
  982PEP     CB35585   9.802  13.382  20.336  0.2748  0.0220 -0.1217
  982PEP     CB35586   9.437  13.489  20.214  0.2459  0.0628 -0.1600
  982PEP     CB35587   9.116  13.119  20.146  0.3891 -0.2185 -0.1073
  982PEP     CB35588   9.133  12.611  20.261  0.1012  0.4378 -0.0793
  982PEP     CB35589   9.260  12.188  20.159  0.0433  0.1341  0.0636
  982PEP     CB35590   8.999  11.914  19.851 -0.2526  0.1475 -0.3673
  982PEP     CB35591   8.912  11.918  19.522  0.2128 -0.1542 -0.0218
  982PEP     CB35592   9.036  12.028  19.069  0.1056 -0.0504 -0.1590
  982PEP     CB35593   9.060  12.375  18.785  0.2028 -0.0315 -0.0999
  982PEP     CB35594   9.279  12.702  18.784  0.1091 -0.1629  0.0921
  982PEP     CB35595   9.435  13.099  18.779  0.3845 -0.3169  0.3888
  982PEP     CB35596   9.481  13.582  18.728 -0.3215  0.2453 -0.1028
  982PEP     CB35597   9.778  13.911  18.824 -0.0810  0.4000  0.0276
  982PEP     CB35598   9.883  14.360  18.984 -0.0925  0.3750  0.2631
  982PEP     CB35599  10.045  14.443  19.415 -0.4323 -0.2408  0.0631
  982PEP     CB35600  10.361  14.599  19.713 -0.2204 -0.0573  0.4989
  983PEP     CB35601  17.345  19.263  12.950 -0.2353 -0.2455  0.2924
  983PEP     CB35602  17.484  19.137  12.483 -0.2353 -0.1032  0.0066
  983PEP     CB35603  17.855  19.253  12.180 -0.1027  0.1942  0.2761
  983PEP     CB35604  17.752  19.441  11.658  0.2647 -0.0536 -0.4704
  983PEP     CB35605  17.402  19.553  11.393 -0.3773 -0.4924  0.1311
  983PEP     CB35606  16.962  19.718  11.385  0.2034 -0.2691 -0.1124
  983PEP     CB35607  16.517  19.796  11.510 -0.1502  0.0051  0.1365
  983PEP     CB35608  16.186  19.865  11.894 -0.2985  0.4546 -0.1874
  983PEP     CB35609  15.924  20.174  12.159 -0.0502  0.0481  0.0890
  983PEP     CB35610  15.839  20.440  12.433  0.0280  0.0731 -0.0565
  983PEP     CB35611  15.530  20.771  12.618  0.2375  0.1294 -0.3793
  983PEP     CB35612  15.079  20.833  12.697 -0.2006  0.2244 -0.3363
  983PEP     CB35613  14.820  20.469  12.562 -0.0502  0.2371  0.0270
  983PEP     CB35614  14.938  20.161  12.214 -0.1550 -0.2807 -0.1475
  983PEP     CB35615  14.981  20.276  11.805 -0.0940 -0.1115 -0.2498
  983PEP     CB35616  14.931  20.778  11.581 -0.1050 -0.1631 -0.0854
  983PEP     CB35617  14.616  21.025  11.866  0.1392 -0.1448  0.1879
  983PEP     CB35618  14.329  20.979  12.169 -0.0976  0.1867  0.0962
  983PEP     CB35619  13.858  20.943  12.226  0.2884 -0.1382  0.1314
  983PEP     CB35620  13.474  21.124  12.120 -0.0586  0.2149  0.2464
  983PEP     CB35621  13.190  21.492  12.181 -0.2447 -0.2231 -0.2167
  983PEP     CB35622  13.019  21.913  12.325 -0.0827  0.0467 -0.0556
  983PEP     CB35623  12.793  22.160  12.711  0.2237  0.2030  0.3893
  983PEP     CB35624  12.787  22.636  12.922 -0.0330 -0.1622  0.1263
  983PEP     CB35625  12.578  22.972  12.651 -0.0634 -0.0940 -0.2803
  983PEP     CB35626  12.712  23.099  12.251  0.3760  0.1921  0.0088
  983PEP     CB35627  13.039  23.507  12.304  0.0434 -0.0102 -0.0518
  983PEP     CB35628  13.266  23.637  12.536 -0.1039 -0.1234 -0.1915
  983PEP     CB35629  13.195  23.662  12.973 -0.0649  0.0966  0.0547
  983PEP     CB35630  13.087  23.531  13.384  0.0027 -0.2578  0.4515
  983PEP     CB35631  13.079  23.444  13.752  0.0380  0.2548 -0.1436
  983PEP     CB35632  13.338  23.646  14.132 -0.0566  0.0485 -0.2853
  983PEP     CB35633  13.730  23.738  14.320  0.1009 -0.2057 -0.1739
  983PEP     CB35634  13.952  23.952  14.516  0.1008  0.2249 -0.2130
  983PEP     CB35635  14.295  24.170  14.626  0.1441 -0.3014  0.2799
  983PEP     CB35636  14.509  24.546  14.505  0.1203 -0.1802  0.0338
  983PEP     CB35637  14.631  24.899  14.600 -0.3128  0.1826  0.2874
  983PEP     CB35638  14.757  25.369  14.887 -0.3763  0.1816 -0.0921
  983PEP     CB35639  14.968  25.504  15.284 -0.3827  0.0205  0.1857
  983PEP     CB35640  14.884  25.488  15.732  0.1480 -0.4511  0.1719
  984PEP     CB35641  12.040   4.789  17.219 -0.0953  0.1379  0.1097
  984PEP     CB35642  11.762   5.153  17.286 -0.0492  0.0349 -0.0470
  984PEP     CB35643  11.507   5.522  17.282 -0.0120 -0.2821 -0.1865
  984PEP     CB35644  11.174   5.667  17.485 -0.2480  0.5033 -0.0158
  984PEP     CB35645  11.152   5.860  17.892 -0.2918 -0.1027  0.4433
  984PEP     CB35646  11.549   6.015  18.066  0.4244 -0.4066 -0.0686
  984PEP     CB35647  11.820   6.324  17.933 -0.3711 -0.1076 -0.0530
  984PEP     CB35648  12.124   6.733  17.804  0.1599 -0.0439 -0.0887
  984PEP     CB35649  12.387   7.051  17.756 -0.0198  0.2068 -0.0067
  984PEP     CB35650  12.749   7.079  17.932  0.2464  0.0193  0.4284
  984PEP     CB35651  13.196   7.227  18.035  0.0233  0.2741  0.2303
  984PEP     CB35652  13.237   7.720  17.926 -0.1965  0.1808  0.1156
  984PEP     CB35653  13.531   8.146  17.852 -0.3641 -0.0247  0.0903
  984PEP     CB35654  13.721   8.529  17.772 -0.2085 -0.1663  0.0654
  984PEP     CB35655  13.722   8.916  17.815  0.2058 -0.1727 -0.1888
  984PEP     CB35656  13.955   9.295  18.002  0.0898  0.1410  0.2990
  984PEP     CB35657  14.456   9.512  18.022  0.0235 -0.4036  0.1339
  984PEP     CB35658  14.785   9.721  17.883 -0.1069 -0.0125  0.4999
  984PEP     CB35659  15.086   9.989  17.961  0.4418 -0.3585  0.1117
  984PEP     CB35660  15.401  10.251  18.090  0.0365  0.1066 -0.1357
  984PEP     CB35661  15.429  10.622  18.379 -0.1853 -0.1795  0.2461
  984PEP     CB35662  15.272  10.815  18.716  0.2592 -0.1699 -0.0636
  984PEP     CB35663  14.846  10.688  18.898 -0.3534  0.5188  0.4312
  984PEP     CB35664  14.348  10.879  18.818  0.3212  0.2571  0.0388
  984PEP     CB35665  13.928  10.950  18.679 -0.3260 -0.2866  0.1173
  984PEP     CB35666  13.529  10.775  18.692  0.2520  0.0477  0.2011
  984PEP     CB35667  13.225  10.667  18.426 -0.0366  0.0088  0.0117
  984PEP     CB35668  12.875  10.517  18.226  0.1327  0.1209 -0.3142
  984PEP     CB35669  12.750  10.673  17.821  0.4198  0.3508  0.2711
  984PEP     CB35670  12.938  10.614  17.400  0.0940 -0.1436  0.0860
  984PEP     CB35671  13.371  10.731  17.217  0.0601 -0.2655 -0.0974
  984PEP     CB35672  13.783  10.554  17.046  0.2112 -0.2328 -0.4207
  984PEP     CB35673  14.019  10.608  16.703  0.0948  0.2639 -0.1892
  984PEP     CB35674  14.129  10.471  16.244 -0.0992 -0.0522 -0.0586
  984PEP     CB35675  14.002  10.081  15.958  0.2168 -0.2681 -0.1311
  984PEP     CB35676  14.109   9.722  15.783 -0.3714 -0.2485 -0.3908
  984PEP     CB35677  14.200   9.262  15.694 -0.0822 -0.0728  0.0604
  984PEP     CB35678  14.135   8.759  15.700  0.0217  0.2587  0.0102
  984PEP     CB35679  13.954   8.382  15.366  0.1131 -0.3167 -0.1142
  984PEP     CB35680  13.864   7.965  15.261  0.2526  0.6527 -0.0637
  985PEP     CB35681   2.391   6.771  20.026  0.2686  0.0007 -0.2905
  985PEP     CB35682   2.474   6.792  19.561  0.2247  0.1157  0.1745
  985PEP     CB35683   2.606   6.646  19.235  0.0761 -0.2226 -0.0600
  985PEP     CB35684   2.677   6.790  18.770  0.1724  0.2551 -0.1088
  985PEP     CB35685   2.928   7.121  18.589 -0.2082 -0.3805 -0.1291
  985PEP     CB35686   3.043   7.428  18.832 -0.0881 -0.1421  0.1051
  985PEP     CB35687   3.082   7.490  19.255 -0.1259  0.0245  0.3135
  985PEP     CB35688   2.808   7.520  19.629 -0.0468  0.4064  0.0573
  985PEP     CB35689   2.615   7.227  19.952  0.0643  0.1596 -0.1801
  985PEP     CB35690   2.598   7.144  20.340  0.0953 -0.0496 -0.2144
  985PEP     CB35691   2.543   6.871  20.617  0.3755  0.0280  0.1270
  985PEP     CB35692   2.212   6.560  20.732  0.0802 -0.2481  0.1729
  985PEP     CB35693   1.871   6.562  20.458 -0.0120 -0.1131  0.3826
  985PEP     CB35694   1.932   6.539  20.008  0.1733  0.2355 -0.1956
  985PEP     CB35695   2.201   6.372  19.721  0.0951 -0.1207  0.1488
  985PEP     CB35696   2.453   6.227  19.380  0.1048  0.0253  0.1799
  985PEP     CB35697   2.366   6.400  18.934  0.3199  0.0071  0.1492
  985PEP     CB35698   1.949   6.523  18.862 -0.3565 -0.0218 -0.0289
  985PEP     CB35699   1.632   6.873  19.031  0.0747 -0.1245 -0.1888
  985PEP     CB35700   1.418   7.122  19.161  0.1676 -0.1182  0.0012
  985PEP     CB35701   1.402   7.214  19.615 -0.0431 -0.0301 -0.2913
  985PEP     CB35702   1.441   6.877  19.829  0.4962 -0.1066 -0.0309
  985PEP     CB35703   1.193   6.450  19.955 -0.1461 -0.0456 -0.5358
  985PEP     CB35704   1.266   6.019  19.936  0.1237 -0.0527  0.5069
  985PEP     CB35705   1.309   5.586  19.919 -0.3794 -0.0397 -0.9209
  985PEP     CB35706   1.192   5.229  19.923  0.1211 -0.2676  0.0035
  985PEP     CB35707   1.037   4.853  20.086  0.2610 -0.1464 -0.0719
  985PEP     CB35708   0.562   4.616  20.190  0.1245  0.0235 -0.0591
  985PEP     CB35709   0.176   4.516  20.016  0.0390 -0.0357  0.2069
  985PEP     CB35710   0.005   4.180  19.801 -0.2696 -0.2314  0.0336
  985PEP     CB35711  -0.044   3.743  19.691 -0.0484 -0.0165 -0.1352
  985PEP     CB35712  -0.317   3.351  19.773 -0.1139  0.0910  0.0952
  985PEP     CB35713  -0.651   3.045  19.841  0.0975  0.2450  0.0526
  985PEP     CB35714  -0.799   2.626  19.863 -0.0835  0.1206 -0.1149
  985PEP     CB35715  -0.700   2.166  19.986 -0.4227  0.0757 -0.3168
  985PEP     CB35716  -0.585   2.067  20.352 -0.0648 -0.1437 -0.1730
  985PEP     CB35717  -0.339   2.222  20.693  0.1795 -0.1664 -0.2071
  985PEP     CB35718  -0.251   2.740  20.749  0.3289  0.0351 -0.2848
  985PEP     CB35719  -0.305   3.017  20.416  0.1221 -0.2397  0.0747
  985PEP     CB35720  -0.184   3.377  20.236 -0.1890 -0.1511 -0.3981
  986PEP     CB35721  14.163   0.949   1.764  0.0915 -0.2245  0.1730
  986PEP     CB35722  13.790   1.109   1.773 -0.0519 -0.0893  0.0280
  986PEP     CB35723  13.367   1.118   1.949 -0.0677 -0.0133 -0.1598
  986PEP     CB35724  12.906   1.179   2.150 -0.2172  0.0647 -0.1489
  986PEP     CB35725  12.581   0.992   2.357  0.0001  0.0822 -0.1001
  986PEP     CB35726  12.246   0.834   2.460  0.0341  0.0442  0.0672
  986PEP     CB35727  11.802   0.776   2.574 -0.1357 -0.0232 -0.0285
  986PEP     CB35728  11.574   0.690   2.882 -0.4607  0.3147  0.0623
  986PEP     CB35729  11.531   0.633   3.272 -0.1664  0.1906  0.0719
  986PEP     CB35730  11.233   0.482   3.647 -0.2130 -0.1276 -0.1329
  986PEP     CB35731  10.975   0.216   3.979  0.3239 -0.3450  0.0058
  986PEP     CB35732  10.689   0.370   4.280 -0.3799 -0.1626  0.0432
  986PEP     CB35733  10.348   0.565   4.447 -0.2071 -0.3391 -0.2428
  986PEP     CB35734  10.028   0.895   4.469 -0.2164 -0.1253 -0.0117
  986PEP     CB35735   9.672   1.095   4.364 -0.0939 -0.2201 -0.6373
  986PEP     CB35736   9.320   1.403   4.447 -0.3237  0.2743 -0.0183
  986PEP     CB35737   9.356   1.771   4.642  0.0263 -0.2049  0.1324
  986PEP     CB35738   9.243   2.273   4.722  0.0923  0.1106 -0.1978
  986PEP     CB35739   8.915   2.478   4.420  0.0542  0.1315  0.3185
  986PEP     CB35740   8.583   2.245   4.267 -0.0282  0.0196  0.4463
  986PEP     CB35741   8.255   2.192   4.118 -0.0380  0.0235  0.0073
  986PEP     CB35742   7.874   2.230   3.844  0.2417 -0.0173 -0.6131
  986PEP     CB35743   7.701   2.038   3.537 -0.0110  0.0021 -0.1928
  986PEP     CB35744   7.789   2.110   3.092 -0.2763  0.1691 -0.2686
  986PEP     CB35745   7.814   2.439   2.749 -0.2062 -0.2801 -0.0903
  986PEP     CB35746   7.991   2.887   2.680  0.2014  0.2084  0.0190
  986PEP     CB35747   7.976   3.264   2.476  0.0984 -0.3518  0.0573
  986PEP     CB35748   8.014   3.683   2.498  0.2421 -0.0654  0.0409
  986PEP     CB35749   7.844   4.106   2.593  0.2227  0.1868 -0.2705
  986PEP     CB35750   7.456   4.420   2.537 -0.2158 -0.5489 -0.1605
  986PEP     CB35751   7.274   4.685   2.735  0.0095 -0.0084 -0.0229
  986PEP     CB35752   7.201   4.808   3.106 -0.2510 -0.3093  0.1790
  986PEP     CB35753   7.237   4.499   3.469  0.0575 -0.0154 -0.2278
  986PEP     CB35754   7.462   4.054   3.486 -0.0030  0.1759  0.0005
  986PEP     CB35755   7.719   3.793   3.265 -0.3302  0.2833  0.1127
  986PEP     CB35756   8.057   3.894   3.017  0.2969 -0.2351  0.1754
  986PEP     CB35757   8.232   4.158   2.898  0.2887  0.1621 -0.0349
  986PEP     CB35758   8.616   4.440   2.921  0.0780 -0.3094  0.5914
  986PEP     CB35759   8.975   4.356   2.972 -0.2814 -0.2510  0.0584
  986PEP     CB35760   9.241   3.963   2.993  0.0917  0.1525  0.4880
  987PEP     CB35761  11.902  10.533  17.493  0.3844  0.1494 -0.1172
  987PEP     CB35762  11.749  10.190  17.359  0.2086  0.2050  0.2076
  987PEP     CB35763  11.681   9.710  17.519  0.1566 -0.0303  0.3589
  987PEP     CB35764  11.866   9.339  17.760  0.3644  0.0791 -0.2099
  987PEP     CB35765  12.154   9.327  17.921  0.1898  0.0199  0.4270
  987PEP     CB35766  12.136   9.465  18.362  0.1922 -0.3206  0.3216
  987PEP     CB35767  11.797   9.524  18.606  0.2468  0.2295 -0.2902
  987PEP     CB35768  11.416   9.671  18.518  0.2867  0.0961 -0.1464
  987PEP     CB35769  10.957   9.524  18.474  0.4508  0.1289 -0.0416
  987PEP     CB35770  10.835   9.075  18.614 -0.1614 -0.0406 -0.0048
  987PEP     CB35771  11.016   8.638  18.492 -0.0889  0.5544 -0.1731
  987PEP     CB35772  11.434   8.609  18.295  0.1047 -0.1570  0.0660
  987PEP     CB35773  11.731   8.917  18.130 -0.1371 -0.1128  0.3660
  987PEP     CB35774  11.700   9.390  18.198  0.1732 -0.0018 -0.0448
  987PEP     CB35775  11.436   9.822  18.022  0.0459 -0.0489  0.2405
  987PEP     CB35776  11.493  10.214  17.919  0.1420 -0.2896  0.2033
  987PEP     CB35777  11.487  10.588  17.645 -0.2905  0.0338  0.1548
  987PEP     CB35778  11.563  10.807  17.295 -0.2933 -0.2664 -0.0280
  987PEP     CB35779  11.425  11.107  17.040 -0.1823  0.2824 -0.0178
  987PEP     CB35780  11.092  11.180  16.747  0.0362 -0.2062  0.1177
  987PEP     CB35781  10.699  11.220  16.501 -0.2729 -0.2758 -0.0146
  987PEP     CB35782  10.440  11.527  16.348  0.0198 -0.0159 -0.0541
  987PEP     CB35783  10.103  11.704  16.011 -0.0943  0.2441 -0.1751
  987PEP     CB35784   9.655  11.976  15.945 -0.0275 -0.0330 -0.2320
  987PEP     CB35785   9.464  12.466  16.059  0.2162 -0.1773 -0.0725
  987PEP     CB35786   9.311  12.654  16.423 -0.1485 -0.2134 -0.0455
  987PEP     CB35787   9.392  12.872  16.839 -0.0565 -0.2381 -0.0368
  987PEP     CB35788   9.628  12.886  17.259 -0.2204  0.3326 -0.1316
  987PEP     CB35789   9.447  12.902  17.713 -0.2730  0.0853  0.2260
  987PEP     CB35790   9.213  13.180  17.793  0.1828 -0.1569  0.0192
  987PEP     CB35791   9.404  13.460  18.085  0.2734 -0.4140  0.1632
  987PEP     CB35792   9.753  13.699  18.307  0.1749 -0.3131  0.3935
  987PEP     CB35793   9.813  14.225  18.469 -0.2850  0.1857  0.0269
  987PEP     CB35794   9.906  14.652  18.404 -0.1323  0.4733 -0.0183
  987PEP     CB35795  10.149  14.896  18.112 -0.4844  0.3033  0.0934
  987PEP     CB35796  10.297  15.118  17.780 -0.0198 -0.3706 -0.2469
  987PEP     CB35797  10.331  14.854  17.375 -0.1604 -0.0593  0.0399
  987PEP     CB35798  10.477  14.383  17.486  0.2493 -0.2858  0.0379
  987PEP     CB35799  10.574  14.223  17.801 -0.1522  0.5214 -0.2099
  987PEP     CB35800  10.678  14.077  18.225  0.4765  0.1657  0.1876
  988PEP     CB35801  20.783  19.438   6.156  0.1718  0.1698  0.1402
  988PEP     CB35802  20.768  19.754   5.888  0.1658 -0.0375 -0.0740
  988PEP     CB35803  20.775  20.089   5.602  0.2025 -0.0983  0.2693
  988PEP     CB35804  20.661  20.483   5.599 -0.3064 -0.1132  0.1356
  988PEP     CB35805  20.474  20.924   5.612 -0.0835 -0.1690 -0.0615
  988PEP     CB35806  20.412  21.368   5.856 -0.3451  0.0957  0.1642
  988PEP     CB35807  20.486  21.775   5.806 -0.1152 -0.1299 -0.3655
  988PEP     CB35808  20.693  22.076   5.831 -0.0138 -0.1268 -0.3485
  988PEP     CB35809  20.827  22.349   5.567 -0.3785  0.2324 -0.0915
  988PEP     CB35810  21.076  22.514   5.371  0.1162 -0.2515 -0.0867
  988PEP     CB35811  21.352  22.554   5.097  0.1205  0.6072 -0.5462
  988PEP     CB35812  21.758  22.507   4.985 -0.0495 -0.1585  0.0503
  988PEP     CB35813  22.119  22.446   5.337 -0.0699 -0.2485  0.0501
  988PEP     CB35814  22.440  22.637   5.661  0.4016 -0.1898  0.2210
  988PEP     CB35815  22.744  22.916   5.764 -0.0176  0.3178 -0.1085
  988PEP     CB35816  22.915  23.002   6.107 -0.2580 -0.3076  0.4256
  988PEP     CB35817  22.993  23.094   6.523  0.0864  0.0035  0.0566
  988PEP     CB35818  23.145  23.038   6.882 -0.2089  0.2539  0.3462
  988PEP     CB35819  23.380  22.717   7.162 -0.2915  0.1083 -0.1944
  988PEP     CB35820  23.831  22.627   7.115 -0.4281  0.0275 -0.0206
  988PEP     CB35821  24.017  22.482   6.752 -0.1851  0.0453 -0.0384
  988PEP     CB35822  23.786  22.199   6.439 -0.0737  0.0533  0.0280
  988PEP     CB35823  23.629  22.082   5.992  0.0598  0.1678  0.0513
  988PEP     CB35824  23.334  21.995   5.678 -0.0369 -0.0456 -0.3703
  988PEP     CB35825  23.029  21.697   5.678 -0.0451  0.0949  0.1675
  988PEP     CB35826  22.681  21.719   6.070 -0.1260  0.2437 -0.0803
  988PEP     CB35827  22.736  21.950   6.436 -0.2371  0.0100 -0.1285
  988PEP     CB35828  23.140  22.019   6.714 -0.2112  0.2850 -0.4852
  988PEP     CB35829  23.528  21.799   6.734 -0.1235  0.1434  0.2584
  988PEP     CB35830  23.803  21.521   6.626  0.3050 -0.0592 -0.4842
  988PEP     CB35831  24.077  21.384   6.267 -0.2910  0.0826  0.6386
  988PEP     CB35832  24.511  21.178   6.112  0.0050  0.0482 -0.0630
  988PEP     CB35833  24.914  21.138   5.913 -0.4167  0.0768  0.1411
  988PEP     CB35834  25.340  20.998   5.798 -0.1550  0.1356  0.1445
  988PEP     CB35835  25.678  20.742   5.656  0.3636 -0.0796  0.0589
  988PEP     CB35836  26.108  20.692   5.782  0.0159 -0.0648 -0.4485
  988PEP     CB35837  26.248  20.642   6.225 -0.2134 -0.4105 -0.0589
  988PEP     CB35838  26.161  20.385   6.544  0.1912  0.0515 -0.0914
  988PEP     CB35839  25.743  20.137   6.696 -0.2881 -0.2945  0.0913
  988PEP     CB35840  25.672  19.640   6.687  0.1413  0.1537  0.2324
  989PEP     CB35841  16.379  10.544  22.024 -0.1686 -0.1898  0.2110
  989PEP     CB35842  16.046  10.291  21.940  0.1460 -0.3062  0.0978
  989PEP     CB35843  15.768  10.008  22.068 -0.0329  0.1262 -0.0740
  989PEP     CB35844  15.350   9.975  22.066  0.4953  0.3043 -0.1902
  989PEP     CB35845  15.122   9.856  21.706  0.2628  0.0426  0.2307
  989PEP     CB35846  15.066   9.432  21.516  0.0772  0.1395  0.0796
  989PEP     CB35847  15.369   9.003  21.573 -0.1399 -0.3941 -0.1408
  989PEP     CB35848  15.713   8.837  21.446  0.0368 -0.4310 -0.1947
  989PEP     CB35849  16.204   8.706  21.602 -0.2101  0.2428  0.3289
  989PEP     CB35850  16.298   8.789  22.087 -0.3896  0.0642 -0.1319
  989PEP     CB35851  15.978   9.016  22.410 -0.0566  0.0168 -0.2369
  989PEP     CB35852  15.963   9.300  22.824 -0.1744 -0.1588  0.0102
  989PEP     CB35853  15.963   9.326  23.249 -0.4494  0.4862 -0.0605
  989PEP     CB35854  15.653   9.308  23.598 -0.0840  0.1004  0.0132
  989PEP     CB35855  15.280   9.205  23.877 -0.0981 -0.3984  0.1228
  989PEP     CB35856  14.730   9.075  23.792  0.5257  0.1224  0.0362
  989PEP     CB35857  14.251   9.076  23.748  0.4913 -0.0164 -0.0082
  989PEP     CB35858  13.853   8.966  24.006 -0.0855  0.1106 -0.1066
  989PEP     CB35859  13.543   9.134  24.145  0.0627 -0.2771  0.0842
  989PEP     CB35860  13.074   9.285  24.150  0.1997 -0.2088  0.4309
  989PEP     CB35861  12.626   9.132  24.023 -0.2542 -0.0733 -0.3526
  989PEP     CB35862  12.196   8.969  23.989 -0.2726 -0.3226 -0.4292
  989PEP     CB35863  12.097   8.636  23.918  0.1520 -0.1320 -0.3781
  989PEP     CB35864  11.867   8.452  23.656 -0.0344 -0.0528  0.1409
  989PEP     CB35865  11.446   8.342  23.569 -0.0248  0.4819 -0.1956
  989PEP     CB35866  10.988   8.460  23.469  0.2021  0.0620 -0.3000
  989PEP     CB35867  10.707   8.708  23.799  0.1834 -0.1303 -0.0390
  989PEP     CB35868  10.913   8.780  24.239  0.1826 -0.1104 -0.1451
  989PEP     CB35869  11.288   9.116  24.362 -0.0697  0.2870  0.0615
  989PEP     CB35870  11.377   9.470  24.099  0.0227 -0.2311 -0.2960
  989PEP     CB35871  11.501   9.959  24.217  0.3491 -0.0748  0.1047
  989PEP     CB35872  11.791  10.317  24.175 -0.4100 -0.1233 -0.2625
  989PEP     CB35873  12.095  10.392  24.423  0.4083 -0.1970 -0.1294
  989PEP     CB35874  12.352  10.286  24.851 -0.2429 -0.2838  0.3156
  989PEP     CB35875  12.420   9.981  25.188 -0.2856  0.0146  0.3048
  989PEP     CB35876  12.861   9.911  25.339 -0.0399 -0.1314 -0.4176
  989PEP     CB35877  13.324   9.969  25.197  0.0997  0.3805  0.1970
  989PEP     CB35878  13.444  10.199  24.865  0.1456 -0.0727 -0.6205
  989PEP     CB35879  13.235  10.350  24.573 -0.0119 -0.1757 -0.0630
  989PEP     CB35880  12.765  10.325  24.376 -0.0949  0.1028 -0.0696
  990PEP     CB35881  15.219  13.892   1.332  0.2657  0.6733 -0.2460
  990PEP     CB35882  15.472  13.678   1.153 -0.1805 -0.2478 -0.0204
  990PEP     CB35883  15.842  13.491   0.757 -0.4248 -0.1013  0.1740
  990PEP     CB35884  15.950  13.197   0.490  0.4133  0.4228  0.4116
  990PEP     CB35885  15.798  12.924   0.201 -0.0030  0.1070  0.1068
  990PEP     CB35886  15.662  12.844  -0.286  0.1314  0.0766 -0.6694
  990PEP     CB35887  15.324  12.989  -0.454 -0.4896 -0.1325  0.0678
  990PEP     CB35888  15.128  13.379  -0.381 -0.5709 -0.1445 -0.2460
  990PEP     CB35889  14.882  13.417   0.064 -0.0499 -0.0081 -0.1830
  990PEP     CB35890  14.422  13.281   0.123 -0.2927  0.2729  0.2677
  990PEP     CB35891  14.177  13.202  -0.306  0.0639  0.1163  0.2334
  990PEP     CB35892  14.235  13.355  -0.668  0.0063  0.1778 -0.0775
  990PEP     CB35893  14.282  13.709  -0.979  0.0986  0.0190 -0.2561
  990PEP     CB35894  14.452  14.122  -1.165  0.0268  0.2977  0.0875
  990PEP     CB35895  14.690  14.346  -1.515  0.1549 -0.3802  0.3612
  990PEP     CB35896  14.541  14.635  -1.869 -0.4227 -0.1256  0.0512
  990PEP     CB35897  14.556  15.074  -2.110 -0.0868  0.1969 -0.1130
  990PEP     CB35898  14.376  15.217  -2.455  0.3181  0.3235 -0.4894
  990PEP     CB35899  14.310  15.171  -2.866 -0.2249  0.2998 -0.6418
  990PEP     CB35900  14.546  15.288  -3.285 -0.0965  0.0984 -0.0140
  990PEP     CB35901  14.992  15.370  -3.378 -0.0012 -0.2414  0.3825
  990PEP     CB35902  15.396  15.502  -3.508  0.2265 -0.2483 -0.0443
  990PEP     CB35903  15.649  15.733  -3.609  0.0883 -0.1038 -0.2022
  990PEP     CB35904  15.765  15.625  -4.000 -0.1600  0.0366  0.0990
  990PEP     CB35905  15.408  15.321  -4.187 -0.2156  0.0959 -0.4426
  990PEP     CB35906  15.128  15.161  -3.863 -0.1740  0.2628  0.2794
  990PEP     CB35907  14.890  14.815  -3.695 -0.0704 -0.0722  0.0045
  990PEP     CB35908  15.019  14.347  -3.774  0.0797 -0.4956 -0.1084
  990PEP     CB35909  15.437  14.144  -3.889 -0.3322  0.1053 -0.3261
  990PEP     CB35910  15.842  14.037  -3.677  0.1997  0.0502 -0.0086
  990PEP     CB35911  16.252  14.110  -3.592  0.0007 -0.0088 -0.1573
  990PEP     CB35912  16.508  14.402  -3.347  0.1336 -0.0295  0.3128
  990PEP     CB35913  16.764  14.725  -3.138 -0.3719  0.0067  0.4153
  990PEP     CB35914  16.908  15.123  -3.080  0.2143 -0.0624  0.1300
  990PEP     CB35915  17.272  15.273  -3.199 -0.4229  0.0198  0.3332
  990PEP     CB35916  17.651  15.001  -3.074 -0.1816 -0.2805  0.0517
  990PEP     CB35917  17.684  14.609  -2.773 -0.1554 -0.1399  0.1080
  990PEP     CB35918  17.550  14.167  -2.759  0.2570 -0.0822  0.1090
  990PEP     CB35919  17.765  13.788  -3.005 -0.3390 -0.1124  0.3529
  990PEP     CB35920  17.894  13.552  -3.380  0.2482 -0.4191  0.0976
  991PEP     CB35921   4.378  10.790   3.827  0.0350  0.1196  0.0115
  991PEP     CB35922   4.166  10.745   3.317  0.2213 -0.1482  0.0044
  991PEP     CB35923   3.723  10.832   3.041  0.3518 -0.3420 -0.0885
  991PEP     CB35924   3.379  11.082   2.748  0.0479 -0.5252  0.0383
  991PEP     CB35925   3.185  11.468   2.727 -0.0084  0.2103 -0.1877
  991PEP     CB35926   3.034  11.871   2.647  0.2113 -0.1487 -0.0311
  991PEP     CB35927   2.699  12.157   2.631 -0.0152 -0.2387  0.2453
  991PEP     CB35928   2.552  12.373   2.905 -0.2298 -0.1925  0.2501
  991PEP     CB35929   2.603  12.645   3.257 -0.0552  0.1887  0.0762
  991PEP     CB35930   2.567  12.781   3.713  0.1790  0.2282 -0.1105
  991PEP     CB35931   2.556  12.889   4.083  0.0469 -0.3641 -0.1233
  991PEP     CB35932   2.482  12.854   4.522 -0.2358  0.0808 -0.0063
  991PEP     CB35933   2.567  12.665   4.915  0.0702 -0.2852  0.0406
  991PEP     CB35934   2.868  12.290   4.981  0.0680  0.4303  0.2316
  991PEP     CB35935   3.087  11.936   4.870  0.0444  0.2375  0.0740
  991PEP     CB35936   3.131  11.421   4.781  0.2380  0.1479  0.2260
  991PEP     CB35937   3.212  11.123   4.476  0.0678 -0.1794  0.2829
  991PEP     CB35938   3.220  10.942   3.974 -0.1442 -0.1857 -0.1401
  991PEP     CB35939   3.386  10.923   3.529  0.0690  0.1018  0.0024
  991PEP     CB35940   3.383  11.300   3.272 -0.4177 -0.2230 -0.2117
  991PEP     CB35941   3.062  11.585   3.157  0.3642 -0.0852 -0.1705
  991PEP     CB35942   2.732  11.842   3.073  0.4410 -0.2912 -0.1058
  991PEP     CB35943   2.535  12.060   3.360  0.0802 -0.1214 -0.0323
  991PEP     CB35944   2.371  12.271   3.639  0.0051 -0.0312 -0.4161
  991PEP     CB35945   2.559  12.358   4.059 -0.4254  0.0352  0.0090
  991PEP     CB35946   2.902  11.969   4.170  0.3309  0.1576 -0.1440
  991PEP     CB35947   2.742  11.669   3.862 -0.1819 -0.1559 -0.5708
  991PEP     CB35948   2.271  11.745   3.730 -0.0306  0.0094  0.3354
  991PEP     CB35949   2.017  11.997   3.883  0.0149 -0.2944 -0.2023
  991PEP     CB35950   2.007  12.323   4.176 -0.2813  0.0119  0.2041
  991PEP     CB35951   2.066  12.633   4.418 -0.2409 -0.0661 -0.0418
  991PEP     CB35952   2.087  12.812   4.843 -0.0815 -0.0512  0.2235
  991PEP     CB35953   2.309  13.089   5.225 -0.0007  0.0270  0.1716
  991PEP     CB35954   2.626  13.359   5.342  0.0744 -0.2785  0.4658
  991PEP     CB35955   3.047  13.338   5.384  0.2171  0.2796  0.1235
  991PEP     CB35956   3.303  13.043   5.330  0.0139 -0.0534 -0.0148
  991PEP     CB35957   3.689  12.834   5.422  0.0196 -0.0508  0.0866
  991PEP     CB35958   4.117  12.796   5.499  0.2600 -0.5208  0.0709
  991PEP     CB35959   4.387  12.522   5.671 -0.1802 -0.0224 -0.1224
  991PEP     CB35960   4.668  12.259   5.815 -0.0661 -0.3652  0.1192
  992PEP     CB35961  18.721   6.631  18.125  0.0206  0.3403  0.0299
  992PEP     CB35962  18.392   6.678  17.840  0.3601  0.1409  0.3497
  992PEP     CB35963  18.378   6.709  17.397  0.3476  0.2296  0.0359
  992PEP     CB35964  18.416   6.462  17.068 -0.4459  0.0795  0.1576
  992PEP     CB35965  18.625   6.305  16.833  0.0659 -0.0548  0.1146
  992PEP     CB35966  18.604   6.025  16.541 -0.0361  0.0772  0.5848
  992PEP     CB35967  18.303   5.922  16.151 -0.1129 -0.4919  0.0919
  992PEP     CB35968  18.166   5.477  15.949  0.3818  0.2079 -0.3799
  992PEP     CB35969  17.925   5.167  16.214 -0.3104 -0.1172 -0.3222
  992PEP     CB35970  17.549   5.010  16.304  0.3175 -0.2913 -0.2171
  992PEP     CB35971  17.265   5.147  16.506 -0.0483 -0.3318  0.1130
  992PEP     CB35972  17.166   5.456  16.774  0.5119  0.0426 -0.0353
  992PEP     CB35973  17.152   5.922  16.752  0.0372  0.2754 -0.6090
  992PEP     CB35974  17.452   6.188  16.465 -0.3178  0.1609 -0.2789
  992PEP     CB35975  17.818   6.040  16.389 -0.1374 -0.0836 -0.1472
  992PEP     CB35976  18.085   5.649  16.510  0.0703  0.0507 -0.0098
  992PEP     CB35977  18.235   5.248  16.721  0.2147  0.1510  0.3234
  992PEP     CB35978  18.580   5.159  16.964  0.4842 -0.3529 -0.3571
  992PEP     CB35979  18.633   4.970  17.375  0.1546  0.1067  0.3509
  992PEP     CB35980  18.769   4.739  17.680  0.2797  0.0443 -0.2925
  992PEP     CB35981  19.124   4.523  17.807  0.2033  0.0402  0.0023
  992PEP     CB35982  19.454   4.446  18.125 -0.2003  0.4126 -0.0707
  992PEP     CB35983  19.796   4.192  18.173 -0.0735 -0.0522  0.0798
  992PEP     CB35984  20.022   4.022  18.527 -0.1932 -0.1967  0.1007
  992PEP     CB35985  19.893   4.059  18.953  0.1525 -0.0971 -0.1356
  992PEP     CB35986  19.567   3.874  19.134 -0.0689 -0.2444  0.0052
  992PEP     CB35987  19.161   3.747  19.105  0.2212  0.0693  0.1570
  992PEP     CB35988  18.850   3.444  18.966 -0.1325  0.2236 -0.3255
  992PEP     CB35989  18.843   2.967  18.944  0.1327 -0.3395 -0.0099
  992PEP     CB35990  19.030   2.598  18.970 -0.2636  0.2122 -0.0759
  992PEP     CB35991  19.436   2.434  18.832 -0.0408  0.2923  0.1727
  992PEP     CB35992  19.614   2.629  18.456 -0.0717 -0.2987 -0.3777
  992PEP     CB35993  19.360   2.885  18.256 -0.1971  0.1903  0.0678
  992PEP     CB35994  19.103   3.114  17.995  0.0146 -0.0318 -0.5308
  992PEP     CB35995  19.023   3.608  18.093 -0.3867  0.0680 -0.4812
  992PEP     CB35996  18.955   3.884  18.481 -0.0529  0.0313  0.0128
  992PEP     CB35997  19.303   4.128  18.794 -0.2355  0.0721 -0.1673
  992PEP     CB35998  19.546   4.456  18.998  0.3141  0.1981 -0.3014
  992PEP     CB35999  19.859   4.595  19.250 -0.0313 -0.1220 -0.0422
  992PEP     CB36000  20.042   4.418  19.540  0.1073  0.2202  0.3411
  993PEP     CB36001   4.425  21.923  14.054  0.1417  0.0773 -0.0999
  993PEP     CB36002   4.833  21.760  14.027 -0.0742  0.2676  0.4023
  993PEP     CB36003   5.012  21.430  14.134 -0.0040 -0.2159  0.1800
  993PEP     CB36004   4.994  20.981  14.167 -0.1759  0.1381 -0.3054
  993PEP     CB36005   5.042  20.574  14.260 -0.1333  0.3149 -0.0372
  993PEP     CB36006   4.963  20.364  14.579 -0.0230 -0.0755  0.1214
  993PEP     CB36007   4.784  20.357  15.048 -0.1708  0.2720  0.3181
  993PEP     CB36008   4.513  20.610  15.346  0.0325 -0.2003  0.0463
  993PEP     CB36009   4.695  20.900  15.613 -0.0266 -0.0878 -0.2337
  993PEP     CB36010   4.951  21.006  15.999 -0.0013  0.1283  0.0024
  993PEP     CB36011   5.275  20.739  16.224 -0.2337  0.2845  0.1773
  993PEP     CB36012   5.301  20.352  16.468  0.7452 -0.0373 -0.3955
  993PEP     CB36013   5.180  20.195  16.881 -0.3567  0.2371 -0.1284
  993PEP     CB36014   5.307  20.246  17.344 -0.4568  0.1659  0.0348
  993PEP     CB36015   5.401  20.334  17.837  0.0019 -0.4683 -0.0045
  993PEP     CB36016   5.266  20.189  18.246  0.4351 -0.0669 -0.4416
  993PEP     CB36017   4.995  19.806  18.427 -0.3500  0.0213 -0.1604
  993PEP     CB36018   5.000  19.400  18.574 -0.1415  0.4156  0.1294
  993PEP     CB36019   5.304  19.154  18.430 -0.1993 -0.4190  0.1819
  993PEP     CB36020   5.678  19.194  18.498 -0.2562 -0.3702 -0.1641
  993PEP     CB36021   5.908  19.334  18.802 -0.1304  0.1451 -0.0426
  993PEP     CB36022   5.716  19.561  19.170  0.1293 -0.1185  0.0190
  993PEP     CB36023   5.375  19.922  19.328  0.0068 -0.3624  0.3322
  993PEP     CB36024   5.164  20.261  19.312  0.1960 -0.1522 -0.1795
  993PEP     CB36025   4.893  20.584  19.591  0.1674  0.0224  0.1380
  993PEP     CB36026   5.008  20.516  20.010 -0.0277 -0.3164  0.1346
  993PEP     CB36027   5.242  20.299  20.295  0.0449  0.0236 -0.1485
  993PEP     CB36028   5.596  20.086  20.326  0.0509  0.0302  0.2921
  993PEP     CB36029   5.915  19.854  20.599  0.1840  0.0568 -0.1639
  993PEP     CB36030   5.997  19.714  21.045  0.0054 -0.1286 -0.1756
  993PEP     CB36031   6.249  19.365  21.231  0.0440  0.0338  0.1866
  993PEP     CB36032   6.497  19.162  21.380  0.0496  0.2226 -0.1164
  993PEP     CB36033   6.582  18.916  21.722  0.5290 -0.3945 -0.0738
  993PEP     CB36034   6.679  18.822  22.142  0.3215 -0.1053 -0.0716
  993PEP     CB36035   6.909  18.515  22.473 -0.1832  0.1277 -0.1640
  993PEP     CB36036   6.933  18.546  22.877  0.3771  0.2202 -0.0998
  993PEP     CB36037   7.010  18.890  23.183  0.0697 -0.3867 -0.2903
  993PEP     CB36038   6.709  19.246  23.186 -0.3409  0.0426  0.0973
  993PEP     CB36039   6.413  19.275  23.024 -0.2457  0.3368 -0.2871
  993PEP     CB36040   5.923  19.326  23.008  0.0318  0.0553 -0.2945
  994PEP     CB36041   3.378  21.355   5.246 -0.0201 -0.0713 -0.3551
  994PEP     CB36042   3.734  21.504   5.164  0.2802 -0.4238 -0.4135
  994PEP     CB36043   4.193  21.635   5.080 -0.2914  0.0927  0.2321
  994PEP     CB36044   4.562  21.606   4.859 -0.0457  0.1565 -0.3295
  994PEP     CB36045   4.959  21.395   4.944 -0.2705  0.1818 -0.0490
  994PEP     CB36046   5.144  21.210   5.237  0.3378 -0.2392  0.1182
  994PEP     CB36047   5.464  21.017   5.500 -0.1697 -0.0084 -0.2190
  994PEP     CB36048   5.438  20.679   5.748 -0.2663  0.0199  0.3108
  994PEP     CB36049   5.741  20.353   5.859 -0.7921 -0.1814 -0.1195
  994PEP     CB36050   6.140  20.379   6.085  0.1055 -0.2627 -0.1196
  994PEP     CB36051   6.358  20.743   6.260 -0.2126  0.1810  0.2440
  994PEP     CB36052   6.427  20.992   6.598 -0.1698  0.0150  0.1788
  994PEP     CB36053   6.217  21.030   6.966  0.0853 -0.2484  0.1608
  994PEP     CB36054   6.097  20.604   7.128 -0.1242  0.0485  0.0968
  994PEP     CB36055   6.110  20.174   7.060 -0.1189  0.1031  0.1765
  994PEP     CB36056   6.077  19.710   7.184 -0.3773  0.2060  0.1939
  994PEP     CB36057   6.243  19.300   7.284 -0.0323 -0.0167  0.4679
  994PEP     CB36058   6.357  19.007   7.420 -0.2560  0.0817  0.1728
  994PEP     CB36059   6.480  18.863   7.819  0.2252 -0.2224 -0.1215
  994PEP     CB36060   6.244  19.037   8.124 -0.2562  0.2149 -0.3476
  994PEP     CB36061   6.332  19.219   8.477 -0.0188  0.0225 -0.0910
  994PEP     CB36062   6.255  19.155   8.861 -0.5467 -0.3923 -0.4668
  994PEP     CB36063   6.235  18.783   9.160  0.2663 -0.1658 -0.0126
  994PEP     CB36064   6.274  18.357   9.406  0.0236  0.5506  0.1446
  994PEP     CB36065   6.476  18.362   9.804 -0.1636  0.1152  0.2381
  994PEP     CB36066   6.891  18.639   9.782  0.0009 -0.0793 -0.4019
  994PEP     CB36067   7.105  18.819   9.481  0.1687 -0.1709  0.3785
  994PEP     CB36068   7.227  18.920   9.046 -0.0594  0.2460  0.5200
  994PEP     CB36069   7.103  19.002   8.635  0.2720  0.0833  0.1462
  994PEP     CB36070   6.998  18.696   8.342 -0.0480 -0.0891  0.0067
  994PEP     CB36071   6.803  18.453   7.986  0.3090 -0.2415 -0.2112
  994PEP     CB36072   6.704  18.473   7.561  0.3127  0.4645  0.3022
  994PEP     CB36073   6.745  18.351   7.113  0.2775  0.2096  0.2048
  994PEP     CB36074   6.590  18.105   6.759 -0.0732 -0.3258  0.1990
  994PEP     CB36075   6.421  17.666   6.685 -0.1768 -0.1613  0.3407
  994PEP     CB36076   6.328  17.154   6.779 -0.1555  0.0779  0.3099
  994PEP     CB36077   6.520  16.809   6.804  0.0378 -0.3006  0.3077
  994PEP     CB36078   6.942  16.624   6.898 -0.2644 -0.4288 -0.0286
  994PEP     CB36079   7.345  16.415   6.825 -0.3277  0.0433 -0.5077
  994PEP     CB36080   7.515  16.094   6.505 -0.5417 -0.1967 -0.0992
  995PEP     CB36081   0.290   4.697   6.951  0.0456 -0.0190  0.2068
  995PEP     CB36082   0.565   5.093   6.990 -0.3633  0.3896  0.3284
  995PEP     CB36083   0.695   5.557   6.928  0.5700 -0.1484  0.0551
  995PEP     CB36084   0.476   5.932   6.948 -0.0278  0.2811 -0.0813
  995PEP     CB36085   0.219   6.226   6.938 -0.3273 -0.1877 -0.3602
  995PEP     CB36086  -0.093   6.504   6.701 -0.0414  0.2096 -0.1364
  995PEP     CB36087  -0.366   6.554   6.427 -0.1181 -0.0013 -0.1238
  995PEP     CB36088  -0.802   6.387   6.492  0.0517  0.1217  0.1038
  995PEP     CB36089  -0.979   6.123   6.889  0.2716 -0.2197 -0.2653
  995PEP     CB36090  -1.261   6.378   7.225 -0.5506 -0.0021  0.2303
  995PEP     CB36091  -1.720   6.349   7.242  0.1689 -0.0426 -0.1112
  995PEP     CB36092  -2.091   6.560   6.952 -0.3028 -0.2174 -0.3698
  995PEP     CB36093  -2.100   6.748   6.460 -0.0082 -0.0302  0.1868
  995PEP     CB36094  -1.941   7.121   6.192  0.1880  0.0894  0.1431
  995PEP     CB36095  -1.712   7.458   6.326  0.1332 -0.2561 -0.1428
  995PEP     CB36096  -1.576   7.627   6.645 -0.1383  0.0304  0.2563
  995PEP     CB36097  -1.470   7.948   6.981 -0.0709 -0.3183  0.0486
  995PEP     CB36098  -1.365   7.968   7.376 -0.0094  0.1286 -0.1359
  995PEP     CB36099  -1.373   8.360   7.547 -0.0649 -0.3226 -0.2576
  995PEP     CB36100  -1.094   8.610   7.545 -0.1233  0.1613  0.1511
  995PEP     CB36101  -0.687   8.617   7.365  0.2429 -0.0828  0.0074
  995PEP     CB36102  -0.537   8.399   6.995 -0.4732  0.2153  0.5787
  995PEP     CB36103  -0.530   8.004   6.848  0.5422 -0.1475  0.4866
  995PEP     CB36104  -0.615   7.579   7.000  0.0182 -0.3348  0.3150
  995PEP     CB36105  -0.688   7.199   7.141 -0.2632 -0.5293  0.2790
  995PEP     CB36106  -0.613   6.766   7.120 -0.0669  0.2239  0.1624
  995PEP     CB36107  -0.554   6.268   7.070  0.1948  0.0001  0.1420
  995PEP     CB36108  -0.654   5.797   7.108  0.0735 -0.2307 -0.2006
  995PEP     CB36109  -0.569   5.337   6.981 -0.0579  0.2215  0.2433
  995PEP     CB36110  -0.293   5.026   6.815 -0.0540 -0.1287  0.0955
  995PEP     CB36111   0.053   5.003   6.595 -0.0764 -0.0280 -0.1998
  995PEP     CB36112   0.184   4.887   6.194  0.0199  0.2166  0.0930
  995PEP     CB36113   0.036   4.713   5.749 -0.1449 -0.1105  0.0277
  995PEP     CB36114  -0.177   4.772   5.324 -0.0257 -0.1565  0.0248
  995PEP     CB36115  -0.043   4.827   4.797 -0.2993  0.0911  0.0614
  995PEP     CB36116   0.362   4.785   4.469  0.0624  0.2594 -0.0990
  995PEP     CB36117   0.738   4.609   4.411  0.2042  0.1642  0.2225
  995PEP     CB36118   0.774   4.206   4.373  0.3881  0.0854  0.1727
  995PEP     CB36119   0.543   3.921   4.047  0.2532 -0.1586 -0.3575
  995PEP     CB36120   0.186   3.851   3.872 -0.1506  0.2417  0.0107
  996PEP     CB36121   8.505   6.720   6.764  0.1085 -0.1322 -0.1240
  996PEP     CB36122   8.442   6.716   7.201  0.0942 -0.1991  0.1380
  996PEP     CB36123   8.222   6.496   7.493  0.3021  0.1758 -0.0874
  996PEP     CB36124   7.952   6.192   7.429  0.0739  0.0919 -0.2861
  996PEP     CB36125   7.923   6.114   6.982 -0.1667 -0.0113 -0.0117
  996PEP     CB36126   8.059   6.564   6.724 -0.2857  0.1198  0.0349
  996PEP     CB36127   8.112   7.015   6.879 -0.0100 -0.1881  0.1624
  996PEP     CB36128   8.218   7.375   6.950  0.6921 -0.1302 -0.4402
  996PEP     CB36129   8.470   7.769   7.166  0.1962 -0.1958 -0.0094
  996PEP     CB36130   8.816   7.885   7.411  0.0210 -0.0649 -0.0376
  996PEP     CB36131   8.908   8.181   7.728 -0.1813 -0.3243  0.1606
  996PEP     CB36132   9.181   8.521   7.676  0.0114 -0.1170 -0.0866
  996PEP     CB36133   9.336   8.795   7.516 -0.6407 -0.2871  0.1860
  996PEP     CB36134   9.564   9.069   7.275 -0.1347 -0.1651 -0.1410
  996PEP     CB36135   9.821   9.392   7.125 -0.0411  0.0228  0.0936
  996PEP     CB36136  10.007   9.782   6.890  0.0287  0.1891  0.0385
  996PEP     CB36137  10.320  10.102   6.763 -0.0802  0.4329 -0.0453
  996PEP     CB36138  10.628  10.425   6.574  0.2752 -0.2346  0.1453
  996PEP     CB36139  10.985  10.446   6.406 -0.0056 -0.0597  0.0950
  996PEP     CB36140  11.439  10.219   6.366 -0.0478  0.1491  0.2660
  996PEP     CB36141  11.592   9.884   6.144 -0.2350 -0.0600  0.3639
  996PEP     CB36142  11.927   9.617   6.145 -0.5092  0.3633  0.0618
  996PEP     CB36143  12.264   9.418   6.285  0.5134 -0.3472 -0.2433
  996PEP     CB36144  12.653   9.380   6.432  0.4470  0.3817  0.2040
  996PEP     CB36145  13.111   9.371   6.405 -0.1638  0.2394 -0.3419
  996PEP     CB36146  13.460   9.201   6.647  0.1016  0.2457 -0.1289
  996PEP     CB36147  13.801   9.027   6.639  0.0647 -0.0450  0.0076
  996PEP     CB36148  13.896   8.562   6.750 -0.0636 -0.4649  0.0341
  996PEP     CB36149  14.074   8.052   6.705 -0.1829  0.0636 -0.1423
  996PEP     CB36150  14.372   7.845   6.349  0.1920  0.3890  0.1189
  996PEP     CB36151  14.664   7.626   6.219 -0.1919  0.2499 -0.3032
  996PEP     CB36152  14.892   7.341   5.908 -0.3270 -0.0438  0.0807
  996PEP     CB36153  14.772   6.884   5.768  0.1261 -0.4291 -0.0047
  996PEP     CB36154  14.755   6.484   5.791 -0.0723 -0.1657  0.0700
  996PEP     CB36155  15.131   6.201   5.703  0.0034 -0.0055 -0.0786
  996PEP     CB36156  15.455   6.250   5.617  0.3425  0.3951 -0.2753
  996PEP     CB36157  15.882   6.550   5.554  0.0101  0.0193 -0.2698
  996PEP     CB36158  16.269   6.906   5.647 -0.0678 -0.0362 -0.1507
  996PEP     CB36159  16.475   7.219   5.661  0.0969  0.2028  0.0327
  996PEP     CB36160  16.672   7.554   5.426  0.0292 -0.4089  0.2363
  997PEP     CB36161  18.476  15.325   0.718  0.2575  0.1456 -0.2618
  997PEP     CB36162  18.798  15.142   0.680 -0.1833 -0.3455  0.2348
  997PEP     CB36163  19.270  15.088   0.634 -0.0276  0.3830 -0.2235
  997PEP     CB36164  19.645  15.324   0.643  0.1254 -0.3047  0.2707
  997PEP     CB36165  20.085  15.490   0.319 -0.2940  0.0874  0.0384
  997PEP     CB36166  20.544  15.594   0.238  0.0821  0.3009  0.2132
  997PEP     CB36167  20.981  15.408   0.222 -0.2255 -0.2801 -0.0172
  997PEP     CB36168  21.282  15.225   0.412 -0.0786  0.2151 -0.1720
  997PEP     CB36169  21.493  14.852   0.368  0.3655  0.0129 -0.2474
  997PEP     CB36170  21.450  14.494  -0.028  0.0732  0.3057  0.1299
  997PEP     CB36171  21.451  14.617  -0.518 -0.3292  0.4469  0.0395
  997PEP     CB36172  21.642  15.000  -0.704 -0.0819  0.0123 -0.0060
  997PEP     CB36173  21.700  15.379  -0.543 -0.1608 -0.0195  0.2099
  997PEP     CB36174  21.796  15.709  -0.470 -0.1541 -0.3152  0.2302
  997PEP     CB36175  21.896  16.159  -0.761  0.3998  0.0638  0.0559
  997PEP     CB36176  22.086  16.426  -1.061 -0.0488  0.1873  0.4271
  997PEP     CB36177  22.242  16.733  -1.256  0.0270  0.0525 -0.0105
  997PEP     CB36178  22.396  17.196  -1.244  0.0625  0.0727  0.1885
  997PEP     CB36179  22.605  17.653  -1.304  0.2964 -0.3010  0.3246
  997PEP     CB36180  22.958  17.885  -1.579  0.0851  0.0389 -0.0653
  997PEP     CB36181  23.234  17.934  -1.895  0.0112  0.0937 -0.1008
  997PEP     CB36182  23.715  17.884  -1.807  0.0414 -0.1882 -0.0553
  997PEP     CB36183  23.866  17.723  -1.436 -0.2021  0.0139  0.5971
  997PEP     CB36184  23.794  18.059  -1.079  0.1296  0.2601 -0.2938
  997PEP     CB36185  23.519  18.448  -1.055  0.1542  0.2970  0.0473
  997PEP     CB36186  23.326  18.818  -0.924 -0.1684  0.1618  0.0218
  997PEP     CB36187  23.180  19.288  -0.995 -0.0492 -0.2885 -0.3807
  997PEP     CB36188  23.203  19.708  -1.232 -0.3864 -0.2995  0.2054
  997PEP     CB36189  23.405  20.127  -1.201 -0.2601  0.3086 -0.1314
  997PEP     CB36190  23.431  20.462  -0.906  0.0370 -0.2823  0.2305
  997PEP     CB36191  23.119  20.601  -0.718 -0.1438 -0.0035  0.0660
  997PEP     CB36192  22.978  21.022  -0.615 -0.3916  0.1456 -0.0936
  997PEP     CB36193  22.772  21.312  -0.877 -0.2710  0.0323 -0.0824
  997PEP     CB36194  22.446  21.499  -1.157  0.1311 -0.2777  0.2449
  997PEP     CB36195  22.249  21.406  -1.543 -0.0405 -0.1327  0.1104
  997PEP     CB36196  21.844  21.498  -1.814  0.1792  0.3844 -0.0860
  997PEP     CB36197  21.781  21.915  -1.959  0.2123  0.4139 -0.4423
  997PEP     CB36198  22.120  22.091  -2.086 -0.2898  0.1290 -0.1361
  997PEP     CB36199  22.368  22.450  -2.270  0.1890  0.1193  0.0758
  997PEP     CB36200  22.311  22.833  -2.436  0.1954  0.1142 -0.0770
  998PEP     CB36201   0.540  12.194  17.354  0.1949  0.1200 -0.2817
  998PEP     CB36202   0.455  11.816  17.723  0.4252  0.0991 -0.0072
  998PEP     CB36203   0.234  11.671  18.047  0.0198 -0.3186 -0.4449
  998PEP     CB36204  -0.021  11.791  18.437 -0.0531 -0.1873  0.3568
  998PEP     CB36205  -0.372  11.706  18.749 -0.1660 -0.0337  0.2297
  998PEP     CB36206  -0.466  11.471  19.140 -0.0974 -0.2479  0.3268
  998PEP     CB36207  -0.304  11.417  19.561 -0.0777 -0.0503 -0.0864
  998PEP     CB36208  -0.127  11.136  19.921  0.0713  0.0161  0.2481
  998PEP     CB36209  -0.155  10.704  20.056  0.2064 -0.1607  0.0079
  998PEP     CB36210  -0.247  10.298  19.840  0.0965 -0.4648 -0.0167
  998PEP     CB36211  -0.499   9.994  19.574  0.2127 -0.6008  0.3599
  998PEP     CB36212  -0.909   9.738  19.510 -0.0429 -0.2919  0.2868
  998PEP     CB36213  -1.446   9.546  19.661 -0.1347  0.2838 -0.0276
  998PEP     CB36214  -1.939   9.292  19.594  0.1882  0.1173  0.4354
  998PEP     CB36215  -2.094   9.143  19.285  0.0648  0.0577 -0.1516
  998PEP     CB36216  -2.330   9.150  18.922 -0.0290 -0.0540  0.0360
  998PEP     CB36217  -2.690   9.198  18.773 -0.1072  0.2520 -0.1926
  998PEP     CB36218  -3.119   9.268  18.863 -0.2676  0.0120 -0.2051
  998PEP     CB36219  -3.501   9.351  19.144  0.3229  0.0746 -0.0777
  998PEP     CB36220  -3.497   9.552  19.552  0.1772 -0.2602  0.0943
  998PEP     CB36221  -3.436   9.882  19.789  0.2534 -0.0943 -0.0030
  998PEP     CB36222  -3.179  10.228  20.080  0.0606 -0.0959 -0.0466
  998PEP     CB36223  -2.940  10.581  20.065 -0.0550 -0.0715 -0.2696
  998PEP     CB36224  -2.881  11.101  20.017  0.1102  0.1748 -0.1072
  998PEP     CB36225  -2.717  11.462  20.099  0.0539 -0.5539  0.2783
  998PEP     CB36226  -2.653  11.825  20.368  0.0239 -0.2186 -0.0365
  998PEP     CB36227  -2.610  11.918  20.893 -0.1460  0.0032 -0.1221
  998PEP     CB36228  -2.796  12.183  21.221 -0.0303  0.1669 -0.1238
  998PEP     CB36229  -3.240  12.187  21.168  0.1999 -0.0144 -0.1080
  998PEP     CB36230  -3.510  11.762  21.180 -0.1007 -0.2353 -0.1183
  998PEP     CB36231  -3.828  11.587  21.432  0.1622 -0.1120  0.0683
  998PEP     CB36232  -4.039  11.308  21.611 -0.1160  0.2077  0.2740
  998PEP     CB36233  -4.127  11.099  21.990  0.0056 -0.0222 -0.0904
  998PEP     CB36234  -4.175  11.055  22.406 -0.1521  0.1764  0.0689
  998PEP     CB36235  -3.935  10.842  22.810 -0.0261  0.0441  0.1097
  998PEP     CB36236  -3.766  10.859  23.185 -0.2566 -0.1870 -0.3119
  998PEP     CB36237  -3.590  11.024  23.475  0.3181 -0.1234  0.3187
  998PEP     CB36238  -3.567  11.013  23.921  0.2352 -0.3877 -0.0790
  998PEP     CB36239  -3.354  10.652  24.116  0.2810  0.2882  0.1787
  998PEP     CB36240  -3.366  10.238  24.040 -0.2681 -0.2904  0.0320
  999PEP     CB36241   5.314   5.441  17.399 -0.0377 -0.4338 -0.2689
  999PEP     CB36242   5.188   5.507  16.911  0.3748  0.1546 -0.2112
  999PEP     CB36243   5.026   5.473  16.489  0.3906 -0.3050  0.0423
  999PEP     CB36244   4.864   5.733  16.113 -0.3135 -0.1185  0.1624
  999PEP     CB36245   4.955   5.945  15.656 -0.1715  0.1302 -0.2158
  999PEP     CB36246   4.979   6.279  15.307 -0.0664 -0.0405  0.1003
  999PEP     CB36247   5.307   6.589  15.184  0.0066  0.5748 -0.2639
  999PEP     CB36248   5.751   6.446  15.260  0.0742 -0.2937 -0.0070
  999PEP     CB36249   5.871   6.080  15.487 -0.0431 -0.2564  0.1439
  999PEP     CB36250   5.698   5.720  15.474 -0.4467 -0.2810  0.1604
  999PEP     CB36251   5.221   5.586  15.438  0.1328  0.0742  0.0969
  999PEP     CB36252   4.767   5.785  15.219 -0.0360 -0.0723 -0.0037
  999PEP     CB36253   4.589   6.164  15.005 -0.0659  0.0298  0.2824
  999PEP     CB36254   4.590   6.557  14.975 -0.2175  0.0249  0.2132
  999PEP     CB36255   4.688   6.828  14.739  0.2352 -0.2055  0.3022
  999PEP     CB36256   4.628   7.191  14.348  0.0744 -0.0963 -0.0261
  999PEP     CB36257   4.833   7.270  13.918 -0.0222  0.5486  0.0990
  999PEP     CB36258   5.101   7.599  13.758 -0.4223 -0.0512 -0.1766
  999PEP     CB36259   4.964   8.029  13.713  0.1443  0.1486  0.0145
  999PEP     CB36260   4.691   8.408  13.805 -0.0784 -0.4405 -0.2728
  999PEP     CB36261   4.728   8.799  14.046 -0.0288 -0.0234 -0.2746
  999PEP     CB36262   4.741   9.163  14.165  0.1524  0.0494  0.2434
  999PEP     CB36263   4.855   9.512  14.440  0.0234 -0.1217 -0.0533
  999PEP     CB36264   5.233   9.654  14.661  0.3342 -0.1721  0.0038
  999PEP     CB36265   5.690   9.490  14.742  0.1398  0.2930  0.3012
  999PEP     CB36266   6.043   9.195  14.616  0.2439 -0.0400 -0.3065
  999PEP     CB36267   6.412   8.981  14.457 -0.1318  0.4011  0.0353
  999PEP     CB36268   6.704   8.715  14.564 -0.2451  0.1301 -0.0475
  999PEP     CB36269   7.138   8.510  14.783  0.0598  0.4081 -0.0391
  999PEP     CB36270   7.519   8.452  14.794  0.5628 -0.3774 -0.1693
  999PEP     CB36271   7.882   8.274  14.743  0.1233 -0.0198  0.0315
  999PEP     CB36272   8.314   8.131  14.719  0.1869 -0.0254 -0.0074
  999PEP     CB36273   8.496   7.874  14.320  0.3695  0.0426  0.0132
  999PEP     CB36274   8.353   8.027  13.942 -0.3965 -0.2822  0.0217
  999PEP     CB36275   8.446   8.436  13.808  0.4400 -0.1161 -0.0463
  999PEP     CB36276   8.250   8.859  13.883 -0.4154 -0.3225  0.3690
  999PEP     CB36277   7.779   8.967  14.027 -0.0335 -0.2883  0.1471
  999PEP     CB36278   7.430   8.616  14.260  0.0412  0.0058 -0.1127
  999PEP     CB36279   7.463   8.177  14.140  0.1141 -0.0875 -0.1905
  999PEP     CB36280   7.587   7.777  14.266  0.0567  0.0936 -0.0893
 1000PEP     CB36281  12.437  12.999   0.781 -0.2991 -0.1012 -0.2592
 1000PEP     CB36282  12.291  13.402   0.894 -0.3189 -0.1436 -0.1038
 1000PEP     CB36283  12.189  13.804   0.746 -0.1644  0.0319 -0.0181
 1000PEP     CB36284  12.090  14.160   0.535 -0.6171 -0.1546  0.2312
 1000PEP     CB36285  12.102  14.464   0.274 -0.0439  0.1089  0.4134
 1000PEP     CB36286  12.155  14.782  -0.060  0.4249  0.4429  0.0026
 1000PEP     CB36287  11.907  15.109  -0.346 -0.0508 -0.0870 -0.3228
 1000PEP     CB36288  11.837  15.532  -0.355 -0.5543 -0.2380 -0.3326
 1000PEP     CB36289  11.936  15.969  -0.259 -0.0644 -0.0122  0.1879
 1000PEP     CB36290  11.701  16.237  -0.146  0.0599  0.0611  0.2098
 1000PEP     CB36291  11.249  16.257  -0.164  0.1518 -0.0293  0.3344
 1000PEP     CB36292  10.783  16.187  -0.013 -0.3683 -0.2103  0.7113
 1000PEP     CB36293  10.407  16.483   0.002 -0.5345  0.2732 -0.3876
 1000PEP     CB36294  10.261  16.809   0.246  0.0872  0.1979 -0.2112
 1000PEP     CB36295   9.878  17.102   0.243 -0.1217  0.2791 -0.1699
 1000PEP     CB36296   9.463  17.336   0.424 -0.0675  0.1721  0.1395
 1000PEP     CB36297   9.260  17.643   0.735  0.1408 -0.0888  0.3060
 1000PEP     CB36298   8.901  17.851   0.872  0.0554 -0.1337  0.0578
 1000PEP     CB36299   8.553  18.029   1.180 -0.2192 -0.1456 -0.1986
 1000PEP     CB36300   8.081  18.158   1.158  0.1277 -0.4140 -0.2749
 1000PEP     CB36301   7.870  17.972   0.812  0.2014  0.0574  0.0574
 1000PEP     CB36302   8.099  17.952   0.367  0.5112 -0.2171 -0.1961
 1000PEP     CB36303   8.355  17.864  -0.022  0.0820  0.0417 -0.0200
 1000PEP     CB36304   8.321  17.851  -0.479  0.0808  0.2412  0.3633
 1000PEP     CB36305   8.516  18.167  -0.770 -0.3410  0.0914 -0.2025
 1000PEP     CB36306   8.822  18.433  -0.723 -0.1069 -0.3083 -0.2633
 1000PEP     CB36307   9.152  18.344  -0.393 -0.1494  0.1653  0.0422
 1000PEP     CB36308   9.030  18.302  -0.085 -0.0619  0.0927 -0.3177
 1000PEP     CB36309   8.977  18.490   0.348  0.4243 -0.0035  0.2048
 1000PEP     CB36310   9.096  18.821   0.380  0.2842  0.0213 -0.0818
 1000PEP     CB36311   8.896  19.285   0.296 -0.0067  0.3021 -0.1788
 1000PEP     CB36312   8.614  19.345   0.017  0.1575  0.3058  0.2774
 1000PEP     CB36313   8.274  19.168  -0.108  0.5875 -0.2823 -0.0987
 1000PEP     CB36314   8.124  18.708  -0.050 -0.3038 -0.0992 -0.0817
 1000PEP     CB36315   7.741  18.451  -0.021 -0.0093  0.0714 -0.0463
 1000PEP     CB36316   7.300  18.592   0.082  0.3537  0.0964 -0.0565
 1000PEP     CB36317   7.193  19.007  -0.065  0.0229  0.0583 -0.0213
 1000PEP     CB36318   7.272  19.095  -0.486 -0.1267 -0.2824 -0.1407
 1000PEP     CB36319   7.688  19.035  -0.698 -0.0201  0.4590 -0.4231
 1000PEP     CB36320   8.060  18.731  -0.809  0.0770 -0.1126 -0.0151
 1001PEP     CB36321  16.730  19.301   0.519  0.0362  0.2109  0.1081
 1001PEP     CB36322  16.616  19.202   0.916  0.1956 -0.4987 -0.5454
 1001PEP     CB36323  16.466  19.140   1.265 -0.1590  0.3300  0.3269
 1001PEP     CB36324  16.227  19.090   1.600  0.3457  0.1537  0.1728
 1001PEP     CB36325  16.033  18.668   1.727  0.1264 -0.2014  0.0950
 1001PEP     CB36326  16.329  18.331   1.609 -0.1877  0.0654  0.1141
 1001PEP     CB36327  16.699  18.369   1.516 -0.1168 -0.0471 -0.5674
 1001PEP     CB36328  16.984  18.572   1.783 -0.0910 -0.2622  0.3164
 1001PEP     CB36329  16.970  18.447   2.172  0.1008 -0.0287 -0.0370
 1001PEP     CB36330  16.907  18.246   2.576  0.1706  0.2317  0.1202
 1001PEP     CB36331  16.497  18.263   2.821  0.2460 -0.0964  0.2001
 1001PEP     CB36332  16.428  18.273   3.319 -0.0289  0.4226  0.5010
 1001PEP     CB36333  16.157  18.551   3.583  0.0937  0.0171 -0.1471
 1001PEP     CB36334  16.103  18.940   3.909 -0.1540 -0.1830 -0.1883
 1001PEP     CB36335  16.299  19.091   4.230  0.1179 -0.2106  0.2261
 1001PEP     CB36336  16.305  19.323   4.617 -0.0926  0.0909 -0.0570
 1001PEP     CB36337  16.140  19.610   4.772  0.0983 -0.3119  0.0621
 1001PEP     CB36338  15.730  19.882   4.735 -0.0384  0.3432 -0.1004
 1001PEP     CB36339  15.402  19.804   4.428  0.5866 -0.5448 -0.1086
 1001PEP     CB36340  15.181  19.468   4.223 -0.2050 -0.0611  0.1320
 1001PEP     CB36341  14.958  19.143   3.930  0.2144  0.0563  0.4640
 1001PEP     CB36342  14.544  18.900   3.754  0.2702  0.1333  0.2923
 1001PEP     CB36343  14.113  18.819   3.664 -0.0210 -0.4516 -0.0399
 1001PEP     CB36344  13.829  19.109   3.623 -0.2092 -0.0062  0.2195
 1001PEP     CB36345  13.719  19.505   3.680 -0.0356 -0.4754  0.0701
 1001PEP     CB36346  14.072  19.825   3.854  0.1250  0.2383 -0.1330
 1001PEP     CB36347  14.385  20.107   4.006  0.1494  0.0248 -0.2646
 1001PEP     CB36348  14.527  20.514   3.944 -0.0142 -0.3209 -0.0018
 1001PEP     CB36349  14.662  20.863   4.048  0.0669 -0.1417  0.0776
 1001PEP     CB36350  15.122  21.120   4.043  0.0607 -0.1255  0.1594
 1001PEP     CB36351  15.544  21.140   3.839 -0.0118 -0.0490  0.0266
 1001PEP     CB36352  15.882  21.416   3.719 -0.1293 -0.1084 -0.0341
 1001PEP     CB36353  16.300  21.382   3.553 -0.3174  0.3893  0.0545
 1001PEP     CB36354  16.747  21.604   3.694 -0.0675 -0.2982 -0.1067
 1001PEP     CB36355  16.853  21.981   3.908  0.0815  0.0234  0.0800
 1001PEP     CB36356  16.766  22.220   4.306  0.2648 -0.1151 -0.3666
 1001PEP     CB36357  16.961  22.428   4.682 -0.2907  0.3041  0.1349
 1001PEP     CB36358  16.917  22.768   5.032  0.2164  0.2296  0.2672
 1001PEP     CB36359  16.910  23.157   4.996 -0.0388 -0.0688  0.0896
 1001PEP     CB36360  16.632  23.309   4.802  0.0033 -0.0633 -0.1739
 1002PEP     CB36361  10.238   0.635   5.009 -0.3259 -0.2445  0.3479
 1002PEP     CB36362  10.642   0.561   4.987  0.4272 -0.4155 -0.0655
 1002PEP     CB36363  11.040   0.416   4.890  0.0670 -0.0579 -0.2403
 1002PEP     CB36364  11.188   0.044   4.674  0.0658 -0.0891 -0.1019
 1002PEP     CB36365  10.813  -0.162   4.441  0.0648  0.1030  0.4727
 1002PEP     CB36366  10.357  -0.088   4.413  0.4566 -0.4435 -0.1361
 1002PEP     CB36367   9.983   0.105   4.295  0.0021  0.0371 -0.2621
 1002PEP     CB36368   9.901  -0.055   3.895  0.2300 -0.1249 -0.1862
 1002PEP     CB36369  10.229  -0.386   3.711  0.0481 -0.0072  0.2551
 1002PEP     CB36370  10.377  -0.659   3.927 -0.1064  0.0029  0.1696
 1002PEP     CB36371  10.467  -0.588   4.398 -0.1084 -0.3128 -0.1761
 1002PEP     CB36372  10.260  -0.417   4.721 -0.0868  0.0337 -0.0301
 1002PEP     CB36373   9.891  -0.549   4.947  0.1039  0.3048  0.2702
 1002PEP     CB36374   9.604  -0.671   5.182  0.1893 -0.1006 -0.2740
 1002PEP     CB36375   9.181  -0.489   5.208 -0.2263  0.2149  0.0049
 1002PEP     CB36376   8.874  -0.503   4.982  0.0064 -0.1438 -0.0890
 1002PEP     CB36377   8.763  -0.845   4.706 -0.3666 -0.0845 -0.1627
 1002PEP     CB36378   9.023  -1.106   4.391 -0.0100  0.1155  0.1259
 1002PEP     CB36379   8.946  -1.155   3.962 -0.3238  0.5403 -0.0742
 1002PEP     CB36380   8.816  -1.564   3.725 -0.0665 -0.1448 -0.2022
 1002PEP     CB36381   8.556  -1.914   3.856 -0.2207 -0.1638  0.1969
 1002PEP     CB36382   8.131  -2.097   3.740  0.1767 -0.0639  0.1460
 1002PEP     CB36383   7.778  -2.366   3.511  0.0751 -0.0678 -0.1623
 1002PEP     CB36384   7.825  -2.682   3.261 -0.0620 -0.1768 -0.1449
 1002PEP     CB36385   7.947  -2.914   2.929 -0.0679  0.1884  0.0108
 1002PEP     CB36386   8.019  -3.348   2.958 -0.1295  0.4218  0.0811
 1002PEP     CB36387   8.440  -3.452   3.125 -0.1395 -0.2637 -0.0732
 1002PEP     CB36388   8.855  -3.502   3.299 -0.0959  0.0579 -0.3496
 1002PEP     CB36389   8.995  -3.922   3.433 -0.2157  0.3163 -0.0771
 1002PEP     CB36390   9.054  -4.114   3.777 -0.0707  0.0710 -0.2583
 1002PEP     CB36391   9.328  -4.004   4.089  0.3392  0.0021 -0.1143
 1002PEP     CB36392   9.541  -3.782   4.321 -0.0409  0.3582  0.2589
 1002PEP     CB36393   9.880  -3.461   4.359  0.1521  0.2777  0.3079
 1002PEP     CB36394   9.884  -3.066   4.373 -0.2380  0.3361  0.0568
 1002PEP     CB36395   9.910  -2.729   4.058  0.0072 -0.0337  0.0462
 1002PEP     CB36396  10.024  -2.778   3.644 -0.3691  0.1407 -0.3172
 1002PEP     CB36397  10.371  -3.012   3.466 -0.1800 -0.0595  0.2924
 1002PEP     CB36398  10.604  -3.255   3.277 -0.1789 -0.0345  0.3425
 1002PEP     CB36399  10.977  -3.321   3.077 -0.1102 -0.3457  0.3881
 1002PEP     CB36400  11.390  -3.424   3.081  0.1007 -0.0769  0.1262
 1003PEP     CB36401  14.206  17.575   4.293 -0.0711 -0.1446 -0.0756
 1003PEP     CB36402  14.006  17.724   3.969 -0.2495 -0.1431  0.3148
 1003PEP     CB36403  13.992  17.796   3.558 -0.3686 -0.2955  0.0379
 1003PEP     CB36404  14.179  17.788   3.119  0.3975  0.3619 -0.0237
 1003PEP     CB36405  14.586  17.667   2.903 -0.1926  0.0731 -0.6856
 1003PEP     CB36406  15.004  17.699   3.012 -0.2892 -0.2075 -0.5734
 1003PEP     CB36407  15.407  17.661   3.165  0.1670 -0.4122 -0.1547
 1003PEP     CB36408  15.724  17.821   3.427 -0.3548 -0.2541  0.2468
 1003PEP     CB36409  15.675  18.340   3.553 -0.0199 -0.5897  0.1037
 1003PEP     CB36410  15.358  18.646   3.402  0.0234  0.0890 -0.3314
 1003PEP     CB36411  15.246  18.915   3.067 -0.3498  0.1793 -0.0728
 1003PEP     CB36412  15.121  19.296   2.894 -0.2210 -0.0926  0.1727
 1003PEP     CB36413  15.222  19.779   2.838 -0.1130  0.2564 -0.0128
 1003PEP     CB36414  15.526  20.066   3.107 -0.1286  0.0495  0.1772
 1003PEP     CB36415  15.509  20.097   3.612 -0.0518 -0.0391 -0.2509
 1003PEP     CB36416  15.242  20.049   4.001 -0.1807 -0.2789 -0.1620
 1003PEP     CB36417  14.926  20.172   4.293 -0.1165  0.0059  0.5176
 1003PEP     CB36418  14.646  20.417   4.486  0.1753  0.0354  0.1137
 1003PEP     CB36419  14.320  20.816   4.510  0.2328 -0.2120  0.1274
 1003PEP     CB36420  14.153  21.170   4.404  0.3103 -0.1877  0.3198
 1003PEP     CB36421  14.227  21.678   4.286  0.0783  0.0348  0.0644
 1003PEP     CB36422  14.101  22.032   4.089 -0.0786  0.0060 -0.1336
 1003PEP     CB36423  13.742  22.334   4.197  0.3327 -0.1874  0.3936
 1003PEP     CB36424  13.507  22.406   4.581 -0.2218 -0.1260  0.0349
 1003PEP     CB36425  13.556  22.234   5.120  0.0915  0.0798 -0.1343
 1003PEP     CB36426  13.899  22.099   5.393  0.0913  0.2055 -0.0461
 1003PEP     CB36427  14.353  22.104   5.624 -0.3594 -0.0986 -0.0064
 1003PEP     CB36428  14.486  22.158   6.051  0.1382 -0.1748  0.2298
 1003PEP     CB36429  14.683  22.185   6.471  0.1791  0.0139 -0.0369
 1003PEP     CB36430  14.938  22.049   6.754 -0.0628 -0.0904  0.1911
 1003PEP     CB36431  15.412  21.909   6.793  0.1490 -0.0593  0.1234
 1003PEP     CB36432  15.789  21.953   6.957 -0.0550 -0.0940 -0.0371
 1003PEP     CB36433  16.060  22.082   7.205  0.0609  0.3921  0.0377
 1003PEP     CB36434  16.059  22.243   7.577 -0.2843  0.0202 -0.3156
 1003PEP     CB36435  16.277  22.554   7.777 -0.3099 -0.3325  0.0961
 1003PEP     CB36436  16.688  22.751   7.728 -0.1647  0.2822  0.2036
 1003PEP     CB36437  17.035  22.540   7.842  0.2510  0.3980  0.0192
 1003PEP     CB36438  17.462  22.405   7.638  0.0274  0.0195 -0.1711
 1003PEP     CB36439  17.828  22.012   7.538 -0.2057  0.0696 -0.0952
 1003PEP     CB36440  18.043  21.684   7.668  0.1567 -0.0856  0.1416
 1004PEP     CB36441   4.962  20.843  20.539 -0.3764 -0.3440  0.3574
 1004PEP     CB36442   4.700  20.567  20.810  0.4601  0.1761  0.0686
 1004PEP     CB36443   4.654  20.147  20.951  0.3101  0.0825  0.1669
 1004PEP     CB36444   4.592  19.778  20.929 -0.1040 -0.0897  0.2649
 1004PEP     CB36445   4.507  19.378  20.761  0.3298 -0.1715 -0.1085
 1004PEP     CB36446   4.438  19.046  21.066  0.0103 -0.3141 -0.1043
 1004PEP     CB36447   4.271  18.848  21.353  0.1468 -0.4142 -0.1301
 1004PEP     CB36448   3.963  18.788  21.639 -0.0930  0.0215 -0.1080
 1004PEP     CB36449   3.959  19.009  21.991  0.0948 -0.1128 -0.0399
 1004PEP     CB36450   3.706  19.444  22.007  0.2734  0.0570  0.0392
 1004PEP     CB36451   3.476  19.657  21.649 -0.0204 -0.1491 -0.1532
 1004PEP     CB36452   3.463  19.557  21.203  0.1168 -0.0551 -0.1168
 1004PEP     CB36453   3.470  19.460  20.819  0.0028  0.3112  0.3484
 1004PEP     CB36454   3.575  19.246  20.453  0.3071  0.1021  0.3894
 1004PEP     CB36455   3.690  18.898  20.219  0.3887 -0.1667  0.4290
 1004PEP     CB36456   3.673  18.454  20.199  0.1068  0.0056  0.0462
 1004PEP     CB36457   3.327  18.108  20.246 -0.5565 -0.2153 -0.3211
 1004PEP     CB36458   2.959  17.799  20.082  0.0872 -0.2178  0.0526
 1004PEP     CB36459   2.583  17.589  19.932  0.3063  0.1825 -0.0179
 1004PEP     CB36460   2.219  17.416  19.800 -0.0982 -0.0961  0.0482
 1004PEP     CB36461   1.955  17.106  19.659 -0.3129  0.0868 -0.1627
 1004PEP     CB36462   1.639  16.968  19.349  0.2146  0.3034  0.0305
 1004PEP     CB36463   1.292  16.775  19.195  0.0698 -0.0578  0.3154
 1004PEP     CB36464   0.977  16.463  19.145 -0.2688 -0.0232 -0.0065
 1004PEP     CB36465   0.864  16.182  18.816 -0.0412  0.1875  0.0104
 1004PEP     CB36466   0.633  15.725  18.677  0.1980 -0.0934 -0.0417
 1004PEP     CB36467   0.601  15.266  18.620  0.0124 -0.1195 -0.5232
 1004PEP     CB36468   0.538  15.093  18.194  0.4209 -0.4458  0.1182
 1004PEP     CB36469   0.849  15.119  17.838  0.1393 -0.1816 -0.4357
 1004PEP     CB36470   1.288  15.381  17.846 -0.3267 -0.0651  0.0087
 1004PEP     CB36471   1.344  15.802  18.013 -0.1085 -0.0198  0.0934
 1004PEP     CB36472   0.966  16.016  18.054  0.0173  0.3077  0.1144
 1004PEP     CB36473   0.731  16.367  17.956 -0.1081  0.2464  0.3665
 1004PEP     CB36474   0.574  16.680  18.206  0.0344 -0.2810 -0.0109
 1004PEP     CB36475   0.455  17.013  18.429  0.2567  0.2006  0.3410
 1004PEP     CB36476   0.557  17.456  18.510  0.3099 -0.1692 -0.2951
 1004PEP     CB36477   0.628  17.821  18.726  0.1912  0.1862 -0.1730
 1004PEP     CB36478   0.849  18.225  18.794  0.2318  0.0810 -0.2486
 1004PEP     CB36479   1.030  18.529  18.687  0.0982 -0.0385  0.1409
 1004PEP     CB36480   1.173  18.670  18.307 -0.3596  0.1940 -0.4363
 1005PEP     CB36481  17.013   2.914  19.023 -0.1360 -0.1040 -0.0530
 1005PEP     CB36482  16.857   3.434  19.012 -0.0025 -0.1125  0.1752
 1005PEP     CB36483  16.552   3.730  19.234 -0.1499 -0.2882 -0.0011
 1005PEP     CB36484  16.302   4.094  19.417  0.0990  0.4400 -0.3380
 1005PEP     CB36485  16.078   4.388  19.688  0.1427 -0.3025  0.4292
 1005PEP     CB36486  15.688   4.609  19.779  0.2563  0.0903 -0.4494
 1005PEP     CB36487  15.431   4.900  19.541  0.3218 -0.3505 -0.2801
 1005PEP     CB36488  15.567   5.365  19.423  0.2653  0.2617  0.2827
 1005PEP     CB36489  15.368   5.718  19.529 -0.2893 -0.0189 -0.0271
 1005PEP     CB36490  15.128   5.887  19.791 -0.2426  0.0562  0.1693
 1005PEP     CB36491  15.065   6.389  19.745  0.0159 -0.1199  0.4850
 1005PEP     CB36492  15.211   6.783  19.992 -0.3716 -0.1710  0.0490
 1005PEP     CB36493  15.443   6.970  20.330  0.1182 -0.1005  0.0267
 1005PEP     CB36494  15.714   7.148  20.573 -0.1829  0.1944 -0.1790
 1005PEP     CB36495  16.065   7.137  20.548  0.2096  0.0586  0.1626
 1005PEP     CB36496  16.416   7.208  20.186 -0.3618 -0.1415 -0.2133
 1005PEP     CB36497  16.586   7.379  19.883 -0.1213 -0.1927 -0.1145
 1005PEP     CB36498  16.561   7.753  19.546  0.2721  0.0334  0.1024
 1005PEP     CB36499  16.387   7.975  19.132 -0.0347  0.0405 -0.1882
 1005PEP     CB36500  16.422   8.155  18.706  0.3299 -0.0626 -0.4637
 1005PEP     CB36501  16.474   8.216  18.277  0.0151 -0.4171 -0.0618
 1005PEP     CB36502  16.429   8.348  17.820  0.0717 -0.4583  0.0140
 1005PEP     CB36503  16.177   8.292  17.423  0.1508  0.1574  0.0772
 1005PEP     CB36504  15.948   8.345  17.014  0.2672  0.2911 -0.0486
 1005PEP     CB36505  15.671   8.181  16.744  0.1352  0.3946 -0.0259
 1005PEP     CB36506  15.583   7.770  16.551 -0.2333 -0.2267 -0.2869
 1005PEP     CB36507  15.549   7.473  16.300  0.2109  0.1837 -0.3350
 1005PEP     CB36508  15.664   7.427  15.822  0.2146 -0.3831 -0.1241
 1005PEP     CB36509  15.793   7.342  15.315  0.1255  0.1491 -0.2392
 1005PEP     CB36510  15.740   6.999  14.965 -0.4002  0.1034 -0.3173
 1005PEP     CB36511  15.272   6.902  14.894  0.1402 -0.3953  0.1211
 1005PEP     CB36512  14.960   7.149  15.065  0.4515 -0.1050 -0.4397
 1005PEP     CB36513  14.664   7.295  15.445  0.1491  0.3083  0.2485
 1005PEP     CB36514  14.674   7.224  15.857  0.0936 -0.1136  0.3798
 1005PEP     CB36515  14.797   7.551  16.170 -0.1821  0.2832  0.0696
 1005PEP     CB36516  14.875   8.014  15.907 -0.0117  0.2178 -0.0393
 1005PEP     CB36517  14.986   8.056  15.459  0.4233  0.0612 -0.0001
 1005PEP     CB36518  15.135   8.419  15.332  0.0848  0.0946  0.1675
 1005PEP     CB36519  15.195   8.785  15.477 -0.3640  0.0569 -0.2363
 1005PEP     CB36520  15.450   9.188  15.609 -0.4461 -0.4383 -0.1347
 1006PEP     CB36521  16.799   1.689   1.352  0.1737  0.3948  0.0485
 1006PEP     CB36522  16.432   1.737   1.304  0.1074  0.2741 -0.1594
 1006PEP     CB36523  16.210   1.905   0.946 -0.0803  0.3837  0.0304
 1006PEP     CB36524  15.780   1.847   0.818  0.1271  0.2415  0.1012
 1006PEP     CB36525  15.387   2.022   0.807  0.1260 -0.0274  0.2633
 1006PEP     CB36526  15.102   2.367   0.740  0.1502 -0.1785  0.1057
 1006PEP     CB36527  14.690   2.415   0.773 -0.0153 -0.1667  0.1011
 1006PEP     CB36528  14.316   2.149   0.847  0.1625 -0.0134  0.0861
 1006PEP     CB36529  14.276   1.792   0.655  0.3130  0.4072  0.0163
 1006PEP     CB36530  14.616   1.540   0.498 -0.1978  0.3153 -0.0078
 1006PEP     CB36531  15.042   1.588   0.606  0.2390  0.3635  0.0364
 1006PEP     CB36532  15.254   1.491   0.984  0.1623  0.1014 -0.0087
 1006PEP     CB36533  15.108   1.294   1.336  0.2056  0.0008  0.2572
 1006PEP     CB36534  15.116   1.469   1.757  0.4215  0.2844 -0.3322
 1006PEP     CB36535  14.905   1.441   2.219 -0.2347  0.1283 -0.1163
 1006PEP     CB36536  14.920   1.589   2.579  0.1475 -0.1563  0.0636
 1006PEP     CB36537  15.079   1.700   2.933 -0.1052 -0.2191 -0.0195
 1006PEP     CB36538  15.195   1.786   3.310 -0.1996 -0.0133 -0.1362
 1006PEP     CB36539  14.967   1.971   3.669 -0.1530 -0.1398 -0.2269
 1006PEP     CB36540  14.799   2.313   3.855 -0.4298  0.3675 -0.1091
 1006PEP     CB36541  14.709   2.548   4.231  0.0745  0.2696 -0.1859
 1006PEP     CB36542  14.653   2.893   4.627 -0.1438 -0.0446 -0.0100
 1006PEP     CB36543  14.434   3.158   4.771 -0.0424 -0.0865  0.0057
 1006PEP     CB36544  13.918   3.324   4.770 -0.7123 -0.2132  0.3650
 1006PEP     CB36545  13.796   3.584   5.041  0.0703 -0.0820  0.3195
 1006PEP     CB36546  14.065   3.775   5.262  0.0384 -0.2711 -0.0101
 1006PEP     CB36547  14.483   3.763   5.220  0.3302 -0.3189 -0.1585
 1006PEP     CB36548  14.856   3.924   5.109  0.3252 -0.1264 -0.0871
 1006PEP     CB36549  15.077   4.145   4.790  0.0880 -0.4480 -0.0133
 1006PEP     CB36550  15.349   4.129   4.502  0.2795  0.6980  0.0228
 1006PEP     CB36551  15.319   4.136   4.004 -0.1062  0.0522  0.0960
 1006PEP     CB36552  15.692   4.093   3.627  0.2187 -0.2606  0.1136
 1006PEP     CB36553  16.119   3.949   3.761 -0.1814  0.2113 -0.0697
 1006PEP     CB36554  16.304   4.158   4.122 -0.1637  0.1472 -0.1704
 1006PEP     CB36555  16.278   4.637   4.217  0.1921  0.0651  0.1980
 1006PEP     CB36556  16.149   5.095   4.081 -0.0015  0.3821  0.2653
 1006PEP     CB36557  15.971   5.231   3.715  0.3873 -0.0793  0.1391
 1006PEP     CB36558  15.957   4.927   3.341 -0.1360  0.2388 -0.1437
 1006PEP     CB36559  16.122   4.826   2.871 -0.0229  0.0937 -0.0042
 1006PEP     CB36560  16.221   4.960   2.517  0.0443 -0.1998  0.1993
 1007PEP     CB36561  16.181   1.967   6.078 -0.3320  0.3181 -0.1333
 1007PEP     CB36562  15.991   1.583   6.112 -0.3334  0.2320 -0.0073
 1007PEP     CB36563  16.001   1.097   6.267 -0.1213  0.3090  0.3451
 1007PEP     CB36564  16.222   0.763   6.306  0.5852  0.0038  0.0204
 1007PEP     CB36565  16.518   0.423   6.302 -0.0535  0.2933  0.4350
 1007PEP     CB36566  16.726   0.091   6.523 -0.0432 -0.0578 -0.2779
 1007PEP     CB36567  17.011  -0.338   6.449  0.0335  0.3183  0.2350
 1007PEP     CB36568  17.093  -0.723   6.535 -0.1117  0.1539  0.0651
 1007PEP     CB36569  17.049  -1.114   6.885  0.1656 -0.0666 -0.1532
 1007PEP     CB36570  16.889  -1.343   7.167 -0.1271 -0.2303 -0.1071
 1007PEP     CB36571  16.681  -1.275   7.575  0.0263  0.1315 -0.0024
 1007PEP     CB36572  16.708  -1.445   8.001 -0.0060  0.1291  0.1558
 1007PEP     CB36573  17.065  -1.739   8.164  0.0692  0.2253 -0.1002
 1007PEP     CB36574  16.989  -2.135   8.265  0.5068 -0.0505 -0.1502
 1007PEP     CB36575  16.456  -2.279   8.276  0.0020 -0.0305 -0.0790
 1007PEP     CB36576  15.987  -2.173   8.347  0.2282 -0.1116  0.0356
 1007PEP     CB36577  15.677  -2.236   8.521  0.1450  0.0074  0.2764
 1007PEP     CB36578  15.253  -2.195   8.634  0.1075 -0.4501  0.0093
 1007PEP     CB36579  14.910  -1.988   8.599  0.1851  0.1335  0.2024
 1007PEP     CB36580  14.732  -1.583   8.454  0.2033  0.0161 -0.0901
 1007PEP     CB36581  14.844  -1.348   8.125 -0.0504 -0.3412  0.1199
 1007PEP     CB36582  14.951  -1.463   7.632  0.1838  0.0556 -0.1520
 1007PEP     CB36583  14.689  -1.811   7.395  0.2734  0.0441 -0.2502
 1007PEP     CB36584  14.359  -2.060   7.517 -0.1680 -0.0855 -0.2041
 1007PEP     CB36585  14.215  -2.202   7.863 -0.2667 -0.2956 -0.2072
 1007PEP     CB36586  14.420  -2.174   8.348  0.1005  0.1814  0.4338
 1007PEP     CB36587  14.741  -2.479   8.490  0.0312 -0.1482 -0.2406
 1007PEP     CB36588  15.007  -2.661   8.223 -0.0012  0.0932 -0.1909
 1007PEP     CB36589  15.135  -2.697   7.777 -0.2745 -0.0548 -0.0692
 1007PEP     CB36590  15.243  -2.765   7.346  0.1877  0.0477  0.4177
 1007PEP     CB36591  15.543  -2.736   7.022  0.1013  0.2226 -0.0712
 1007PEP     CB36592  15.554  -2.749   6.594 -0.3686 -0.0283  0.1847
 1007PEP     CB36593  15.717  -2.788   6.217 -0.0393 -0.1876  0.2688
 1007PEP     CB36594  16.047  -2.734   5.798  0.1073  0.2506 -0.1648
 1007PEP     CB36595  16.313  -2.390   5.608 -0.0463  0.2855  0.0650
 1007PEP     CB36596  16.576  -2.101   5.864 -0.0244 -0.2676 -0.1276
 1007PEP     CB36597  16.672  -1.929   6.288 -0.2671 -0.0660 -0.1552
 1007PEP     CB36598  16.580  -2.146   6.704 -0.1585  0.0614 -0.0601
 1007PEP     CB36599  16.398  -2.157   7.155 -0.1590  0.0900 -0.0731
 1007PEP     CB36600  16.165  -1.953   7.414 -0.3806  0.1632  0.0645
 1008PEP     CB36601  20.092  17.063   9.126  0.2211  0.5380  0.0003
 1008PEP     CB36602  19.834  17.523   8.924 -0.2117  0.1287 -0.2080
 1008PEP     CB36603  19.536  17.844   8.994 -0.0136  0.1133  0.1524
 1008PEP     CB36604  19.312  18.091   9.256 -0.0481 -0.2612 -0.2344
 1008PEP     CB36605  18.998  18.337   9.481  0.5225 -0.1766  0.4640
 1008PEP     CB36606  18.872  18.493   9.857  0.0453 -0.0390 -0.1889
 1008PEP     CB36607  18.456  18.769   9.873 -0.0973  0.2801  0.1069
 1008PEP     CB36608  18.157  18.870   9.603  0.2579 -0.2125  0.1569
 1008PEP     CB36609  17.812  18.653   9.314 -0.1217  0.4099 -0.3630
 1008PEP     CB36610  17.606  18.354   9.284 -0.0564  0.2750  0.1324
 1008PEP     CB36611  17.333  18.136   9.063  0.2357 -0.0926  0.3466
 1008PEP     CB36612  17.009  17.855   8.922  0.1211 -0.1118 -0.2724
 1008PEP     CB36613  16.825  17.455   9.017  0.4589  0.0250 -0.1658
 1008PEP     CB36614  16.545  17.273   9.332  0.0450 -0.1069  0.0045
 1008PEP     CB36615  16.632  17.437   9.729 -0.2625  0.1267  0.2441
 1008PEP     CB36616  16.852  17.908   9.832  0.1926 -0.1387 -0.1556
 1008PEP     CB36617  17.065  18.260  10.094  0.1288 -0.1737  0.2843
 1008PEP     CB36618  16.942  18.614  10.388 -0.1257  0.1388  0.1833
 1008PEP     CB36619  16.905  18.835  10.871 -0.4387 -0.0179  0.0060
 1008PEP     CB36620  16.773  18.866  11.241  0.2428 -0.0758  0.0424
 1008PEP     CB36621  16.446  18.655  11.502  0.1634 -0.1807 -0.3823
 1008PEP     CB36622  16.087  18.842  11.551 -0.0156 -0.0656 -0.1181
 1008PEP     CB36623  15.710  18.904  11.262 -0.2835 -0.0879  0.4423
 1008PEP     CB36624  15.560  19.179  10.894  0.0809 -0.2230  0.2200
 1008PEP     CB36625  15.579  19.546  10.688  0.0256  0.2802  0.2467
 1008PEP     CB36626  15.401  19.855  10.507  0.2387  0.1089  0.0460
 1008PEP     CB36627  15.051  20.013  10.315  0.1662  0.0088 -0.4713
 1008PEP     CB36628  14.664  19.997  10.044 -0.0096 -0.6441 -0.3152
 1008PEP     CB36629  14.514  20.134   9.710 -0.2620 -0.0797 -0.2183
 1008PEP     CB36630  14.272  20.355   9.403  0.2420 -0.0513 -0.2631
 1008PEP     CB36631  14.215  20.692   9.028  0.1272 -0.1674 -0.2640
 1008PEP     CB36632  14.039  20.910   8.726  0.1342  0.3545  0.1058
 1008PEP     CB36633  13.660  21.171   8.679 -0.1280  0.0459  0.0967
 1008PEP     CB36634  13.196  21.300   8.649 -0.3428  0.0844 -0.4691
 1008PEP     CB36635  12.772  21.521   8.642  0.1985 -0.5700 -0.1962
 1008PEP     CB36636  12.400  21.378   8.774  0.0055 -0.1701 -0.1704
 1008PEP     CB36637  12.213  21.462   9.154 -0.1489 -0.5011 -0.2110
 1008PEP     CB36638  12.379  21.559   9.600 -0.0322 -0.1239  0.1463
 1008PEP     CB36639  12.845  21.486   9.706 -0.0072 -0.0695  0.3116
 1008PEP     CB36640  13.247  21.352   9.636  0.0167 -0.2996  0.1978
 1009PEP     CB36641   7.819   6.035   4.934  0.0247 -0.1489 -0.2515
 1009PEP     CB36642   8.174   6.293   4.690 -0.1518  0.0934  0.0424
 1009PEP     CB36643   8.252   6.552   4.321  0.0438  0.2654  0.3571
 1009PEP     CB36644   8.090   6.730   4.002 -0.1741  0.0184 -0.0641
 1009PEP     CB36645   8.069   6.920   3.622  0.1277 -0.0807  0.5385
 1009PEP     CB36646   8.089   6.745   3.224 -0.1658 -0.2778  0.2290
 1009PEP     CB36647   7.898   6.416   3.089 -0.2355  0.2615  0.0046
 1009PEP     CB36648   7.628   6.031   3.057 -0.2144  0.0560  0.2894
 1009PEP     CB36649   7.392   5.704   3.194  0.1581  0.1055  0.0245
 1009PEP     CB36650   7.119   5.358   3.148 -0.0202  0.0966  0.1044
 1009PEP     CB36651   6.758   5.301   2.917 -0.0222  0.2174  0.5495
 1009PEP     CB36652   6.559   5.490   2.632 -0.2829 -0.2179 -0.0802
 1009PEP     CB36653   6.167   5.515   2.357 -0.1841 -0.2061  0.5400
 1009PEP     CB36654   5.776   5.793   2.314  0.2266 -0.1065 -0.0832
 1009PEP     CB36655   5.320   5.904   2.338  0.1798 -0.0330  0.2180
 1009PEP     CB36656   4.856   5.940   2.421  0.2580 -0.1405  0.2180
 1009PEP     CB36657   4.435   5.759   2.249 -0.1224  0.2158 -0.0890
 1009PEP     CB36658   4.280   5.621   1.785  0.5594 -0.3776  0.1100
 1009PEP     CB36659   4.464   5.752   1.409 -0.0621  0.0402 -0.0141
 1009PEP     CB36660   4.634   6.173   1.130  0.0910  0.0500  0.1153
 1009PEP     CB36661   4.991   6.361   0.975  0.2248 -0.4013  0.3720
 1009PEP     CB36662   5.424   6.463   1.149 -0.0394 -0.2751  0.3529
 1009PEP     CB36663   5.830   6.347   1.160  0.0726  0.2270 -0.0371
 1009PEP     CB36664   6.229   6.410   1.284 -0.1471  0.1612 -0.1969
 1009PEP     CB36665   6.547   6.765   1.308 -0.1572 -0.5300  0.2426
 1009PEP     CB36666   6.607   7.194   1.069  0.0289 -0.2738  0.2348
 1009PEP     CB36667   6.831   7.593   0.840 -0.0221 -0.2935  0.0157
 1009PEP     CB36668   6.746   8.031   0.831  0.2623  0.2892  0.1438
 1009PEP     CB36669   6.646   8.341   1.131 -0.2723  0.1729 -0.0229
 1009PEP     CB36670   6.285   8.616   1.201 -0.3924  0.0390 -0.3396
 1009PEP     CB36671   5.855   8.735   1.194  0.2175  0.0972 -0.0871
 1009PEP     CB36672   5.451   8.865   1.017 -0.1146 -0.3525 -0.1756
 1009PEP     CB36673   5.034   8.645   0.980  0.2697  0.0149  0.0544
 1009PEP     CB36674   4.669   8.369   0.945  0.4032  0.0735  0.1495
 1009PEP     CB36675   4.697   7.997   0.632 -0.0278  0.0509  0.1790
 1009PEP     CB36676   4.534   7.755   0.280  0.0868 -0.0980 -0.1162
 1009PEP     CB36677   4.388   7.488   0.037  0.0242 -0.0132 -0.2116
 1009PEP     CB36678   4.089   7.518  -0.305  0.2392 -0.2914  0.1591
 1009PEP     CB36679   3.835   7.771  -0.519  0.0404  0.2009 -0.0556
 1009PEP     CB36680   3.366   7.886  -0.601  0.1789 -0.3640 -0.2507
 1010PEP     CB36681   9.925  21.588  14.429  0.1860 -0.0506 -0.3955
 1010PEP     CB36682  10.048  21.241  14.481 -0.0792 -0.0744 -0.1973
 1010PEP     CB36683  10.136  20.817  14.395  0.1606  0.1593 -0.0671
 1010PEP     CB36684  10.124  20.485  14.232 -0.1488 -0.1456 -0.2541
 1010PEP     CB36685  10.409  20.391  13.839  0.2709  0.0653 -0.0926
 1010PEP     CB36686  10.831  20.322  13.789  0.2042  0.1447  0.0888
 1010PEP     CB36687  11.072  20.253  13.496  0.1955 -0.2981  0.0168
 1010PEP     CB36688  11.441  20.126  13.248  0.1409  0.2227  0.1029
 1010PEP     CB36689  11.785  20.241  12.952 -0.0952 -0.4090 -0.0924
 1010PEP     CB36690  12.168  19.948  12.806 -0.4536  0.2651 -0.2377
 1010PEP     CB36691  12.271  19.440  12.859 -0.2694  0.2669  0.3716
 1010PEP     CB36692  12.110  19.278  13.170 -0.2222 -0.1356  0.1092
 1010PEP     CB36693  11.876  19.481  13.483  0.0156  0.2419 -0.3912
 1010PEP     CB36694  11.466  19.651  13.539  0.1159  0.0071  0.0389
 1010PEP     CB36695  11.105  19.717  13.320  0.0268 -0.1652  0.1260
 1010PEP     CB36696  10.623  19.511  13.183  0.1713 -0.1632  0.2749
 1010PEP     CB36697  10.315  19.334  12.912  0.0424 -0.0551 -0.0533
 1010PEP     CB36698   9.863  19.440  12.657  0.0134 -0.1953  0.1041
 1010PEP     CB36699   9.642  19.735  12.381  0.0866 -0.3604  0.1355
 1010PEP     CB36700   9.497  20.027  12.072 -0.1122  0.4659 -0.0474
 1010PEP     CB36701   9.396  20.099  11.591  0.1082 -0.0221  0.1419
 1010PEP     CB36702   9.370  20.561  11.461  0.0365 -0.4766 -0.2400
 1010PEP     CB36703   9.649  20.895  11.466 -0.3004 -0.1126 -0.1684
 1010PEP     CB36704   9.782  21.285  11.203 -0.0592  0.0419  0.0131
 1010PEP     CB36705  10.027  21.493  10.877 -0.3232 -0.1950  0.2600
 1010PEP     CB36706  10.327  21.517  10.552  0.0665 -0.0730 -0.0174
 1010PEP     CB36707  10.675  21.683  10.395 -0.1759  0.0486 -0.1417
 1010PEP     CB36708  10.931  22.038  10.637  0.0579  0.4766  0.0485
 1010PEP     CB36709  10.738  22.348  10.895 -0.2457  0.1172 -0.1325
 1010PEP     CB36710  10.389  22.308  11.155 -0.1643 -0.1225 -0.1230
 1010PEP     CB36711  10.191  21.926  11.292 -0.2778  0.4496  0.2352
 1010PEP     CB36712   9.785  21.813  11.174 -0.0393  0.4756  0.1211
 1010PEP     CB36713   9.316  21.637  11.157 -0.0563  0.0679  0.2875
 1010PEP     CB36714   8.899  21.365  11.100 -0.0953 -0.0067 -0.2709
 1010PEP     CB36715   8.710  21.001  11.114  0.2674  0.2498  0.2470
 1010PEP     CB36716   8.437  20.826  10.911  0.1862 -0.1901  0.2663
 1010PEP     CB36717   8.274  20.444  10.817  0.2726 -0.1722 -0.1282
 1010PEP     CB36718   8.045  20.114  10.588 -0.0135 -0.1169  0.0065
 1010PEP     CB36719   7.724  19.750  10.713 -0.1628  0.0789 -0.0572
 1010PEP     CB36720   7.666  19.404  10.878 -0.0836 -0.0226 -0.1860
 1011PEP     CB36721   3.431   4.507  10.874 -0.0360 -0.1975 -0.0948
 1011PEP     CB36722   3.019   4.634  10.657  0.4527 -0.5019 -0.1882
 1011PEP     CB36723   2.670   4.824  10.525 -0.2342  0.2698 -0.0968
 1011PEP     CB36724   2.307   5.008  10.732 -0.2583 -0.0531 -0.1610
 1011PEP     CB36725   2.265   5.440  10.894 -0.1213  0.3058 -0.0549
 1011PEP     CB36726   2.618   5.666  10.823 -0.0558  0.0559 -0.0855
 1011PEP     CB36727   2.760   5.571  10.458  0.2236  0.2149 -0.2997
 1011PEP     CB36728   3.197   5.727  10.298 -0.0160 -0.2868 -0.1635
 1011PEP     CB36729   3.437   5.924  10.589  0.4079  0.1592  0.2317
 1011PEP     CB36730   3.198   6.093  10.957  0.0883 -0.0896 -0.4553
 1011PEP     CB36731   2.871   5.932  11.083  0.1232  0.0040 -0.0819
 1011PEP     CB36732   2.408   5.980  11.197 -0.0081 -0.0275 -0.0436
 1011PEP     CB36733   2.033   6.119  11.083  0.1489  0.2223 -0.0391
 1011PEP     CB36734   1.570   6.254  11.086  0.3081 -0.1306  0.2666
 1011PEP     CB36735   1.247   6.458  11.364  0.0112 -0.1005 -0.3822
 1011PEP     CB36736   1.027   6.774  11.628 -0.0932 -0.1103 -0.3952
 1011PEP     CB36737   0.700   7.072  11.682 -0.1045  0.0282  0.1918
 1011PEP     CB36738   0.332   7.300  11.572 -0.0093  0.2206  0.5186
 1011PEP     CB36739  -0.090   7.169  11.554  0.0877  0.1633  0.3250
 1011PEP     CB36740  -0.488   7.100  11.351 -0.0099 -0.1390  0.2560
 1011PEP     CB36741  -0.762   6.855  11.199 -0.0957  0.2676 -0.5168
 1011PEP     CB36742  -1.161   6.665  11.127 -0.1361 -0.0149 -0.3697
 1011PEP     CB36743  -1.434   6.291  11.225 -0.3383  0.2355  0.1047
 1011PEP     CB36744  -1.739   6.057  11.354  0.1688 -0.2759  0.2155
 1011PEP     CB36745  -1.883   6.038  11.753  0.3741 -0.1392  0.3625
 1011PEP     CB36746  -2.118   6.189  12.144  0.0382 -0.0624 -0.2453
 1011PEP     CB36747  -2.122   6.161  12.597  0.1814  0.0769  0.2062
 1011PEP     CB36748  -2.010   5.996  12.999  0.0384 -0.0814 -0.3220
 1011PEP     CB36749  -1.866   5.803  13.333 -0.0104  0.1936  0.0762
 1011PEP     CB36750  -1.885   5.779  13.812  0.2002 -0.2855  0.0010
 1011PEP     CB36751  -1.858   6.216  14.114  0.1557  0.4301 -0.1733
 1011PEP     CB36752  -2.150   6.428  14.013  0.2364  0.0267  0.2233
 1011PEP     CB36753  -2.388   6.521  13.757 -0.1463  0.1124  0.0301
 1011PEP     CB36754  -2.790   6.713  13.712  0.3023  0.1430 -0.0428
 1011PEP     CB36755  -3.192   6.900  13.899  0.4347  0.0420  0.2571
 1011PEP     CB36756  -3.685   6.902  14.025  0.0122 -0.3209  0.2501
 1011PEP     CB36757  -3.833   7.023  14.357 -0.2866 -0.1821  0.1080
 1011PEP     CB36758  -4.155   6.813  14.689 -0.2293 -0.2578 -0.1209
 1011PEP     CB36759  -4.451   6.369  14.527 -0.1684  0.0601 -0.3423
 1011PEP     CB36760  -4.337   6.098  14.236 -0.2459  0.0910  0.1397
 1012PEP     CB36761   5.132   1.523   6.888 -0.0673 -0.2080 -0.3611
 1012PEP     CB36762   4.752   1.344   7.099 -0.3985 -0.0567 -0.0583
 1012PEP     CB36763   4.368   1.425   7.378  0.2360 -0.1072  0.1943
 1012PEP     CB36764   3.929   1.221   7.397 -0.0093  0.1779  0.0450
 1012PEP     CB36765   3.581   1.196   7.093 -0.1794 -0.1661  0.1112
 1012PEP     CB36766   3.567   1.318   6.663  0.5627  0.3201 -0.3555
 1012PEP     CB36767   3.879   1.250   6.437  0.0594  0.1207 -0.1216
 1012PEP     CB36768   4.293   1.370   6.572  0.2050 -0.0512  0.1360
 1012PEP     CB36769   4.639   1.518   6.591 -0.2081  0.1614 -0.1506
 1012PEP     CB36770   4.894   1.799   6.512 -0.0587 -0.0526 -0.3189
 1012PEP     CB36771   5.074   1.845   6.141 -0.1479 -0.2026  0.0059
 1012PEP     CB36772   5.291   1.628   5.900  0.3038 -0.1069 -0.2658
 1012PEP     CB36773   5.651   1.442   5.711 -0.0485 -0.1181  0.1187
 1012PEP     CB36774   5.925   1.164   5.578 -0.3130 -0.1541  0.4027
 1012PEP     CB36775   6.289   1.070   5.437  0.3780 -0.0986  0.4977
 1012PEP     CB36776   6.687   0.889   5.408 -0.0720 -0.2558 -0.1653
 1012PEP     CB36777   7.172   1.100   5.382 -0.0753 -0.1276  0.2142
 1012PEP     CB36778   7.646   1.066   5.493 -0.0254  0.2050 -0.0913
 1012PEP     CB36779   7.892   0.644   5.595  0.1701  0.1430 -0.2214
 1012PEP     CB36780   8.243   0.300   5.554  0.4407  0.2389 -0.0029
 1012PEP     CB36781   8.530  -0.068   5.511 -0.0395 -0.3500 -0.2012
 1012PEP     CB36782   8.563  -0.513   5.430 -0.4986  0.1058 -0.1774
 1012PEP     CB36783   8.328  -0.840   5.672 -0.1567 -0.1686 -0.0218
 1012PEP     CB36784   8.105  -1.265   5.713  0.2699 -0.0513 -0.0800
 1012PEP     CB36785   8.076  -1.529   6.107 -0.0824  0.0981  0.2821
 1012PEP     CB36786   7.867  -1.387   6.530  0.4114  0.2874  0.1656
 1012PEP     CB36787   7.864  -0.962   6.728  0.1716  0.3324  0.2447
 1012PEP     CB36788   8.112  -0.556   6.642  0.2311  0.2857 -0.3157
 1012PEP     CB36789   7.996  -0.229   6.295 -0.2699  0.1752  0.3753
 1012PEP     CB36790   7.583  -0.128   6.059 -0.1583  0.2009 -0.0156
 1012PEP     CB36791   7.367  -0.468   5.878  0.2227  0.0805 -0.1840
 1012PEP     CB36792   7.103  -0.795   5.665 -0.1257 -0.1138  0.2179
 1012PEP     CB36793   6.583  -0.907   5.806 -0.2531 -0.4952 -0.1509
 1012PEP     CB36794   6.313  -0.727   6.117 -0.1472 -0.1501  0.0151
 1012PEP     CB36795   5.860  -0.578   6.121  0.3311  0.2996  0.4961
 1012PEP     CB36796   5.421  -0.632   6.244  0.3678 -0.1104 -0.1204
 1012PEP     CB36797   5.062  -0.847   6.069  0.0151 -0.2397 -0.1351
 1012PEP     CB36798   4.969  -1.033   5.698 -0.2946  0.3844 -0.0301
 1012PEP     CB36799   4.950  -1.295   5.421  0.0749 -0.2867 -0.4288
 1012PEP     CB36800   4.871  -1.718   5.151 -0.1246 -0.2467  0.0713
 1013PEP     CB36801   4.179   7.488   3.367  0.0258 -0.3355  0.0000
 1013PEP     CB36802   4.365   7.820   3.474  0.2673 -0.1103  0.0204
 1013PEP     CB36803   4.427   8.216   3.414 -0.0555  0.0938 -0.3028
 1013PEP     CB36804   4.720   8.441   3.586  0.3231 -0.0338 -0.1861
 1013PEP     CB36805   5.171   8.563   3.633  0.4057 -0.0794 -0.2477
 1013PEP     CB36806   5.257   8.955   3.456  0.1007  0.3994  0.4003
 1013PEP     CB36807   5.117   9.134   3.038 -0.0837  0.3956  0.0826
 1013PEP     CB36808   5.338   9.164   2.675  0.1011 -0.1968  0.0461
 1013PEP     CB36809   5.627   8.860   2.549 -0.1281 -0.0472  0.2537
 1013PEP     CB36810   5.653   8.433   2.373 -0.0502  0.0917  0.2758
 1013PEP     CB36811   5.361   8.109   2.410  0.0787 -0.1124 -0.0046
 1013PEP     CB36812   5.294   7.709   2.556  0.1447  0.0788  0.3517
 1013PEP     CB36813   4.949   7.399   2.579  0.1205  0.2802  0.0883
 1013PEP     CB36814   4.628   7.141   2.443  0.1450 -0.0405  0.1500
 1013PEP     CB36815   4.391   7.215   2.047  0.0407  0.1005  0.0848
 1013PEP     CB36816   4.392   7.489   1.723 -0.3008  0.1112  0.0982
 1013PEP     CB36817   4.403   7.949   1.850  0.2752 -0.1082 -0.2163
 1013PEP     CB36818   4.476   8.055   2.237 -0.0387  0.3272 -0.1836
 1013PEP     CB36819   4.877   8.100   2.613  0.2816  0.3861 -0.0581
 1013PEP     CB36820   5.186   8.046   2.976  0.0774 -0.0670  0.1047
 1013PEP     CB36821   5.343   8.131   3.305  0.2853 -0.0232 -0.4170
 1013PEP     CB36822   5.445   8.114   3.750  0.0022  0.3080 -0.4126
 1013PEP     CB36823   5.506   7.865   4.048  0.0469 -0.2274 -0.1642
 1013PEP     CB36824   5.313   7.623   4.295  0.1216 -0.1254 -0.0815
 1013PEP     CB36825   4.922   7.494   4.592  0.2159 -0.0151 -0.0154
 1013PEP     CB36826   4.537   7.244   4.792  0.1418  0.3085 -0.0768
 1013PEP     CB36827   4.218   6.902   4.870 -0.1629  0.1697  0.0127
 1013PEP     CB36828   3.953   6.613   4.986 -0.0748 -0.0069 -0.0843
 1013PEP     CB36829   3.469   6.408   4.986 -0.0380  0.0610  0.0105
 1013PEP     CB36830   3.139   6.538   4.681  0.3657 -0.2404  0.0758
 1013PEP     CB36831   3.271   6.761   4.310  0.0327  0.0311  0.0510
 1013PEP     CB36832   3.661   7.048   4.123  0.5001  0.2279  0.0880
 1013PEP     CB36833   4.115   6.991   4.334  0.1274  0.1041 -0.0568
 1013PEP     CB36834   4.262   6.557   4.565 -0.2945 -0.0623 -0.2491
 1013PEP     CB36835   4.500   6.400   4.901 -0.1778 -0.3675 -0.0195
 1013PEP     CB36836   4.425   6.497   5.308 -0.2165 -0.0962  0.0628
 1013PEP     CB36837   4.193   6.782   5.574  0.0607  0.1127 -0.3441
 1013PEP     CB36838   3.787   7.030   5.571  0.1105 -0.1587 -0.2578
 1013PEP     CB36839   3.483   7.357   5.429 -0.5017  0.2503 -0.0549
 1013PEP     CB36840   3.090   7.528   5.399  0.0561  0.2198 -0.2089
 1014PEP     CB36841  14.678   2.922   3.777  0.3032  0.1464  0.1198
 1014PEP     CB36842  15.076   2.731   3.775  0.2243 -0.3874 -0.2580
 1014PEP     CB36843  15.283   2.510   3.593 -0.0251 -0.2486  0.0814
 1014PEP     CB36844  15.273   2.234   3.332  0.0490 -0.0370 -0.3339
 1014PEP     CB36845  15.332   2.108   2.897 -0.1978 -0.3888 -0.0265
 1014PEP     CB36846  15.455   1.845   2.561  0.0862 -0.1258  0.7118
 1014PEP     CB36847  15.905   1.673   2.528  0.2593  0.1705 -0.3950
 1014PEP     CB36848  16.186   1.458   2.792 -0.5435  0.0844 -0.0132
 1014PEP     CB36849  16.603   1.595   3.055  0.2118  0.2746 -0.0307
 1014PEP     CB36850  16.922   1.716   3.363  0.1921 -0.1025 -0.0712
 1014PEP     CB36851  16.924   1.913   3.769  0.2336 -0.0108 -0.1069
 1014PEP     CB36852  17.150   2.102   4.133  0.1011  0.0020 -0.1027
 1014PEP     CB36853  17.562   2.120   4.262 -0.2401 -0.0037 -0.4463
 1014PEP     CB36854  17.817   1.856   4.478  0.1671 -0.0866 -0.0261
 1014PEP     CB36855  17.672   1.516   4.701  0.1072 -0.1421 -0.5772
 1014PEP     CB36856  17.528   1.214   4.969 -0.1966 -0.0075  0.3520
 1014PEP     CB36857  17.662   0.758   4.879 -0.2971  0.0329  0.1600
 1014PEP     CB36858  18.012   0.456   4.977  0.0322  0.0089  0.0795
 1014PEP     CB36859  18.221   0.208   5.288  0.3556  0.1865  0.3614
 1014PEP     CB36860  18.237  -0.180   5.551  0.0696  0.3106 -0.1319
 1014PEP     CB36861  18.010  -0.462   5.607  0.1244 -0.4175  0.4244
 1014PEP     CB36862  17.882  -0.784   5.284 -0.1006  0.1650  0.1118
 1014PEP     CB36863  17.969  -1.080   4.943  0.0079  0.1341 -0.0997
 1014PEP     CB36864  18.194  -1.385   4.695  0.1237  0.2161 -0.1543
 1014PEP     CB36865  18.600  -1.615   4.658  0.0612 -0.1111  0.0388
 1014PEP     CB36866  18.906  -1.778   4.375  0.0084 -0.1724 -0.1120
 1014PEP     CB36867  19.292  -1.701   4.130 -0.0826 -0.1902 -0.0958
 1014PEP     CB36868  19.761  -1.682   4.179 -0.2050 -0.2958  0.1577
 1014PEP     CB36869  19.986  -2.126   4.377  0.3438 -0.1877 -0.0525
 1014PEP     CB36870  20.247  -2.379   4.588  0.0173  0.0282 -0.0206
 1014PEP     CB36871  20.481  -2.590   4.897  0.2399 -0.0405  0.0721
 1014PEP     CB36872  20.751  -2.511   5.201  0.2091  0.1457 -0.6240
 1014PEP     CB36873  21.044  -2.194   5.244  0.1014  0.2248  0.1245
 1014PEP     CB36874  20.892  -1.735   5.211 -0.2357  0.0451 -0.1579
 1014PEP     CB36875  20.471  -1.510   5.139 -0.1644  0.2747  0.1375
 1014PEP     CB36876  20.286  -1.243   5.192 -0.0407 -0.2747  0.0922
 1014PEP     CB36877  20.182  -0.788   5.408 -0.2837  0.0086 -0.1859
 1014PEP     CB36878  20.106  -0.297   5.468 -0.1188 -0.4141 -0.1089
 1014PEP     CB36879  19.923   0.106   5.392 -0.1523 -0.0884 -0.0714
 1014PEP     CB36880  19.782   0.483   5.368 -0.0394 -0.2963  0.1637
 1015PEP     CB36881   6.535  17.160  11.517  0.0450  0.0787 -0.2262
 1015PEP     CB36882   6.433  17.040  11.816 -0.3262  0.2394  0.0721
 1015PEP     CB36883   6.089  17.010  12.022 -0.2835  0.2854 -0.0542
 1015PEP     CB36884   5.574  16.843  11.942  0.0208 -0.1395  0.0206
 1015PEP     CB36885   5.206  17.048  11.882  0.4674  0.1706 -0.1025
 1015PEP     CB36886   4.870  17.353  11.879 -0.1747  0.0255  0.0293
 1015PEP     CB36887   4.923  17.703  12.151 -0.1710 -0.0778 -0.2022
 1015PEP     CB36888   4.771  18.150  12.263  0.3284  0.2189 -0.0038
 1015PEP     CB36889   4.814  18.696  12.379  0.2134  0.0812  0.1720
 1015PEP     CB36890   5.074  19.056  12.314 -0.1755  0.0352  0.2382
 1015PEP     CB36891   5.447  19.259  12.183  0.0513  0.2213  0.4337
 1015PEP     CB36892   5.718  19.632  12.043 -0.0479  0.1592  0.2493
 1015PEP     CB36893   5.772  19.805  11.638 -0.0586  0.2983 -0.0005
 1015PEP     CB36894   5.582  19.794  11.182  0.3233 -0.0351 -0.0357
 1015PEP     CB36895   5.951  19.605  10.841  0.3259  0.2679  0.0769
 1015PEP     CB36896   6.345  19.560  10.859  0.0236  0.4805 -0.2119
 1015PEP     CB36897   6.733  19.373  10.811 -0.3334  0.1606  0.0063
 1015PEP     CB36898   7.168  19.484  10.731 -0.2589 -0.3423 -0.1125
 1015PEP     CB36899   7.251  19.892  10.659 -0.0564  0.3192 -0.0148
 1015PEP     CB36900   7.051  20.224  10.824 -0.0646 -0.1638  0.1844
 1015PEP     CB36901   6.656  20.479  11.008 -0.0243  0.0625 -0.0533
 1015PEP     CB36902   6.273  20.528  11.020  0.0095 -0.0836 -0.2555
 1015PEP     CB36903   5.842  20.549  11.085  0.4916 -0.0904 -0.1110
 1015PEP     CB36904   5.463  20.376  10.974  0.3286 -0.2057  0.3727
 1015PEP     CB36905   5.108  20.004  11.022  0.0813 -0.3697  0.2473
 1015PEP     CB36906   5.130  19.615  11.305  0.2427  0.0771  0.2952
 1015PEP     CB36907   5.494  19.446  11.475 -0.1011 -0.3029 -0.4454
 1015PEP     CB36908   5.870  19.266  11.365 -0.2231  0.3246 -0.6307
 1015PEP     CB36909   6.055  18.969  11.148  0.3401  0.3065  0.1729
 1015PEP     CB36910   6.390  19.079  10.738 -0.1587  0.4343 -0.1856
 1015PEP     CB36911   6.710  18.974  10.450 -0.0234 -0.0311  0.1256
 1015PEP     CB36912   6.740  19.016  10.040 -0.0571  0.5664 -0.0898
 1015PEP     CB36913   6.946  19.295   9.761 -0.4944 -0.1878  0.1197
 1015PEP     CB36914   7.200  19.667   9.563  0.0120  0.0595  0.0628
 1015PEP     CB36915   7.293  19.891   9.168 -0.2687 -0.0134 -0.0995
 1015PEP     CB36916   6.938  20.107   8.947 -0.0982 -0.0115  0.2642
 1015PEP     CB36917   6.774  20.538   8.741  0.3554 -0.1186  0.3233
 1015PEP     CB36918   6.718  20.897   8.529  0.0726  0.1145  0.0202
 1015PEP     CB36919   6.749  21.171   8.211  0.1688  0.0476  0.1140
 1015PEP     CB36920   6.791  21.536   8.050 -0.1573  0.0029  0.0624
 1016PEP     CB36921  18.463   5.624   6.255  0.2560  0.3384 -0.1259
 1016PEP     CB36922  18.317   5.457   6.580  0.2059  0.2848 -0.2865
 1016PEP     CB36923  18.296   5.363   7.009 -0.0461 -0.2470  0.0003
 1016PEP     CB36924  18.372   5.681   7.311  0.1447 -0.1054  0.5101
 1016PEP     CB36925  18.137   6.137   7.373 -0.3806  0.3379  0.1727
 1016PEP     CB36926  17.872   6.473   7.471  0.2884 -0.0076  0.1079
 1016PEP     CB36927  17.545   6.715   7.379  0.0329  0.0801 -0.4666
 1016PEP     CB36928  17.509   7.037   7.073 -0.1736  0.2506 -0.0492
 1016PEP     CB36929  17.560   7.431   6.764  0.0225  0.0214 -0.0507
 1016PEP     CB36930  17.874   7.660   6.637  0.1925  0.1495  0.0359
 1016PEP     CB36931  18.118   8.054   6.498 -0.3379 -0.0772 -0.1287
 1016PEP     CB36932  18.224   8.453   6.202 -0.0670 -0.5402 -0.2806
 1016PEP     CB36933  18.255   8.869   6.023  0.2144 -0.1206  0.2661
 1016PEP     CB36934  18.102   9.246   5.911  0.2069  0.2779  0.2341
 1016PEP     CB36935  18.115   9.458   5.482  0.0798 -0.0635 -0.5162
 1016PEP     CB36936  18.239   9.199   5.204  0.1139  0.2249  0.2652
 1016PEP     CB36937  18.637   9.025   5.192  0.1604 -0.1862 -0.0034
 1016PEP     CB36938  18.991   9.141   5.412 -0.3266 -0.3721 -0.0956
 1016PEP     CB36939  19.449   9.332   5.400  0.1948  0.1129 -0.0580
 1016PEP     CB36940  19.720   9.601   5.387 -0.0410 -0.3582 -0.2123
 1016PEP     CB36941  20.032   9.857   5.170  0.0238 -0.5181  0.0588
 1016PEP     CB36942  20.112  10.268   4.971 -0.5501 -0.3689  0.1877
 1016PEP     CB36943  20.012  10.586   4.693 -0.2616 -0.1034  0.2706
 1016PEP     CB36944  19.732  10.916   4.402 -0.1086 -0.3707  0.1963
 1016PEP     CB36945  19.383  11.206   4.275  0.2086  0.0140 -0.2387
 1016PEP     CB36946  18.843  11.239   4.384  0.0242  0.1316  0.4116
 1016PEP     CB36947  18.497  11.479   4.300  0.0044 -0.0625 -0.3393
 1016PEP     CB36948  18.472  11.760   4.004  0.0004 -0.2718 -0.3459
 1016PEP     CB36949  18.804  11.862   3.712 -0.0009 -0.2787 -0.1034
 1016PEP     CB36950  19.106  11.579   3.451  0.2381  0.3060 -0.3201
 1016PEP     CB36951  18.889  11.226   3.238 -0.0559 -0.0742  0.3104
 1016PEP     CB36952  18.417  11.168   3.247  0.0636 -0.1842 -0.0024
 1016PEP     CB36953  17.981  11.337   3.150  0.1818 -0.1529 -0.2617
 1016PEP     CB36954  17.881  11.479   2.707  0.2975 -0.3530 -0.0623
 1016PEP     CB36955  18.061  11.394   2.223  0.5424 -0.1979  0.0130
 1016PEP     CB36956  17.963  11.175   1.884  0.0322  0.1205 -0.3486
 1016PEP     CB36957  17.554  11.206   1.762 -0.0690 -0.1517 -0.0480
 1016PEP     CB36958  17.106  11.382   1.675  0.1730 -0.0134 -0.1764
 1016PEP     CB36959  16.646  11.313   1.427 -0.1106  0.3602  0.1542
 1016PEP     CB36960  16.292  11.448   1.526  0.4373  0.1606  0.0452
 1017PEP     CB36961   4.880  14.254   6.868 -0.1515  0.2775 -0.2050
 1017PEP     CB36962   4.505  14.547   7.047  0.3052 -0.1892  0.1451
 1017PEP     CB36963   4.328  14.805   7.479 -0.0487 -0.3101 -0.4542
 1017PEP     CB36964   4.682  14.887   7.980 -0.2431 -0.3409  0.2441
 1017PEP     CB36965   4.715  15.138   8.434  0.2002 -0.2689  0.0336
 1017PEP     CB36966   4.437  15.422   8.542 -0.0367 -0.1685 -0.1262
 1017PEP     CB36967   4.226  15.764   8.529  0.1442 -0.1743  0.2022
 1017PEP     CB36968   3.778  15.914   8.685 -0.1775 -0.2916 -0.4068
 1017PEP     CB36969   3.310  16.007   8.590  0.2588  0.0443 -0.0061
 1017PEP     CB36970   3.063  16.310   8.568 -0.0519  0.0717 -0.1372
 1017PEP     CB36971   3.017  16.748   8.457  0.0137 -0.4143  0.2190
 1017PEP     CB36972   3.009  16.976   8.040  0.0448  0.0459 -0.0258
 1017PEP     CB36973   2.895  17.169   7.624 -0.2574  0.4993  0.1357
 1017PEP     CB36974   2.500  17.221   7.558 -0.3105 -0.3824  0.1399
 1017PEP     CB36975   2.145  16.884   7.532 -0.4300  0.0342  0.3974
 1017PEP     CB36976   1.998  16.473   7.533 -0.7812 -0.1051 -0.2602
 1017PEP     CB36977   1.890  16.118   7.660 -0.0905 -0.6411 -0.4330
 1017PEP     CB36978   1.483  15.852   7.606 -0.0501 -0.2400  0.1521
 1017PEP     CB36979   1.211  15.480   7.228  0.0022  0.0703  0.0473
 1017PEP     CB36980   0.968  15.431   6.883 -0.2589 -0.1026  0.2613
 1017PEP     CB36981   0.860  15.135   6.580 -0.1804 -0.1976  0.3268
 1017PEP     CB36982   1.043  14.788   6.502  0.0025  0.0855 -0.0295
 1017PEP     CB36983   1.532  14.804   6.449 -0.2005  0.2788  0.0401
 1017PEP     CB36984   1.840  15.124   6.593  0.1668  0.2058  0.0967
 1017PEP     CB36985   1.812  15.552   6.543 -0.2054 -0.3267 -0.2022
 1017PEP     CB36986   1.505  15.886   6.306 -0.0572  0.1446 -0.1445
 1017PEP     CB36987   1.092  15.855   6.039  0.3367 -0.4038  0.0623
 1017PEP     CB36988   0.984  15.521   5.836 -0.4466 -0.2799  0.1613
 1017PEP     CB36989   0.916  15.400   5.376 -0.1410  0.0398  0.0189
 1017PEP     CB36990   1.024  15.480   4.936 -0.0490  0.1012 -0.0745
 1017PEP     CB36991   1.239  15.666   4.602  0.0785  0.1168  0.0918
 1017PEP     CB36992   1.133  15.688   4.202 -0.3664  0.2063  0.3347
 1017PEP     CB36993   1.283  15.916   3.912  0.1761  0.4976  0.1466
 1017PEP     CB36994   1.592  16.120   3.860  0.2151 -0.1760  0.2831
 1017PEP     CB36995   1.924  16.322   3.947 -0.0221  0.0712 -0.0126
 1017PEP     CB36996   2.304  16.363   4.189 -0.1714 -0.0459 -0.3638
 1017PEP     CB36997   2.582  16.591   4.433  0.1745  0.5059 -0.2304
 1017PEP     CB36998   2.922  16.762   4.700  0.1922  0.0471  0.1095
 1017PEP     CB36999   3.228  17.052   4.745  0.0757 -0.0019  0.0701
 1017PEP     CB37000   3.180  17.445   4.980  0.1117  0.1469 -0.3651
 1018PEP     CB37001   4.542   2.595   9.183 -0.1879 -0.4140  0.3628
 1018PEP     CB37002   4.434   2.413   8.794  0.2316 -0.1484 -0.2090
 1018PEP     CB37003   4.490   2.148   8.394  0.0604 -0.3941  0.1192
 1018PEP     CB37004   4.670   1.832   8.194 -0.3097  0.0512  0.0479
 1018PEP     CB37005   4.777   1.724   7.800  0.4794  0.3466 -0.3560
 1018PEP     CB37006   4.925   1.824   7.405 -0.5682  0.1127  0.0830
 1018PEP     CB37007   5.074   1.964   7.068  0.0155  0.2755  0.2904
 1018PEP     CB37008   5.320   1.938   6.633 -0.2804 -0.2003 -0.1499
 1018PEP     CB37009   5.645   1.904   6.287 -0.0234 -0.3905  0.0285
 1018PEP     CB37010   6.005   1.623   6.208 -0.0830  0.2844 -0.2870
 1018PEP     CB37011   5.960   1.165   6.125  0.1551 -0.1871  0.5856
 1018PEP     CB37012   5.757   0.904   6.457  0.2295 -0.3655 -0.1006
 1018PEP     CB37013   5.456   0.885   6.713  0.1036 -0.1649  0.3418
 1018PEP     CB37014   5.005   1.121   6.685  0.1082  0.3388  0.2623
 1018PEP     CB37015   4.734   1.049   6.423 -0.3741 -0.1944 -0.3780
 1018PEP     CB37016   4.940   0.976   5.895  0.1231  0.1251 -0.6621
 1018PEP     CB37017   5.055   0.691   5.524  0.2250  0.0925 -0.0094
 1018PEP     CB37018   5.165   0.293   5.274 -0.1302 -0.0237 -0.0174
 1018PEP     CB37019   5.365  -0.002   5.000  0.0894  0.0685  0.2016
 1018PEP     CB37020   5.406  -0.448   4.910 -0.2947 -0.0761  0.0001
 1018PEP     CB37021   5.542  -0.888   4.943 -0.3352  0.2846 -0.3218
 1018PEP     CB37022   5.297  -1.245   5.019  0.2147 -0.2619 -0.0424
 1018PEP     CB37023   5.356  -1.774   5.108  0.1954  0.0743 -0.5657
 1018PEP     CB37024   5.239  -2.141   5.338 -0.1953 -0.0222  0.2611
 1018PEP     CB37025   5.158  -2.658   5.411 -0.3222 -0.0478  0.2480
 1018PEP     CB37026   5.295  -3.055   5.147  0.0352 -0.1394 -0.0048
 1018PEP     CB37027   5.251  -3.469   4.862 -0.3676 -0.4046  0.2913
 1018PEP     CB37028   4.895  -3.560   4.543 -0.1008 -0.3392 -0.1317
 1018PEP     CB37029   4.767  -3.374   4.129 -0.2221 -0.0890  0.0471
 1018PEP     CB37030   4.649  -3.074   3.815 -0.2110 -0.3722  0.1567
 1018PEP     CB37031   4.761  -2.972   3.297 -0.2022  0.4148  0.1272
 1018PEP     CB37032   4.849  -2.998   2.850 -0.2979  0.2280 -0.1054
 1018PEP     CB37033   4.599  -2.916   2.479  0.4417  0.0727 -0.0023
 1018PEP     CB37034   4.140  -2.795   2.486 -0.0839  0.0078 -0.0149
 1018PEP     CB37035   3.855  -3.032   2.823  0.4016  0.0278 -0.3431
 1018PEP     CB37036   3.995  -3.401   2.963 -0.3753 -0.0303 -0.2273
 1018PEP     CB37037   4.493  -3.477   2.893 -0.4169 -0.0986  0.1142
 1018PEP     CB37038   4.781  -3.410   2.562 -0.3206  0.0996  0.1464
 1018PEP     CB37039   4.729  -3.295   2.142  0.2087  0.0303  0.2015
 1018PEP     CB37040   4.520  -2.852   1.922 -0.0201 -0.1251 -0.1194
 1019PEP     CB37041  15.610  18.950   9.966  0.1651 -0.2611  0.3856
 1019PEP     CB37042  15.371  18.927   9.661  0.3488  0.2596 -0.0743
 1019PEP     CB37043  15.201  19.163   9.307 -0.1253 -0.5583 -0.0768
 1019PEP     CB37044  14.963  19.332   9.088  0.5262 -0.1685  0.5539
 1019PEP     CB37045  14.608  19.619   9.002 -0.0310 -0.1116 -0.2814
 1019PEP     CB37046  14.200  19.708   8.786 -0.0711 -0.2251 -0.3560
 1019PEP     CB37047  13.933  19.461   8.570  0.0376  0.3205 -0.5671
 1019PEP     CB37048  14.051  19.086   8.343 -0.1807  0.2345  0.2880
 1019PEP     CB37049  14.309  18.987   7.878  0.1152 -0.1741  0.2991
 1019PEP     CB37050  14.531  19.291   7.621 -0.2980  0.1394  0.0421
 1019PEP     CB37051  14.736  19.562   7.487  0.0268  0.0724  0.2043
 1019PEP     CB37052  14.964  19.915   7.562  0.0970 -0.1963  0.0038
 1019PEP     CB37053  15.239  20.141   7.775  0.3400  0.0455  0.0290
 1019PEP     CB37054  15.619  20.162   7.893  0.0313 -0.1318  0.1490
 1019PEP     CB37055  16.069  20.138   7.949  0.1078  0.0839 -0.3210
 1019PEP     CB37056  16.452  20.102   7.830  0.1198  0.1313 -0.3152
 1019PEP     CB37057  16.714  20.243   7.543 -0.0839 -0.3227 -0.0916
 1019PEP     CB37058  16.838  20.222   7.055  0.3303 -0.3859 -0.2353
 1019PEP     CB37059  17.176  20.438   6.801  0.2361  0.0237 -0.0820
 1019PEP     CB37060  17.349  20.748   6.465  0.2485  0.1789 -0.0062
 1019PEP     CB37061  17.702  20.892   6.231  0.1882 -0.0561 -0.0338
 1019PEP     CB37062  18.063  20.617   6.282 -0.0155 -0.1435 -0.1389
 1019PEP     CB37063  17.950  20.236   6.510  0.1479 -0.0108 -0.1684
 1019PEP     CB37064  17.504  20.193   6.512  0.0209  0.4470 -0.2185
 1019PEP     CB37065  17.146  20.198   6.231  0.1272 -0.6348  0.2947
 1019PEP     CB37066  16.847  20.394   5.915  0.2786  0.3028  0.0179
 1019PEP     CB37067  16.425  20.513   5.847 -0.0838  0.1752  0.0702
 1019PEP     CB37068  16.141  20.825   5.745 -0.2394 -0.2359  0.4401
 1019PEP     CB37069  15.716  21.023   5.604 -0.0530 -0.1826  0.1430
 1019PEP     CB37070  15.339  20.946   5.309  0.0839 -0.2881 -0.0303
 1019PEP     CB37071  14.865  20.819   5.269  0.0044  0.0334  0.0798
 1019PEP     CB37072  14.514  20.694   5.422  0.3718 -0.1108 -0.3379
 1019PEP     CB37073  14.226  20.331   5.570 -0.4793  0.2282 -0.1161
 1019PEP     CB37074  14.127  19.940   5.510 -0.0359 -0.0704  0.2707
 1019PEP     CB37075  14.056  19.483   5.365 -0.1733 -0.0147 -0.1028
 1019PEP     CB37076  14.210  19.014   5.576 -0.0052 -0.2046  0.3801
 1019PEP     CB37077  14.472  18.719   5.675  0.1598 -0.0900  0.0694
 1019PEP     CB37078  14.708  18.352   5.888  0.1860 -0.0531  0.5887
 1019PEP     CB37079  14.774  18.019   6.223  0.2069 -0.1736 -0.0141
 1019PEP     CB37080  14.887  17.777   6.496  0.0502  0.3244  0.0565
 1020PEP     CB37081   7.466   2.634   8.609  0.1095  0.3819  0.0404
 1020PEP     CB37082   7.512   2.896   8.301  0.0131  0.0718 -0.3327
 1020PEP     CB37083   7.630   2.792   7.907  0.3141  0.2708  0.1630
 1020PEP     CB37084   7.809   2.405   7.767 -0.4282  0.0237 -0.1217
 1020PEP     CB37085   7.868   2.047   7.543  0.4371  0.0828  0.3086
 1020PEP     CB37086   8.091   1.653   7.570  0.0676 -0.2999 -0.0503
 1020PEP     CB37087   8.492   1.404   7.529 -0.2648 -0.2320  0.0936
 1020PEP     CB37088   8.945   1.570   7.449 -0.0999 -0.2581  0.2357
 1020PEP     CB37089   9.112   1.976   7.470  0.0373 -0.0642 -0.2535
 1020PEP     CB37090   8.780   2.278   7.580 -0.2359 -0.0444  0.0559
 1020PEP     CB37091   8.390   2.283   7.820 -0.1373  0.2239 -0.1069
 1020PEP     CB37092   8.128   2.022   8.018  0.0992  0.0839 -0.4010
 1020PEP     CB37093   8.161   1.726   8.472 -0.2373  0.0759  0.1928
 1020PEP     CB37094   8.338   1.558   8.891  0.1938 -0.0569  0.0090
 1020PEP     CB37095   8.267   1.298   9.241 -0.2307  0.1460 -0.0604
 1020PEP     CB37096   7.983   1.135   9.528  0.0688  0.1475  0.0324
 1020PEP     CB37097   7.848   1.008   9.938  0.0758 -0.2941  0.3432
 1020PEP     CB37098   8.112   0.967  10.358 -0.0468 -0.3905  0.0420
 1020PEP     CB37099   8.314   1.387  10.409 -0.3016 -0.2976 -0.3837
 1020PEP     CB37100   8.516   1.713  10.151  0.0320  0.0691 -0.1296
 1020PEP     CB37101   8.793   1.746   9.814  0.2148 -0.1905 -0.0222
 1020PEP     CB37102   9.094   1.788   9.507 -0.0333  0.0073  0.0080
 1020PEP     CB37103   9.394   1.994   9.293  0.5347 -0.1248  0.0107
 1020PEP     CB37104   9.593   2.201   8.949 -0.0225 -0.3291 -0.3182
 1020PEP     CB37105   9.622   2.135   8.554 -0.1656 -0.1985 -0.1963
 1020PEP     CB37106   9.666   2.420   8.289  0.2542  0.4196 -0.4556
 1020PEP     CB37107   9.594   2.826   8.473  0.1218  0.2657 -0.1946
 1020PEP     CB37108   9.454   2.965   8.799  0.0051 -0.2015 -0.0704
 1020PEP     CB37109   9.068   2.948   8.956 -0.0192 -0.2357 -0.1295
 1020PEP     CB37110   8.646   2.615   8.857  0.1185  0.1415  0.1503
 1020PEP     CB37111   8.377   2.329   8.830  0.2695 -0.0844  0.0900
 1020PEP     CB37112   7.949   2.036   8.835 -0.2856 -0.0674  0.0801
 1020PEP     CB37113   7.584   1.975   8.499 -0.0871 -0.1341 -0.2072
 1020PEP     CB37114   7.260   1.752   8.357  0.2869  0.3902 -0.3579
 1020PEP     CB37115   6.776   1.769   8.423 -0.1174  0.1910 -0.2361
 1020PEP     CB37116   6.389   1.886   8.263  0.0330 -0.1543 -0.1054
 1020PEP     CB37117   6.037   1.839   7.994 -0.2506  0.0767  0.1209
 1020PEP     CB37118   5.815   1.452   7.756  0.1821  0.0385  0.1949
 1020PEP     CB37119   5.654   1.003   7.748 -0.2143 -0.2809 -0.2769
 1020PEP     CB37120   5.712   0.580   7.564 -0.0485  0.0413 -0.1014
 1021PEP     CB37121  19.982  11.665   3.936  0.0962  0.0101  0.1752
 1021PEP     CB37122  20.271  11.638   4.350  0.3059 -0.0653 -0.1873
 1021PEP     CB37123  20.406  11.448   4.673 -0.1827 -0.3780 -0.1809
 1021PEP     CB37124  20.367  11.412   5.090  0.3172  0.0190 -0.3279
 1021PEP     CB37125  20.201  11.232   5.465  0.0172 -0.0211  0.5693
 1021PEP     CB37126  20.335  10.784   5.471  0.1835  0.3238  0.4397
 1021PEP     CB37127  20.025  10.540   5.334  0.3545  0.0500  0.2077
 1021PEP     CB37128  19.633  10.570   5.021  0.0590 -0.2969 -0.0635
 1021PEP     CB37129  19.222  10.635   5.013  0.0399  0.3738  0.2396
 1021PEP     CB37130  18.776  10.794   5.254  0.3273  0.3021 -0.3215
 1021PEP     CB37131  18.456  10.762   5.528 -0.0158 -0.1777 -0.6835
 1021PEP     CB37132  18.163  10.676   5.846  0.0576 -0.0245  0.2451
 1021PEP     CB37133  17.815  10.355   5.960  0.1517 -0.4550  0.0295
 1021PEP     CB37134  17.702  10.103   6.174  0.2909  0.1267  0.2443
 1021PEP     CB37135  17.397  10.057   6.410  0.4595  0.3812  0.0937
 1021PEP     CB37136  17.022  10.347   6.490  0.0596  0.2755 -0.3860
 1021PEP     CB37137  16.828  10.734   6.375  0.1259 -0.0488  0.1939
 1021PEP     CB37138  16.555  10.955   6.536  0.2625 -0.0862 -0.2410
 1021PEP     CB37139  16.393  10.964   6.989 -0.2332  0.6029  0.2080
 1021PEP     CB37140  16.371  11.277   7.323 -0.0111  0.0534  0.1241
 1021PEP     CB37141  16.353  11.623   7.526  0.1361 -0.0859  0.3281
 1021PEP     CB37142  16.076  11.687   7.868 -0.0561  0.2453  0.2655
 1021PEP     CB37143  16.019  11.899   8.279  0.1975  0.1674  0.2375
 1021PEP     CB37144  16.008  12.129   8.608 -0.2185  0.0375  0.2554
 1021PEP     CB37145  15.715  12.359   8.905 -0.1023 -0.2697  0.2332
 1021PEP     CB37146  15.567  12.333   9.266 -0.3777 -0.0914  0.3064
 1021PEP     CB37147  15.635  12.176   9.656  0.1964  0.0828 -0.0703
 1021PEP     CB37148  15.768  11.926  10.032  0.1017  0.0398  0.1701
 1021PEP     CB37149  16.197  11.769  10.143 -0.1068 -0.0373 -0.0131
 1021PEP     CB37150  16.588  11.870  10.086 -0.1546  0.0630 -0.1295
 1021PEP     CB37151  16.956  12.119  10.163  0.1401  0.0762 -0.0362
 1021PEP     CB37152  16.984  12.498   9.894 -0.1361 -0.3906 -0.0559
 1021PEP     CB37153  16.701  12.377   9.570  0.0824 -0.0291 -0.3734
 1021PEP     CB37154  16.282  12.145   9.780  0.1444  0.1341  0.2471
 1021PEP     CB37155  16.001  12.350  10.076 -0.1478 -0.2454 -0.0957
 1021PEP     CB37156  15.776  12.636  10.330  0.1352 -0.2607 -0.1166
 1021PEP     CB37157  15.379  12.562  10.632  0.1617  0.2839 -0.1099
 1021PEP     CB37158  15.176  12.139  10.633  0.1829  0.0362  0.0142
 1021PEP     CB37159  15.194  11.681  10.570 -0.1177 -0.0519 -0.1700
 1021PEP     CB37160  15.146  11.245  10.509  0.0402  0.2990 -0.1496
 1022PEP     CB37161   1.264   0.763  14.188  0.2622 -0.0993 -0.5683
 1022PEP     CB37162   0.860   0.677  14.362 -0.3246 -0.0031 -0.1032
 1022PEP     CB37163   0.384   0.816  14.267  0.2328  0.0566  0.3985
 1022PEP     CB37164   0.139   1.072  14.003  0.0810 -0.3588  0.0927
 1022PEP     CB37165  -0.139   1.155  13.581  0.1809  0.0594 -0.3912
 1022PEP     CB37166  -0.047   1.144  13.243  0.0754  0.0913  0.0406
 1022PEP     CB37167   0.238   0.952  13.039 -0.2959 -0.3712  0.1064
 1022PEP     CB37168   0.400   0.524  12.884  0.0724  0.6042 -0.3520
 1022PEP     CB37169   0.192   0.184  13.137 -0.1228 -0.0437  0.1039
 1022PEP     CB37170  -0.149   0.221  13.479  0.1923  0.6942  0.1336
 1022PEP     CB37171  -0.468   0.283  13.889  0.2180 -0.0545  0.1004
 1022PEP     CB37172  -0.758   0.588  13.975 -0.3496 -0.3058  0.0536
 1022PEP     CB37173  -0.995   0.883  13.680  0.3732  0.2982 -0.2535
 1022PEP     CB37174  -1.082   0.772  13.227  0.3391  0.1607 -0.1347
 1022PEP     CB37175  -0.971   0.563  12.850  0.1695 -0.2669 -0.0689
 1022PEP     CB37176  -0.799   0.494  12.384 -0.2661  0.0794 -0.0850
 1022PEP     CB37177  -0.762   0.414  12.011  0.0115  0.1031 -0.0237
 1022PEP     CB37178  -0.711   0.311  11.567 -0.3122 -0.1767  0.2095
 1022PEP     CB37179  -0.980   0.198  11.160 -0.0102 -0.4836  0.0406
 1022PEP     CB37180  -1.217   0.238  10.761  0.0937  0.1280  0.2318
 1022PEP     CB37181  -1.434   0.015  10.464  0.1472 -0.1993 -0.2564
 1022PEP     CB37182  -1.307  -0.195  10.149  0.1809  0.2903 -0.1668
 1022PEP     CB37183  -1.348  -0.630   9.964  0.0524 -0.3352  0.0361
 1022PEP     CB37184  -1.314  -1.054  10.133  0.2013 -0.1554  0.0350
 1022PEP     CB37185  -1.121  -1.377  10.360 -0.3721 -0.1666  0.0809
 1022PEP     CB37186  -0.985  -1.665  10.405  0.4031 -0.0451  0.0495
 1022PEP     CB37187  -0.694  -1.977  10.386  0.3062  0.4109 -0.0364
 1022PEP     CB37188  -0.558  -2.364  10.565 -0.2762  0.2329 -0.1041
 1022PEP     CB37189  -0.518  -2.709  10.452  0.1418 -0.0094 -0.1636
 1022PEP     CB37190  -0.233  -3.063  10.261 -0.0878  0.4171  0.0740
 1022PEP     CB37191  -0.272  -3.414  10.036  0.1631 -0.0583 -0.4001
 1022PEP     CB37192  -0.618  -3.579   9.819 -0.4335  0.1758 -0.0492
 1022PEP     CB37193  -0.992  -3.702   9.803 -0.2130  0.0330  0.1696
 1022PEP     CB37194  -1.320  -3.994   9.770 -0.2545 -0.2122  0.0892
 1022PEP     CB37195  -1.743  -4.099   9.913 -0.1591  0.3041  0.2264
 1022PEP     CB37196  -2.111  -3.891  10.052 -0.1180 -0.0276 -0.3770
 1022PEP     CB37197  -2.396  -3.621  10.411 -0.0027 -0.1021  0.1261
 1022PEP     CB37198  -2.329  -3.245  10.631 -0.2142  0.2149 -0.2144
 1022PEP     CB37199  -2.179  -2.822  10.669  0.0105  0.2568 -0.0144
 1022PEP     CB37200  -1.797  -2.583  10.807 -0.0997 -0.1751 -0.1528
 1023PEP     CB37201  19.962  17.919   3.386 -0.4282  0.3319 -0.1777
 1023PEP     CB37202  19.829  18.036   2.947 -0.0571  0.0659 -0.1664
 1023PEP     CB37203  19.520  18.253   2.741 -0.2609 -0.1374 -0.0317
 1023PEP     CB37204  19.303  18.427   2.363 -0.0143  0.6238 -0.0193
 1023PEP     CB37205  19.213  18.420   2.007  0.3742 -0.4017 -0.0845
 1023PEP     CB37206  18.857  18.231   1.754  0.0855  0.0199 -0.2604
 1023PEP     CB37207  18.612  17.888   1.906  0.0468  0.1976 -0.2276
 1023PEP     CB37208  18.444  17.701   2.334 -0.4003 -0.1134  0.3688
 1023PEP     CB37209  18.034  17.673   2.560 -0.0596 -0.2427  0.1640
 1023PEP     CB37210  17.540  17.596   2.657  0.2029 -0.2104  0.2207
 1023PEP     CB37211  17.192  17.687   2.920  0.1454  0.0412 -0.2723
 1023PEP     CB37212  17.169  17.795   3.284  0.0951 -0.5129  0.3916
 1023PEP     CB37213  17.068  18.109   3.663  0.0330 -0.0971  0.3039
 1023PEP     CB37214  17.125  18.487   3.889  0.2231  0.6394 -0.0317
 1023PEP     CB37215  17.268  18.882   4.065 -0.0900  0.3808 -0.1471
 1023PEP     CB37216  17.317  19.248   4.302  0.0992  0.0650 -0.1697
 1023PEP     CB37217  17.600  19.465   4.457  0.0892 -0.2316  0.1199
 1023PEP     CB37218  17.957  19.732   4.506 -0.1471  0.1655  0.0259
 1023PEP     CB37219  18.281  19.810   4.728  0.1316 -0.1162 -0.0530
 1023PEP     CB37220  18.590  19.903   4.990  0.1552  0.3200  0.2472
 1023PEP     CB37221  18.668  19.926   5.327  0.3080 -0.1930 -0.1798
 1023PEP     CB37222  18.883  20.007   5.719 -0.0505  0.1262 -0.2068
 1023PEP     CB37223  19.258  19.832   6.025 -0.0322  0.3192 -0.5706
 1023PEP     CB37224  19.282  19.466   6.165 -0.1054  0.2094 -0.1560
 1023PEP     CB37225  18.876  19.257   6.165  0.2823 -0.3443 -0.1533
 1023PEP     CB37226  18.524  19.318   6.446  0.4069 -0.2460  0.1675
 1023PEP     CB37227  18.560  19.450   6.874 -0.1596 -0.0877  0.2401
 1023PEP     CB37228  18.948  19.613   7.075  0.1686 -0.1020 -0.5297
 1023PEP     CB37229  19.425  19.679   6.976  0.0593  0.1130 -0.2470
 1023PEP     CB37230  19.762  19.654   6.658 -0.0292  0.0383  0.0008
 1023PEP     CB37231  19.990  19.675   6.281  0.1439 -0.5389 -0.4883
 1023PEP     CB37232  20.323  19.821   6.156  0.4089  0.0038  0.0421
 1023PEP     CB37233  20.673  19.913   6.418 -0.1303 -0.3215 -0.2855
 1023PEP     CB37234  20.782  20.120   6.727 -0.2131 -0.0352  0.2260
 1023PEP     CB37235  20.957  20.521   6.859  0.5831 -0.1303  0.1392
 1023PEP     CB37236  21.417  20.760   6.756  0.0827 -0.4485  0.2580
 1023PEP     CB37237  21.803  20.712   6.580  0.1117 -0.2280  0.0983
 1023PEP     CB37238  22.014  20.309   6.502  0.1365 -0.0849 -0.0843
 1023PEP     CB37239  22.321  19.986   6.562  0.2082 -0.2087 -0.1613
 1023PEP     CB37240  22.521  19.649   6.804  0.0962 -0.3961 -0.4865
 1024PEP     CB37241   1.490  19.963  21.280 -0.2870  0.1606 -0.1288
 1024PEP     CB37242   1.799  19.844  21.560  0.1384 -0.2364  0.2686
 1024PEP     CB37243   2.058  19.434  21.443  0.1212 -0.2153  0.0626
 1024PEP     CB37244   2.156  19.182  21.170 -0.0707 -0.0655 -0.0695
 1024PEP     CB37245   2.116  18.844  20.836  0.2789 -0.5238 -0.0331
 1024PEP     CB37246   2.185  18.477  20.595 -0.2902 -0.2493  0.0924
 1024PEP     CB37247   2.159  18.089  20.447 -0.0812 -0.0873  0.5879
 1024PEP     CB37248   2.299  17.706  20.276  0.2098  0.2744 -0.2656
 1024PEP     CB37249   2.151  17.278  20.386  0.1619  0.1504 -0.3773
 1024PEP     CB37250   1.882  17.221  20.605  0.1241 -0.1054 -0.0009
 1024PEP     CB37251   1.877  17.117  21.025  0.0387  0.2586  0.1368
 1024PEP     CB37252   1.672  17.192  21.340  0.1294  0.0500  0.0761
 1024PEP     CB37253   1.243  17.270  21.444  0.1413 -0.0561  0.1781
 1024PEP     CB37254   0.756  17.185  21.371 -0.3608 -0.5392 -0.0745
 1024PEP     CB37255   0.624  16.764  21.251 -0.2077 -0.0923 -0.0303
 1024PEP     CB37256   0.837  16.381  21.312  0.0103  0.4850  0.2736
 1024PEP     CB37257   1.199  16.324  21.480  0.5736  0.0953  0.0427
 1024PEP     CB37258   1.382  16.648  21.797 -0.0467  0.4548  0.2273
 1024PEP     CB37259   1.386  17.109  21.892  0.0091  0.1788 -0.2808
 1024PEP     CB37260   1.624  17.466  21.893  0.0098 -0.0775 -0.3193
 1024PEP     CB37261   2.111  17.619  21.914  0.4953 -0.1712  0.0924
 1024PEP     CB37262   2.411  17.908  21.975 -0.2908 -0.0210 -0.0831
 1024PEP     CB37263   2.437  18.355  22.155 -0.2482  0.0064  0.0564
 1024PEP     CB37264   2.119  18.665  22.053 -0.3790 -0.0864 -0.1707
 1024PEP     CB37265   1.919  18.847  21.721 -0.2219 -0.0607  0.0104
 1024PEP     CB37266   1.739  18.925  21.282  0.0821 -0.0591 -0.1540
 1024PEP     CB37267   1.635  19.244  21.053 -0.2124 -0.1576 -0.1912
 1024PEP     CB37268   1.524  19.390  20.681 -0.0071  0.3618  0.0177
 1024PEP     CB37269   1.634  19.401  20.276 -0.4271 -0.1935 -0.5085
 1024PEP     CB37270   1.825  19.750  19.943 -0.1179  0.3243  0.0041
 1024PEP     CB37271   2.016  19.965  19.635  0.0636  0.3085 -0.1589
 1024PEP     CB37272   1.932  20.175  19.226  0.2702  0.1477 -0.1181
 1024PEP     CB37273   1.571  20.140  18.937 -0.1903  0.1948 -0.3900
 1024PEP     CB37274   1.415  20.113  18.508  0.3263  0.0695 -0.1481
 1024PEP     CB37275   1.252  19.939  18.107 -0.1104 -0.0809 -0.3947
 1024PEP     CB37276   1.051  19.623  17.972 -0.2765 -0.1136 -0.2255
 1024PEP     CB37277   1.119  19.291  17.646 -0.3238  0.1766  0.2156
 1024PEP     CB37278   1.282  19.284  17.193  0.2174  0.2556  0.2558
 1024PEP     CB37279   1.479  19.616  16.983 -0.2090 -0.0448 -0.3088
 1024PEP     CB37280   1.679  20.067  17.084 -0.0525  0.3723 -0.0982
 1025PEP     CB37281  19.541  19.377   0.508  0.2234 -0.2527  0.0851
 1025PEP     CB37282  19.913  19.574   0.540  0.2157 -0.1260 -0.1010
 1025PEP     CB37283  19.952  20.012   0.432  0.2924 -0.0044  0.1030
 1025PEP     CB37284  19.594  20.361   0.382  0.4802  0.2345 -0.3344
 1025PEP     CB37285  19.163  20.427   0.440 -0.1155 -0.2858  0.5809
 1025PEP     CB37286  18.865  20.064   0.410 -0.0981  0.1407 -0.0711
 1025PEP     CB37287  18.867  19.674   0.207  0.1245 -0.0210  0.2115
 1025PEP     CB37288  18.560  19.324  -0.101 -0.0499 -0.1365 -0.1242
 1025PEP     CB37289  18.201  19.037  -0.286 -0.2452 -0.1748 -0.2698
 1025PEP     CB37290  17.915  18.840  -0.615 -0.2813 -0.0655 -0.1262
 1025PEP     CB37291  17.942  19.097  -1.104 -0.3555  0.2635 -0.2355
 1025PEP     CB37292  17.780  19.419  -1.177 -0.1824  0.3325  0.4707
 1025PEP     CB37293  17.781  19.809  -1.168  0.1272  0.0508 -0.1500
 1025PEP     CB37294  17.925  20.193  -0.826 -0.0211  0.2074  0.3571
 1025PEP     CB37295  18.205  20.597  -0.638 -0.1095 -0.4310  0.0321
 1025PEP     CB37296  18.398  21.145  -0.467  0.2507  0.0998  0.0739
 1025PEP     CB37297  18.776  21.416  -0.355  0.2652  0.3660 -0.4127
 1025PEP     CB37298  19.070  21.818  -0.292  0.2650 -0.1071 -0.3058
 1025PEP     CB37299  18.998  22.246  -0.358 -0.1593  0.3698  0.1778
 1025PEP     CB37300  18.824  22.391  -0.675 -0.1071 -0.3961  0.3708
 1025PEP     CB37301  18.877  22.286  -1.073 -0.0836  0.3715  0.0599
 1025PEP     CB37302  18.817  21.835  -1.168  0.0557 -0.0216 -0.3171
 1025PEP     CB37303  18.993  21.536  -0.902 -0.0430  0.0511  0.0828
 1025PEP     CB37304  19.372  21.572  -0.555 -0.1633  0.0662 -0.0047
 1025PEP     CB37305  19.653  21.936  -0.658 -0.1700 -0.0576  0.3073
 1025PEP     CB37306  19.801  22.129  -1.032 -0.2148 -0.4595 -0.1145
 1025PEP     CB37307  19.892  21.858  -1.361 -0.0015  0.2767 -0.1309
 1025PEP     CB37308  19.903  21.398  -1.225  0.0934  0.0097 -0.0001
 1025PEP     CB37309  19.903  21.208  -0.786  0.0265 -0.2796 -0.2843
 1025PEP     CB37310  19.831  21.416  -0.367 -0.1543 -0.0234 -0.0177
 1025PEP     CB37311  19.968  21.878  -0.288  0.2533  0.3381  0.0310
 1025PEP     CB37312  20.492  22.004  -0.316 -0.0146 -0.0151 -0.2357
 1025PEP     CB37313  20.778  22.252  -0.025 -0.4629  0.2834 -0.1957
 1025PEP     CB37314  20.644  22.365   0.478  0.1142 -0.4941  0.0677
 1025PEP     CB37315  20.219  22.537   0.623 -0.3789  0.0455 -0.2118
 1025PEP     CB37316  19.842  22.375   0.592  0.0061 -0.2603  0.2523
 1025PEP     CB37317  19.488  22.094   0.702 -0.1591 -0.3434  0.4622
 1025PEP     CB37318  19.260  21.677   0.669 -0.1775  0.0288 -0.1934
 1025PEP     CB37319  19.210  21.315   0.461  0.0337 -0.1421  0.1110
 1025PEP     CB37320  19.154  20.928   0.395 -0.0983  0.1407  0.2042
 1026PEP     CB37321  17.927  12.446   4.283 -0.0332 -0.0163 -0.1363
 1026PEP     CB37322  18.269  12.756   4.138 -0.1689 -0.1653 -0.1807
 1026PEP     CB37323  18.576  13.129   4.203  0.0345 -0.0805 -0.0050
 1026PEP     CB37324  18.821  13.122   4.510 -0.0901 -0.1734  0.2657
 1026PEP     CB37325  19.089  12.918   4.782  0.0328  0.0385  0.1845
 1026PEP     CB37326  18.990  12.803   5.216  0.1029 -0.0999  0.1273
 1026PEP     CB37327  18.670  12.975   5.549 -0.4937 -0.0615  0.0805
 1026PEP     CB37328  18.205  12.983   5.654  0.1319  0.3174  0.0031
 1026PEP     CB37329  17.841  13.251   5.484  0.0983 -0.1112  0.0540
 1026PEP     CB37330  17.374  13.120   5.431  0.1403  0.1978 -0.0101
 1026PEP     CB37331  16.918  12.948   5.539 -0.1037  0.1395 -0.1090
 1026PEP     CB37332  16.741  12.612   5.581 -0.1833  0.1758 -0.1947
 1026PEP     CB37333  16.668  12.135   5.691  0.0096 -0.0767  0.0873
 1026PEP     CB37334  16.747  11.710   5.716 -0.0501  0.2663 -0.1240
 1026PEP     CB37335  16.736  11.263   5.846 -0.1995 -0.0904 -0.1162
 1026PEP     CB37336  16.937  10.856   5.919  0.1907 -0.1419 -0.1911
 1026PEP     CB37337  17.173  10.528   5.874 -0.2645 -0.0222  0.1506
 1026PEP     CB37338  17.338  10.120   5.709  0.2672  0.1169 -0.0335
 1026PEP     CB37339  17.647  10.018   5.581  0.0754 -0.3805 -0.0418
 1026PEP     CB37340  18.068  10.267   5.554 -0.3455 -0.3566 -0.0192
 1026PEP     CB37341  18.495  10.272   5.551  0.0559 -0.0925 -0.2878
 1026PEP     CB37342  18.867  10.330   5.629  0.4399  0.3984  0.1049
 1026PEP     CB37343  19.188  10.235   5.856 -0.3783  0.3417 -0.0338
 1026PEP     CB37344  19.505  10.218   6.151  0.1197 -0.6244 -0.1562
 1026PEP     CB37345  19.882   9.967   6.199 -0.0046 -0.0153 -0.1226
 1026PEP     CB37346  20.186   9.758   6.213  0.0952 -0.0367  0.0377
 1026PEP     CB37347  20.329   9.325   6.318 -0.0353 -0.0093 -0.0781
 1026PEP     CB37348  20.667   9.018   6.379 -0.0526 -0.1881 -0.1924
 1026PEP     CB37349  20.786   8.572   6.636  0.1586 -0.0328 -0.2884
 1026PEP     CB37350  20.876   8.326   7.010 -0.0279 -0.3525 -0.1850
 1026PEP     CB37351  21.106   7.995   7.171 -0.0925 -0.0531 -0.0259
 1026PEP     CB37352  21.305   7.765   7.427 -0.1275  0.1022 -0.1582
 1026PEP     CB37353  21.617   7.492   7.654  0.1814  0.1221  0.0362
 1026PEP     CB37354  22.063   7.310   7.680  0.3978 -0.1123 -0.0299
 1026PEP     CB37355  22.365   6.986   7.578 -0.3646  0.1190  0.0790
 1026PEP     CB37356  22.490   6.665   7.314  0.3407  0.2812 -0.6555
 1026PEP     CB37357  22.753   6.607   6.879  0.2111 -0.3212  0.3553
 1026PEP     CB37358  22.972   6.523   6.616  0.0196  0.1497 -0.1321
 1026PEP     CB37359  23.304   6.383   6.258  0.1671 -0.1090  0.0968
 1026PEP     CB37360  23.379   6.297   5.859 -0.2178 -0.2993  0.0802
 1027PEP     CB37361   4.083   1.019  16.902 -0.0573 -0.4459 -0.2652
 1027PEP     CB37362   4.027   1.208  17.310  0.0676  0.1203  0.1157
 1027PEP     CB37363   4.179   1.476  17.632  0.2060 -0.1029 -0.0047
 1027PEP     CB37364   4.311   1.900  17.731  0.0573  0.0461  0.0684
 1027PEP     CB37365   4.457   2.250  17.533  0.1322  0.2758  0.2995
 1027PEP     CB37366   4.650   2.727  17.423 -0.1658  0.1152 -0.2648
 1027PEP     CB37367   4.508   2.979  16.999 -0.0738 -0.1014 -0.2498
 1027PEP     CB37368   3.977   2.951  16.932 -0.0838 -0.3045  0.0854
 1027PEP     CB37369   3.780   2.929  17.320  0.2372 -0.0439 -0.0325
 1027PEP     CB37370   3.839   2.762  17.688 -0.1362  0.0219  0.3269
 1027PEP     CB37371   4.188   2.624  17.894 -0.1319  0.0245  0.1513
 1027PEP     CB37372   4.651   2.840  17.978  0.0025  0.3398 -0.3497
 1027PEP     CB37373   4.871   3.133  17.885 -0.2684  0.1646 -0.0342
 1027PEP     CB37374   4.977   3.353  17.463  0.0641  0.3107 -0.0175
 1027PEP     CB37375   5.241   3.584  17.175  0.0907 -0.0369 -0.2967
 1027PEP     CB37376   5.336   3.577  16.793  0.0936 -0.1519 -0.2541
 1027PEP     CB37377   4.984   3.512  16.398  0.1263  0.0190 -0.0325
 1027PEP     CB37378   4.738   3.156  16.301 -0.2319 -0.3585  0.1911
 1027PEP     CB37379   4.492   2.806  16.545 -0.2051 -0.0454 -0.2446
 1027PEP     CB37380   4.232   2.535  16.844 -0.1086  0.4018  0.4713
 1027PEP     CB37381   3.811   2.468  16.885  0.2321 -0.1828 -0.4014
 1027PEP     CB37382   3.591   2.226  16.617 -0.0516 -0.3386  0.2050
 1027PEP     CB37383   3.740   2.022  16.152 -0.2035  0.5011 -0.0947
 1027PEP     CB37384   4.184   2.111  16.031  0.2131  0.0816  0.1609
 1027PEP     CB37385   4.560   2.332  16.245  0.1250 -0.0362  0.3262
 1027PEP     CB37386   4.748   2.399  16.677 -0.5143 -0.0374  0.2639
 1027PEP     CB37387   4.583   2.279  17.080 -0.0588  0.1327 -0.4748
 1027PEP     CB37388   4.154   2.494  17.328 -0.3322  0.1037  0.1858
 1027PEP     CB37389   3.736   2.411  17.410  0.1022  0.4354  0.1580
 1027PEP     CB37390   3.277   2.503  17.449  0.0283  0.0037  0.2420
 1027PEP     CB37391   2.818   2.465  17.291 -0.0139  0.0062  0.1927
 1027PEP     CB37392   2.547   2.362  16.942 -0.3087  0.1883  0.0709
 1027PEP     CB37393   2.557   2.562  16.549  0.3789  0.1446 -0.1273
 1027PEP     CB37394   2.342   2.957  16.532 -0.1011 -0.1183 -0.1983
 1027PEP     CB37395   2.443   3.405  16.570 -0.1848  0.3181  0.0801
 1027PEP     CB37396   2.696   3.739  16.511 -0.0027  0.0868  0.5479
 1027PEP     CB37397   2.827   4.144  16.323  0.2562  0.0834  0.3876
 1027PEP     CB37398   3.092   4.452  16.312 -0.1027 -0.1415  0.1684
 1027PEP     CB37399   3.436   4.550  16.358  0.1461 -0.0377  0.1412
 1027PEP     CB37400   3.818   4.649  16.420 -0.1489 -0.0599 -0.2732
 1028PEP     CB37401  13.680   3.767  14.144 -0.2106 -0.3935 -0.3988
 1028PEP     CB37402  13.294   3.749  13.868 -0.1806  0.5839 -0.2540
 1028PEP     CB37403  12.907   3.691  13.801 -0.2897 -0.1504  0.1814
 1028PEP     CB37404  12.476   3.884  13.955 -0.1847 -0.1792  0.0292
 1028PEP     CB37405  12.275   3.895  14.381 -0.0634 -0.0029  0.2016
 1028PEP     CB37406  12.130   3.681  14.754 -0.1092  0.2520 -0.2605
 1028PEP     CB37407  12.134   3.686  15.191 -0.2068  0.1418 -0.0913
 1028PEP     CB37408  12.394   3.531  15.413  0.2148  0.3451  0.2754
 1028PEP     CB37409  12.451   3.229  15.592 -0.0177 -0.6043  0.1313
 1028PEP     CB37410  12.495   2.891  15.898 -0.1540  0.5144  0.1194
 1028PEP     CB37411  12.664   2.438  15.825  0.1396  0.3832 -0.2404
 1028PEP     CB37412  12.968   2.312  15.637 -0.0643  0.0738 -0.3218
 1028PEP     CB37413  13.089   2.144  15.297 -0.1070  0.0847  0.1666
 1028PEP     CB37414  13.264   2.282  14.880  0.1905  0.0215  0.2648
 1028PEP     CB37415  13.681   2.369  14.750 -0.2800  0.3008  0.0520
 1028PEP     CB37416  14.004   2.463  14.444 -0.3499 -0.1523  0.3080
 1028PEP     CB37417  14.190   2.546  14.048  0.0577 -0.1228 -0.0590
 1028PEP     CB37418  13.927   2.708  13.733  0.0235  0.0200 -0.2689
 1028PEP     CB37419  13.537   2.560  13.673 -0.1839  0.2200 -0.0572
 1028PEP     CB37420  13.276   2.296  13.878 -0.3511  0.1791  0.2412
 1028PEP     CB37421  13.305   2.081  14.369  0.1927 -0.1884 -0.0916
 1028PEP     CB37422  13.423   1.834  14.759 -0.1545  0.0443  0.3175
 1028PEP     CB37423  13.446   1.425  14.947 -0.0257  0.0343  0.1887
 1028PEP     CB37424  13.290   1.106  15.043  0.4696 -0.2063  0.1826
 1028PEP     CB37425  13.228   0.693  15.106 -0.0399 -0.2086 -0.1329
 1028PEP     CB37426  13.166   0.331  14.840 -0.4478  0.4044  0.0449
 1028PEP     CB37427  13.189  -0.139  14.898 -0.2210  0.0516  0.2172
 1028PEP     CB37428  13.272  -0.355  15.168 -0.2276  0.0662 -0.1087
 1028PEP     CB37429  13.155  -0.694  15.250  0.3491 -0.3436  0.0955
 1028PEP     CB37430  12.736  -0.852  15.337  0.1722  0.0851  0.0055
 1028PEP     CB37431  12.336  -0.934  15.110  0.2323 -0.1578  0.3130
 1028PEP     CB37432  11.979  -1.069  14.945 -0.2852 -0.1960  0.6688
 1028PEP     CB37433  11.559  -1.309  15.029 -0.2702  0.1736  0.2023
 1028PEP     CB37434  11.055  -1.379  15.008  0.0901 -0.1061  0.0179
 1028PEP     CB37435  10.698  -1.668  15.073  0.4351 -0.1788 -0.3656
 1028PEP     CB37436  10.679  -1.901  15.485 -0.0170  0.3448  0.2947
 1028PEP     CB37437  10.861  -1.980  15.951  0.0784  0.2272  0.3597
 1028PEP     CB37438  10.991  -1.928  16.482 -0.2365 -0.0932  0.1885
 1028PEP     CB37439  10.783  -2.117  16.812 -0.1979 -0.1999  0.0790
 1028PEP     CB37440  10.700  -2.563  16.886  0.2832 -0.0801 -0.0430
 1029PEP     CB37441   8.658   1.709   4.536 -0.0093  0.0011 -0.1080
 1029PEP     CB37442   8.426   1.755   4.903 -0.4087 -0.1974 -0.1554
 1029PEP     CB37443   8.528   1.572   5.338  0.4039 -0.3098  0.1613
 1029PEP     CB37444   8.639   1.244   5.570 -0.0414 -0.2054 -0.0357
 1029PEP     CB37445   9.041   1.172   5.622  0.0853  0.1860 -0.1322
 1029PEP     CB37446   9.442   1.265   5.811  0.3613 -0.0550  0.0335
 1029PEP     CB37447   9.762   1.099   5.889 -0.4205 -0.2353 -0.1627
 1029PEP     CB37448  10.084   0.791   6.078 -0.1916 -0.0535 -0.3566
 1029PEP     CB37449  10.060   0.518   5.905 -0.1586 -0.0053 -0.1245
 1029PEP     CB37450  10.329   0.507   5.491  0.2845  0.1603  0.3031
 1029PEP     CB37451  10.521   0.888   5.366 -0.2593 -0.1581 -0.0105
 1029PEP     CB37452  10.852   1.057   5.433 -0.2091 -0.1925 -0.3115
 1029PEP     CB37453  11.166   0.952   5.703 -0.4193 -0.1508 -0.0196
 1029PEP     CB37454  11.352   0.609   5.844 -0.0742 -0.2609 -0.0878
 1029PEP     CB37455  11.726   0.371   5.865  0.0930  0.2569 -0.0877
 1029PEP     CB37456  12.241   0.345   5.823  0.2042 -0.0896  0.1842
 1029PEP     CB37457  12.560   0.125   5.959 -0.0381  0.1515 -0.1061
 1029PEP     CB37458  12.903  -0.122   5.907 -0.2240  0.1769 -0.0877
 1029PEP     CB37459  13.328  -0.063   5.662 -0.1569  0.3512 -0.3252
 1029PEP     CB37460  13.601  -0.348   5.404  0.3317 -0.2668 -0.1690
 1029PEP     CB37461  13.995  -0.486   5.304  0.1253  0.2647 -0.1217
 1029PEP     CB37462  14.404  -0.215   5.183 -0.2004  0.3528  0.1509
 1029PEP     CB37463  14.385   0.088   4.877 -0.2188 -0.2930  0.5213
 1029PEP     CB37464  14.030  -0.070   4.609 -0.2434  0.3302 -0.1147
 1029PEP     CB37465  13.920  -0.482   4.702  0.0751  0.0116  0.3121
 1029PEP     CB37466  14.292  -0.685   4.838 -0.0688  0.2256 -0.0850
 1029PEP     CB37467  14.721  -0.764   4.529  0.0401  0.1792  0.1686
 1029PEP     CB37468  15.098  -0.590   4.497  0.1011  0.1549  0.3230
 1029PEP     CB37469  15.258  -0.137   4.481 -0.0101 -0.4636  0.1565
 1029PEP     CB37470  15.473   0.153   4.667  0.2255  0.2675  0.0757
 1029PEP     CB37471  15.700   0.456   4.925  0.1338  0.2430  0.3428
 1029PEP     CB37472  15.756   0.775   5.175  0.4310  0.3659 -0.3623
 1029PEP     CB37473  15.906   1.113   5.406  0.1123  0.0329  0.1753
 1029PEP     CB37474  16.104   1.334   5.731 -0.3951  0.0506 -0.2564
 1029PEP     CB37475  16.392   1.618   5.614  0.3144  0.1541  0.3048
 1029PEP     CB37476  16.455   1.748   5.167  0.1624 -0.1309 -0.3146
 1029PEP     CB37477  16.229   1.762   4.812 -0.2637  0.1221 -0.0056
 1029PEP     CB37478  15.869   1.737   4.586 -0.0606  0.1112 -0.4666
 1029PEP     CB37479  15.480   1.676   4.255 -0.4385 -0.5194 -0.1422
 1029PEP     CB37480  15.225   1.602   3.934 -0.1718 -0.1344 -0.1292
 1030PEP     CB37481  14.592   1.631  11.271  0.3892 -0.2242  0.0989
 1030PEP     CB37482  14.536   1.905  10.869 -0.0808 -0.0899  0.1180
 1030PEP     CB37483  14.327   2.142  10.566  0.3536  0.0950  0.1901
 1030PEP     CB37484  14.089   2.458  10.326  0.1048  0.2684 -0.0825
 1030PEP     CB37485  13.829   2.783  10.281 -0.4556 -0.5680 -0.0781
 1030PEP     CB37486  13.487   3.012  10.051  0.2455 -0.1856  0.1255
 1030PEP     CB37487  13.461   3.039   9.617  0.0348 -0.3392 -0.0388
 1030PEP     CB37488  13.798   3.222   9.531  0.0100 -0.0909 -0.1092
 1030PEP     CB37489  13.845   3.361   9.873  0.2071 -0.2349 -0.0780
 1030PEP     CB37490  14.016   3.593  10.192  0.4123 -0.0054 -0.4473
 1030PEP     CB37491  14.328   3.604  10.547  0.4934  0.1152  0.3210
 1030PEP     CB37492  14.782   3.483  10.413  0.0026 -0.3093 -0.2696
 1030PEP     CB37493  14.878   3.409   9.957 -0.2101 -0.3557 -0.0682
 1030PEP     CB37494  14.806   3.463   9.512  0.1833 -0.1507  0.0605
 1030PEP     CB37495  14.484   3.581   9.183  0.1808  0.0178  0.1919
 1030PEP     CB37496  14.252   3.829   8.927 -0.1666  0.2309 -0.3456
 1030PEP     CB37497  13.861   4.118   8.796 -0.0080  0.0615 -0.1397
 1030PEP     CB37498  13.404   3.988   8.675  0.0972 -0.0607 -0.0860
 1030PEP     CB37499  13.242   3.735   8.200  0.0641  0.4157 -0.2206
 1030PEP     CB37500  13.127   3.480   7.932 -0.1731  0.3796 -0.2199
 1030PEP     CB37501  12.811   3.303   7.760  0.1548 -0.2702  0.3142
 1030PEP     CB37502  12.558   3.390   7.389 -0.0642  0.2692 -0.0395
 1030PEP     CB37503  12.413   3.339   6.990  0.0207  0.2031 -0.2177
 1030PEP     CB37504  12.281   3.166   6.598 -0.2043 -0.1137 -0.1457
 1030PEP     CB37505  12.058   3.150   6.233  0.3625  0.3576  0.0774
 1030PEP     CB37506  11.706   3.102   6.176  0.2422  0.0750 -0.3821
 1030PEP     CB37507  11.254   3.335   6.121  0.4999 -0.5026  0.0931
 1030PEP     CB37508  10.931   3.482   6.215 -0.0904  0.0052 -0.2952
 1030PEP     CB37509  10.667   3.811   6.390  0.0143  0.0278 -0.4260
 1030PEP     CB37510  10.674   4.241   6.576  0.1295  0.3421  0.2735
 1030PEP     CB37511  10.951   4.494   6.753 -0.0318  0.3472  0.0481
 1030PEP     CB37512  11.141   4.857   6.943  0.0507 -0.1663 -0.0621
 1030PEP     CB37513  11.493   5.070   6.939 -0.1300 -0.3591  0.1192
 1030PEP     CB37514  11.781   5.135   6.604 -0.0989  0.2357  0.0026
 1030PEP     CB37515  11.926   5.194   6.225  0.3617 -0.3767  0.1294
 1030PEP     CB37516  11.879   5.088   5.801  0.0478  0.2143  0.1211
 1030PEP     CB37517  11.665   4.911   5.474  0.1595  0.1316  0.2158
 1030PEP     CB37518  11.622   4.487   5.547 -0.0191  0.1835 -0.0395
 1030PEP     CB37519  11.760   4.252   5.849 -0.1132  0.0489  0.3598
 1030PEP     CB37520  12.163   3.985   5.985 -0.2680 -0.5901 -0.0565
 1031PEP     CB37521  12.962  14.589   3.737  0.3488 -0.1367 -0.1186
 1031PEP     CB37522  12.721  14.776   3.427 -0.3040 -0.2199 -0.1639
 1031PEP     CB37523  12.359  14.720   3.276 -0.2545 -0.0322 -0.1860
 1031PEP     CB37524  12.044  14.371   3.440  0.0619 -0.1073  0.0582
 1031PEP     CB37525  11.710  14.359   3.648  0.3692 -0.1274  0.3897
 1031PEP     CB37526  11.443  14.652   3.800 -0.0667  0.0052  0.4238
 1031PEP     CB37527  11.247  14.876   4.060 -0.2166  0.3303 -0.1318
 1031PEP     CB37528  11.592  15.030   4.394  0.1657  0.0433 -0.0266
 1031PEP     CB37529  12.020  15.078   4.486 -0.3618 -0.2260 -0.1094
 1031PEP     CB37530  12.431  15.075   4.715 -0.0079  0.3812 -0.3794
 1031PEP     CB37531  12.767  15.245   4.989 -0.0746  0.0361 -0.2621
 1031PEP     CB37532  13.113  15.304   5.395  0.0990 -0.0172 -0.1007
 1031PEP     CB37533  13.312  15.601   5.668 -0.0048 -0.0798  0.0507
 1031PEP     CB37534  13.702  15.734   5.673  0.0096 -0.5751 -0.3645
 1031PEP     CB37535  14.093  15.647   5.714  0.0907  0.0630  0.1384
 1031PEP     CB37536  14.566  15.828   5.745 -0.2377 -0.1845  0.3469
 1031PEP     CB37537  14.957  15.797   5.617  0.2421 -0.2563  0.1021
 1031PEP     CB37538  15.220  15.506   5.675 -0.1454 -0.2415  0.3125
 1031PEP     CB37539  15.020  15.135   5.682 -0.0035  0.1758  0.7626
 1031PEP     CB37540  14.965  14.703   5.481  0.0051 -0.3958  0.1870
 1031PEP     CB37541  15.028  14.266   5.492 -0.3333  0.0246 -0.0946
 1031PEP     CB37542  15.178  13.903   5.654 -0.0883  0.1500 -0.3325
 1031PEP     CB37543  15.335  13.530   5.578  0.1233  0.0067  0.1023
 1031PEP     CB37544  15.579  13.200   5.368  0.1373  0.0632 -0.3390
 1031PEP     CB37545  15.870  12.952   5.038  0.0793  0.0587 -0.0631
 1031PEP     CB37546  16.338  12.908   4.935  0.0597  0.0123  0.1542
 1031PEP     CB37547  16.704  12.848   5.078  0.1895 -0.1573  0.0291
 1031PEP     CB37548  17.133  12.756   5.143  0.2391  0.0049 -0.0099
 1031PEP     CB37549  17.469  12.863   4.989 -0.0491 -0.0062  0.1028
 1031PEP     CB37550  17.807  13.252   4.964  0.3808 -0.0040  0.2904
 1031PEP     CB37551  18.056  13.574   4.998  0.2740  0.0780 -0.4189
 1031PEP     CB37552  18.218  13.919   4.855 -0.0789  0.0883 -0.3079
 1031PEP     CB37553  18.362  14.409   4.661 -0.0432 -0.1091 -0.0210
 1031PEP     CB37554  18.278  14.622   4.323  0.1878 -0.3735 -0.4092
 1031PEP     CB37555  18.108  14.419   3.966 -0.1596  0.0573 -0.1958
 1031PEP     CB37556  18.175  14.011   3.719 -0.1083 -0.4019 -0.0154
 1031PEP     CB37557  18.116  13.675   3.932 -0.0911  0.0231  0.0994
 1031PEP     CB37558  18.419  13.572   4.298 -0.0040  0.1421 -0.3913
 1031PEP     CB37559  18.619  13.853   4.554  0.0392 -0.2468  0.2311
 1031PEP     CB37560  18.744  14.123   4.730 -0.0252 -0.0477 -0.0800
 1032PEP     CB37561  17.053  14.306  21.354 -0.1231  0.0264 -0.1671
 1032PEP     CB37562  16.856  14.035  21.783 -0.0218  0.3361 -0.3443
 1032PEP     CB37563  17.084  14.149  22.282 -0.0129  0.1575  0.2349
 1032PEP     CB37564  17.584  14.231  22.405 -0.2284 -0.0757 -0.0201
 1032PEP     CB37565  17.886  13.983  22.205  0.2751  0.0468  0.2422
 1032PEP     CB37566  17.767  13.696  21.833 -0.0640 -0.0343 -0.0542
 1032PEP     CB37567  17.687  13.623  21.411  0.0457  0.3535 -0.1597
 1032PEP     CB37568  17.787  13.518  20.960 -0.1841 -0.0963  0.1972
 1032PEP     CB37569  17.888  13.102  20.717 -0.4922  0.0327  0.4675
 1032PEP     CB37570  17.794  12.690  20.796  0.0387  0.0775  0.0353
 1032PEP     CB37571  17.484  12.534  20.926  0.0145  0.0210 -0.2413
 1032PEP     CB37572  17.280  12.665  21.268 -0.3805  0.1557  0.0083
 1032PEP     CB37573  17.173  12.712  21.684  0.5112  0.2959  0.0730
 1032PEP     CB37574  17.114  13.067  22.027  0.1994 -0.0102  0.2932
 1032PEP     CB37575  17.107  13.440  21.864  0.1398  0.2526  0.0676
 1032PEP     CB37576  17.069  13.680  21.518 -0.3103 -0.4301  0.0708
 1032PEP     CB37577  17.302  13.880  21.313 -0.2322  0.0069 -0.0215
 1032PEP     CB37578  17.541  13.941  20.904  0.0541  0.0327 -0.2935
 1032PEP     CB37579  17.631  13.763  20.479 -0.1690 -0.3440  0.4513
 1032PEP     CB37580  17.823  13.549  20.042 -0.1900  0.2275  0.3138
 1032PEP     CB37581  17.755  13.226  19.676  0.0852  0.1667  0.3400
 1032PEP     CB37582  17.472  13.137  19.332  0.1643  0.0878  0.2210
 1032PEP     CB37583  17.081  13.206  19.116  0.1371 -0.3011 -0.6015
 1032PEP     CB37584  16.715  13.313  18.828  0.0948 -0.5257  0.7069
 1032PEP     CB37585  16.622  13.135  18.412  0.2032 -0.1951  0.6286
 1032PEP     CB37586  16.837  12.920  18.008 -0.3999  0.1547  0.0382
 1032PEP     CB37587  16.822  12.664  17.686 -0.3084 -0.1852 -0.2021
 1032PEP     CB37588  17.041  12.439  17.356 -0.0022 -0.2525  0.0792
 1032PEP     CB37589  17.131  12.200  17.031 -0.0501  0.2618  0.2973
 1032PEP     CB37590  17.322  11.858  17.012  0.4394  0.5378  0.2669
 1032PEP     CB37591  17.780  11.646  17.131  0.3731 -0.2673 -0.0078
 1032PEP     CB37592  18.193  11.679  16.916  0.1795  0.1626 -0.1925
 1032PEP     CB37593  18.609  11.948  16.966  0.1345  0.0490 -0.2439
 1032PEP     CB37594  18.750  12.170  17.402 -0.4369  0.0073 -0.3733
 1032PEP     CB37595  18.513  12.370  17.761 -0.0102 -0.1240 -0.0066
 1032PEP     CB37596  18.178  12.380  17.908 -0.3799  0.0584 -0.0419
 1032PEP     CB37597  17.835  12.218  17.695  0.1940  0.1353  0.2221
 1032PEP     CB37598  17.574  11.996  17.381 -0.0009 -0.2119 -0.2020
 1032PEP     CB37599  17.076  11.857  17.503 -0.1993  0.0596 -0.2395
 1032PEP     CB37600  16.679  12.036  17.598 -0.0560  0.2790  0.1107
 1033PEP     CB37601  15.829   7.626   4.264 -0.1101  0.1886  0.6242
 1033PEP     CB37602  15.423   7.698   4.378 -0.2566  0.0267  0.3677
 1033PEP     CB37603  15.093   7.818   4.680 -0.2329 -0.0207 -0.0653
 1033PEP     CB37604  14.893   7.757   5.093 -0.0175 -0.1220  0.2875
 1033PEP     CB37605  14.969   7.640   5.522  0.0619  0.2160  0.3110
 1033PEP     CB37606  15.379   7.511   5.812  0.1009  0.1009 -0.1284
 1033PEP     CB37607  15.599   7.487   6.131 -0.3303 -0.0302 -0.0165
 1033PEP     CB37608  15.836   7.180   6.303 -0.1735 -0.2541 -0.4259
 1033PEP     CB37609  16.303   7.079   6.214  0.3880 -0.1423 -0.2702
 1033PEP     CB37610  16.759   7.268   6.060  0.1473  0.5104  0.1476
 1033PEP     CB37611  17.182   7.437   6.173  0.3378 -0.2137  0.0280
 1033PEP     CB37612  17.714   7.310   6.283  0.1878  0.2216 -0.0122
 1033PEP     CB37613  17.955   7.103   6.545  0.2374  0.2235  0.0709
 1033PEP     CB37614  18.263   6.774   6.603 -0.2210 -0.3183 -0.2407
 1033PEP     CB37615  18.541   6.465   6.319  0.0127 -0.0637 -0.4661
 1033PEP     CB37616  18.683   6.189   6.206 -0.0080 -0.1856  0.3350
 1033PEP     CB37617  18.999   5.900   6.370  0.1097 -0.1621 -0.4691
 1033PEP     CB37618  19.084   5.952   6.844 -0.0759 -0.0227  0.1778
 1033PEP     CB37619  18.720   5.949   7.026 -0.2678 -0.1008  0.2196
 1033PEP     CB37620  18.339   5.903   6.824  0.1450  0.1358 -0.0756
 1033PEP     CB37621  18.033   5.772   6.918 -0.2667  0.2066 -0.5482
 1033PEP     CB37622  17.737   5.522   7.102  0.1348 -0.4353  0.0258
 1033PEP     CB37623  17.415   5.466   7.407 -0.5136  0.1926  0.1140
 1033PEP     CB37624  17.502   5.641   7.810 -0.3758  0.2014 -0.3202
 1033PEP     CB37625  17.767   5.848   7.980 -0.3117  0.2160  0.0739
 1033PEP     CB37626  18.159   5.759   7.765  0.4432  0.2248  0.1182
 1033PEP     CB37627  18.414   5.415   7.741 -0.1138 -0.2402 -0.0240
 1033PEP     CB37628  18.431   5.055   7.979 -0.3057  0.2965 -0.2256
 1033PEP     CB37629  18.094   5.097   8.377 -0.0078  0.1641 -0.1690
 1033PEP     CB37630  17.603   5.171   8.418 -0.0316 -0.2686 -0.1167
 1033PEP     CB37631  17.335   5.506   8.307 -0.0262 -0.1000  0.0290
 1033PEP     CB37632  17.047   5.580   7.993 -0.3755  0.0373  0.2745
 1033PEP     CB37633  16.591   5.678   7.893  0.1393  0.2816  0.2560
 1033PEP     CB37634  16.224   5.437   7.986  0.2302  0.0203 -0.1479
 1033PEP     CB37635  15.851   5.196   7.986 -0.1142  0.0645 -0.0040
 1033PEP     CB37636  15.626   5.031   8.299  0.2278  0.0775  0.1223
 1033PEP     CB37637  15.482   5.071   8.799 -0.2259 -0.0576 -0.1955
 1033PEP     CB37638  15.586   5.050   9.222  0.2625 -0.2864 -0.2104
 1033PEP     CB37639  15.697   4.955   9.621 -0.0300 -0.2985  0.1314
 1033PEP     CB37640  15.885   4.993   9.994  0.0642 -0.0627  0.0493
 1034PEP     CB37641   5.833   2.357  13.098 -0.1144 -0.0879  0.0676
 1034PEP     CB37642   5.902   2.725  13.439 -0.1569 -0.1506  0.2196
 1034PEP     CB37643   5.756   2.983  13.660 -0.0875  0.4195  0.3209
 1034PEP     CB37644   5.460   3.239  13.724  0.0078 -0.2179 -0.0062
 1034PEP     CB37645   5.019   3.319  13.730 -0.0011  0.2647  0.0551
 1034PEP     CB37646   4.735   3.183  13.337  0.2554  0.0358 -0.1264
 1034PEP     CB37647   4.485   3.136  13.025 -0.1266 -0.5973 -0.3513
 1034PEP     CB37648   4.529   3.128  12.646  0.2344  0.0059 -0.0278
 1034PEP     CB37649   4.801   2.893  12.400 -0.2993 -0.0590 -0.1981
 1034PEP     CB37650   5.188   2.703  12.522  0.1021 -0.5126 -0.0032
 1034PEP     CB37651   5.402   2.946  12.814 -0.2756  0.0924 -0.3378
 1034PEP     CB37652   5.677   3.311  12.842 -0.0353 -0.2721  0.0146
 1034PEP     CB37653   6.125   3.299  12.763  0.2948  0.0322 -0.0809
 1034PEP     CB37654   6.556   3.374  12.650 -0.2666 -0.0544 -0.1226
 1034PEP     CB37655   6.741   3.198  12.356 -0.1517 -0.2417  0.0043
 1034PEP     CB37656   6.621   2.864  12.040 -0.0726 -0.1102  0.0727
 1034PEP     CB37657   6.275   2.643  11.891 -0.2011 -0.2775 -0.0152
 1034PEP     CB37658   6.070   2.305  11.652  0.1355  0.1707  0.1340
 1034PEP     CB37659   6.278   2.041  11.384 -0.5305  0.3240  0.1737
 1034PEP     CB37660   6.443   2.077  10.974  0.0735 -0.1553 -0.2434
 1034PEP     CB37661   6.842   2.018  10.802  0.0498  0.5676 -0.1466
 1034PEP     CB37662   7.248   2.025  11.023  0.2609  0.1753 -0.4834
 1034PEP     CB37663   7.556   1.735  11.156 -0.0771  0.0547 -0.4038
 1034PEP     CB37664   8.034   1.791  11.299 -0.0194  0.1385 -0.1449
 1034PEP     CB37665   8.180   2.161  11.418  0.1086 -0.0726  0.1701
 1034PEP     CB37666   8.234   2.598  11.044  0.0527 -0.3397  0.4085
 1034PEP     CB37667   7.816   2.574  10.736  0.1054 -0.4258 -0.1232
 1034PEP     CB37668   7.538   2.556  10.958 -0.0881  0.2169 -0.1528
 1034PEP     CB37669   7.634   2.197  11.308  0.1989 -0.1395  0.1265
 1034PEP     CB37670   7.643   1.898  11.586  0.0412 -0.0789  0.0637
 1034PEP     CB37671   7.980   1.805  11.864 -0.6413  0.2044  0.3754
 1034PEP     CB37672   8.300   1.470  11.932 -0.2963  0.0222  0.0984
 1034PEP     CB37673   8.659   1.124  12.003 -0.0356  0.5952  0.4872
 1034PEP     CB37674   9.128   1.151  12.015 -0.2469  0.1343 -0.2330
 1034PEP     CB37675   9.328   1.599  12.062 -0.0436  0.5152  0.2394
 1034PEP     CB37676   9.121   1.964  11.933  0.0567  0.0580  0.3171
 1034PEP     CB37677   8.827   1.927  11.627 -0.7968 -0.1767 -0.2533
 1034PEP     CB37678   8.543   1.564  11.480 -0.0206  0.0739 -0.1779
 1034PEP     CB37679   8.162   1.298  11.488  0.0797 -0.1990  0.1131
 1034PEP     CB37680   8.045   0.980  11.790 -0.2729 -0.1903 -0.0488
 1035PEP     CB37681  18.506  15.954  19.535  0.0023 -0.1804 -0.2085
 1035PEP     CB37682  18.262  15.730  19.788 -0.3324 -0.3645  0.2070
 1035PEP     CB37683  17.928  15.482  19.985  0.6534 -0.4539 -0.2641
 1035PEP     CB37684  17.673  15.426  20.367 -0.0335 -0.1284  0.3163
 1035PEP     CB37685  17.447  15.471  20.781  0.1001  0.2051  0.4092
 1035PEP     CB37686  17.191  15.441  21.232 -0.1269  0.0838  0.1064
 1035PEP     CB37687  17.175  15.588  21.650  0.0298  0.1885  0.1309
 1035PEP     CB37688  17.106  16.022  21.691  0.0591  0.1949  0.2358
 1035PEP     CB37689  17.283  16.445  21.605  0.3539 -0.0993 -0.1492
 1035PEP     CB37690  17.314  16.612  21.159  0.3229 -0.1973  0.1018
 1035PEP     CB37691  17.474  16.333  20.852  0.1479 -0.1637  0.2488
 1035PEP     CB37692  17.696  16.001  20.816  0.0967 -0.0952 -0.0144
 1035PEP     CB37693  17.985  15.647  20.795 -0.0954 -0.1232  0.0920
 1035PEP     CB37694  17.854  15.177  20.771  0.3122 -0.1664 -0.0374
 1035PEP     CB37695  17.463  14.954  20.830  0.0968  0.1941 -0.1634
 1035PEP     CB37696  17.000  15.163  20.816 -0.0756  0.1009  0.1902
 1035PEP     CB37697  16.773  15.544  20.848 -0.3847  0.3168  0.1753
 1035PEP     CB37698  16.605  15.917  20.870 -0.0073  0.1088  0.0441
 1035PEP     CB37699  16.281  16.188  21.060  0.1538 -0.0243  0.0071
 1035PEP     CB37700  15.976  16.290  21.416  0.0605 -0.2238  0.0348
 1035PEP     CB37701  15.889  16.147  21.861  0.1653  0.1624  0.1903
 1035PEP     CB37702  15.734  15.921  22.206  0.2154  0.2535 -0.1048
 1035PEP     CB37703  15.733  15.613  22.479  0.2864 -0.0942  0.2270
 1035PEP     CB37704  15.539  15.185  22.533  0.1689  0.0774  0.3647
 1035PEP     CB37705  15.571  14.805  22.533 -0.2182 -0.2954  0.0792
 1035PEP     CB37706  15.319  14.464  22.693 -0.0835 -0.2117  0.1119
 1035PEP     CB37707  15.095  14.084  22.839 -0.3590 -0.4669  0.0229
 1035PEP     CB37708  15.096  13.593  22.925  0.2363  0.0746  0.0773
 1035PEP     CB37709  15.373  13.226  23.051  0.0078 -0.4235 -0.1406
 1035PEP     CB37710  15.751  13.172  23.276  0.0085  0.1831  0.0919
 1035PEP     CB37711  16.166  13.359  23.267 -0.2802  0.3202 -0.0419
 1035PEP     CB37712  16.529  13.620  23.376 -0.0006  0.1660  0.2712
 1035PEP     CB37713  16.685  13.823  23.724 -0.0465  0.0466 -0.1359
 1035PEP     CB37714  16.397  13.875  24.015  0.0656  0.1629 -0.4356
 1035PEP     CB37715  16.464  13.691  24.401  0.0430 -0.4003 -0.0808
 1035PEP     CB37716  16.498  13.703  24.878  0.0615 -0.2859  0.0036
 1035PEP     CB37717  16.399  13.973  25.297  0.2937  0.1109  0.0215
 1035PEP     CB37718  16.591  14.359  25.498  0.4541 -0.2759 -0.1564
 1035PEP     CB37719  16.971  14.419  25.372 -0.0714  0.3534 -0.2091
 1035PEP     CB37720  17.387  14.255  25.388  0.0232  0.0907  0.1581
 1036PEP     CB37721  19.214  15.346  20.446  0.2418 -0.1764 -0.1425
 1036PEP     CB37722  19.408  15.165  20.797  0.1853 -0.1862  0.0533
 1036PEP     CB37723  19.521  15.394  21.215 -0.0963  0.0401 -0.0758
 1036PEP     CB37724  19.679  15.760  21.342 -0.0635 -0.1896 -0.0480
 1036PEP     CB37725  20.041  15.897  21.510 -0.1057  0.0152 -0.0314
 1036PEP     CB37726  20.426  15.785  21.457 -0.0375  0.1554  0.0583
 1036PEP     CB37727  20.571  15.553  21.178  0.2861 -0.0866 -0.1489
 1036PEP     CB37728  20.866  15.291  20.835  0.0768  0.1291  0.1437
 1036PEP     CB37729  20.967  15.278  20.442 -0.1906 -0.1244 -0.1983
 1036PEP     CB37730  21.128  14.858  20.204 -0.2417 -0.4497 -0.2179
 1036PEP     CB37731  21.614  14.811  20.024  0.2085 -0.1184 -0.0025
 1036PEP     CB37732  21.967  15.070  20.243 -0.0250 -0.0912  0.2688
 1036PEP     CB37733  22.046  15.357  20.576 -0.1952 -0.1098 -0.1789
 1036PEP     CB37734  21.967  15.460  20.983  0.3544 -0.0163  0.1222
 1036PEP     CB37735  22.210  15.443  21.447 -0.0160  0.0883  0.0443
 1036PEP     CB37736  22.325  15.867  21.693  0.3536 -0.3357 -0.3401
 1036PEP     CB37737  22.696  16.153  21.734  0.0434  0.0326 -0.1955
 1036PEP     CB37738  23.137  16.237  22.047  0.0209 -0.3497  0.1240
 1036PEP     CB37739  23.577  16.275  22.031 -0.0779  0.1815 -0.1071
 1036PEP     CB37740  23.754  16.249  21.621  0.0138  0.1856  0.0153
 1036PEP     CB37741  23.675  16.472  21.266 -0.1418  0.2691 -0.2529
 1036PEP     CB37742  24.011  16.545  20.994  0.0446  0.3446  0.1864
 1036PEP     CB37743  24.437  16.269  20.768  0.1985  0.2354 -0.1378
 1036PEP     CB37744  24.807  16.222  20.668 -0.5304 -0.0733 -0.1079
 1036PEP     CB37745  25.211  16.418  20.423  0.2872 -0.2339  0.2621
 1036PEP     CB37746  25.368  16.497  20.023 -0.0377  0.3231 -0.1081
 1036PEP     CB37747  25.823  16.604  19.875  0.2419  0.2117 -0.2678
 1036PEP     CB37748  26.295  16.631  20.101  0.2170 -0.1866  0.0438
 1036PEP     CB37749  26.613  16.845  20.316 -0.0042 -0.0996 -0.0435
 1036PEP     CB37750  26.717  16.996  20.733  0.5857  0.1706  0.3874
 1036PEP     CB37751  26.861  17.446  20.968  0.2617  0.1276  0.0565
 1036PEP     CB37752  26.676  17.886  20.946 -0.1283 -0.1063 -0.2526
 1036PEP     CB37753  26.719  18.268  20.752  0.4607  0.1310 -0.1586
 1036PEP     CB37754  26.657  18.640  20.466  0.1787  0.3458  0.2455
 1036PEP     CB37755  26.514  18.799  20.211  0.2898  0.1485 -0.2162
 1036PEP     CB37756  26.192  19.151  20.299  0.0277 -0.4121 -0.6565
 1036PEP     CB37757  26.077  19.334  20.682 -0.2367 -0.0587  0.3310
 1036PEP     CB37758  26.099  19.395  21.113  0.2282  0.0594 -0.0361
 1036PEP     CB37759  26.127  19.394  21.633 -0.5480  0.1347  0.1282
 1036PEP     CB37760  26.364  19.348  22.127  0.1600 -0.0729 -0.0884
 1037PEP     CB37761   7.094  15.236  20.910  0.1171  0.0445 -0.1395
 1037PEP     CB37762   7.150  15.638  20.790  0.1917 -0.4372 -0.3526
 1037PEP     CB37763   7.098  16.087  20.686  0.0851  0.0912 -0.0248
 1037PEP     CB37764   7.053  16.555  20.749  0.2102 -0.1181  0.1812
 1037PEP     CB37765   6.815  16.976  20.829 -0.2840 -0.2494  0.2692
 1037PEP     CB37766   6.629  17.278  20.587  0.1902 -0.1034 -0.1573
 1037PEP     CB37767   6.575  17.256  20.138  0.2635 -0.0230 -0.2556
 1037PEP     CB37768   6.674  16.879  19.803 -0.1207  0.1343  0.0574
 1037PEP     CB37769   6.635  16.562  19.638  0.0656 -0.0427 -0.0790
 1037PEP     CB37770   6.488  16.118  19.681 -0.4779 -0.3077  0.1448
 1037PEP     CB37771   6.401  15.769  19.791 -0.0051  0.0486 -0.1251
 1037PEP     CB37772   6.685  15.412  19.855  0.0253 -0.0933 -0.1512
 1037PEP     CB37773   7.055  15.380  19.847 -0.2491 -0.1007 -0.0490
 1037PEP     CB37774   7.488  15.168  19.925  0.0117 -0.2838  0.2330
 1037PEP     CB37775   7.888  15.329  20.121  0.2359  0.3968 -0.2616
 1037PEP     CB37776   8.217  15.268  20.288  0.3567  0.2081 -0.2209
 1037PEP     CB37777   8.087  14.960  20.546  0.0165  0.1909 -0.0410
 1037PEP     CB37778   7.696  14.829  20.285  0.2299 -0.0966 -0.2131
 1037PEP     CB37779   7.221  14.891  20.305 -0.0762  0.1207 -0.0377
 1037PEP     CB37780   6.878  15.194  20.492 -0.0572  0.3266  0.2407
 1037PEP     CB37781   6.702  15.619  20.464 -0.4317 -0.2921  0.1775
 1037PEP     CB37782   6.761  15.996  20.237 -0.2617 -0.1813  0.3420
 1037PEP     CB37783   6.530  16.421  20.136 -0.3342 -0.0114  0.0496
 1037PEP     CB37784   6.228  16.600  20.397  0.0126 -0.0660  0.1257
 1037PEP     CB37785   6.071  16.905  20.660  0.0849 -0.1220 -0.0234
 1037PEP     CB37786   6.339  16.960  20.926 -0.1902 -0.0632  0.0018
 1037PEP     CB37787   6.514  16.600  21.111 -0.1571 -0.0052  0.0934
 1037PEP     CB37788   6.656  16.371  20.951 -0.4395  0.1116  0.0290
 1037PEP     CB37789   6.493  16.258  20.599 -0.2824 -0.0149  0.0056
 1037PEP     CB37790   6.270  15.937  20.283  0.2322  0.5858 -0.0777
 1037PEP     CB37791   6.300  15.450  20.204 -0.1931  0.1255  0.1632
 1037PEP     CB37792   6.455  15.038  20.204  0.1954  0.4031 -0.3087
 1037PEP     CB37793   6.586  14.661  20.007 -0.0612 -0.0213  0.0680
 1037PEP     CB37794   6.908  14.395  19.904 -0.0980 -0.0684 -0.1770
 1037PEP     CB37795   7.197  14.393  19.560 -0.1493 -0.2006 -0.2487
 1037PEP     CB37796   7.065  14.527  19.126 -0.3002  0.1224  0.1907
 1037PEP     CB37797   6.686  14.620  18.991  0.1127 -0.2716  0.0325
 1037PEP     CB37798   6.396  14.900  18.948 -0.2889  0.0393  0.0659
 1037PEP     CB37799   6.080  15.091  19.160  0.1789 -0.1552 -0.0931
 1037PEP     CB37800   5.615  15.193  18.929  0.0482  0.1762 -0.1504
 1038PEP     CB37801  17.838  15.288  14.765 -0.1512 -0.0294 -0.0400
 1038PEP     CB37802  18.123  15.518  14.695  0.0230 -0.1663  0.2543
 1038PEP     CB37803  18.570  15.478  14.595  0.2259 -0.6468  0.5236
 1038PEP     CB37804  18.712  15.242  14.225  0.2138 -0.4059 -0.3165
 1038PEP     CB37805  19.137  14.930  14.179 -0.2063  0.4920 -0.1980
 1038PEP     CB37806  19.597  15.048  14.072  0.3977  0.3512  0.3109
 1038PEP     CB37807  20.055  15.133  14.189  0.2844 -0.0378  0.2075
 1038PEP     CB37808  20.474  15.334  14.227 -0.3005  0.3396  0.5816
 1038PEP     CB37809  20.942  15.357  14.374  0.0361  0.3222 -0.3657
 1038PEP     CB37810  21.363  15.348  14.508 -0.1051 -0.0399  0.1017
 1038PEP     CB37811  21.685  15.656  14.645  0.2411 -0.1052  0.0199
 1038PEP     CB37812  21.612  16.072  14.385 -0.3768 -0.1348 -0.4064
 1038PEP     CB37813  21.162  16.214  14.313  0.5796 -0.2344 -0.3822
 1038PEP     CB37814  20.776  16.084  14.473  0.3945  0.1305  0.1583
 1038PEP     CB37815  20.380  15.778  14.402  0.0933  0.4560 -0.3190
 1038PEP     CB37816  20.135  15.607  14.042  0.1769  0.1539 -0.1464
 1038PEP     CB37817  19.826  15.478  13.753 -0.1988  0.1646 -0.2511
 1038PEP     CB37818  19.680  14.997  13.547 -0.1077 -0.2877  0.3113
 1038PEP     CB37819  19.531  14.646  13.322 -0.3031  0.0106  0.1398
 1038PEP     CB37820  19.240  14.260  13.440  0.1807 -0.0811  0.0174
 1038PEP     CB37821  19.128  14.118  13.742  0.0590  0.4455 -0.0631
 1038PEP     CB37822  19.234  13.734  14.021  0.5670 -0.1010  0.1724
 1038PEP     CB37823  19.317  13.489  14.461  0.1611  0.0563  0.0793
 1038PEP     CB37824  19.597  13.330  14.650 -0.1530 -0.2047  0.0295
 1038PEP     CB37825  19.735  13.264  15.080 -0.3018 -0.2017 -0.3201
 1038PEP     CB37826  19.719  13.354  15.490 -0.1315 -0.1344 -0.0909
 1038PEP     CB37827  19.609  13.306  15.901 -0.3875  0.1833  0.1997
 1038PEP     CB37828  19.443  13.181  16.313 -0.0402  0.0429 -0.0860
 1038PEP     CB37829  19.348  13.244  16.770 -0.4909  0.0146 -0.0561
 1038PEP     CB37830  19.217  13.334  17.227 -0.1699 -0.2402 -0.1166
 1038PEP     CB37831  19.377  13.415  17.607 -0.2954 -0.1212 -0.0903
 1038PEP     CB37832  19.770  13.575  17.790 -0.0405  0.1922  0.4926
 1038PEP     CB37833  20.230  13.356  17.916  0.1990  0.0669  0.1102
 1038PEP     CB37834  20.495  13.098  18.082  0.3982 -0.1831  0.3105
 1038PEP     CB37835  20.833  13.221  18.233 -0.0082 -0.0706  0.2259
 1038PEP     CB37836  21.285  13.179  18.451  0.0491 -0.0564 -0.2306
 1038PEP     CB37837  21.706  13.162  18.591 -0.1808 -0.2933  0.1442
 1038PEP     CB37838  22.070  13.205  18.702  0.1111 -0.1431 -0.0674
 1038PEP     CB37839  22.372  12.968  18.908 -0.2377  0.2118 -0.0162
 1038PEP     CB37840  22.606  12.515  18.996  0.3497 -0.6895 -0.0582
 1039PEP     CB37841   2.924   6.480  10.785 -0.1786  0.1254 -0.0851
 1039PEP     CB37842   2.888   6.432  11.172 -0.1753 -0.5760 -0.1040
 1039PEP     CB37843   2.984   6.617  11.483 -0.2555  0.0464 -0.2619
 1039PEP     CB37844   3.124   6.608  11.993 -0.2171 -0.0835  0.1228
 1039PEP     CB37845   3.328   6.240  12.222 -0.0479  0.1130  0.3453
 1039PEP     CB37846   3.465   5.821  12.158  0.4098  0.1289 -0.0925
 1039PEP     CB37847   3.544   5.563  12.579 -0.3307 -0.0947  0.1864
 1039PEP     CB37848   3.605   5.752  12.986 -0.3244 -0.1019 -0.4025
 1039PEP     CB37849   3.823   6.106  13.212 -0.0109 -0.0946  0.0380
 1039PEP     CB37850   4.039   6.006  13.641 -0.1757 -0.0044 -0.0131
 1039PEP     CB37851   3.889   5.715  13.897 -0.4555 -0.0926 -0.1038
 1039PEP     CB37852   3.860   5.337  14.036 -0.0687 -0.1800 -0.1567
 1039PEP     CB37853   4.023   4.992  13.944  0.0642  0.3303 -0.3777
 1039PEP     CB37854   4.076   4.575  13.746  0.3924 -0.0853  0.1359
 1039PEP     CB37855   4.238   4.453  13.353  0.0548  0.1855  0.2935
 1039PEP     CB37856   4.117   4.544  12.901 -0.0503 -0.2480  0.1124
 1039PEP     CB37857   4.120   5.073  12.721  0.0110  0.0051 -0.0527
 1039PEP     CB37858   4.502   5.329  12.769  0.0832 -0.1614 -0.3117
 1039PEP     CB37859   4.974   5.098  12.925 -0.2721 -0.0312  0.2118
 1039PEP     CB37860   5.081   4.858  13.228  0.1015  0.3481  0.0776
 1039PEP     CB37861   4.848   4.655  13.579  0.1028  0.0337  0.1190
 1039PEP     CB37862   4.670   4.345  13.619  0.1073 -0.0144  0.2516
 1039PEP     CB37863   4.372   4.042  13.614  0.1234  0.1366  0.1402
 1039PEP     CB37864   4.303   3.612  13.749 -0.1621 -0.1595 -0.3121
 1039PEP     CB37865   4.533   3.230  13.916 -0.0661 -0.3419  0.2627
 1039PEP     CB37866   4.859   2.971  14.239  0.0358  0.0039  0.3223
 1039PEP     CB37867   5.110   2.848  14.573  0.0616 -0.2790  0.1413
 1039PEP     CB37868   5.000   2.710  14.981 -0.0391  0.2763  0.1002
 1039PEP     CB37869   4.995   2.987  15.372  0.2862  0.1477  0.2398
 1039PEP     CB37870   5.253   3.362  15.512  0.1939  0.1032  0.1845
 1039PEP     CB37871   5.633   3.608  15.593 -0.1227 -0.3981 -0.2138
 1039PEP     CB37872   5.784   4.000  15.683 -0.0448  0.0457 -0.0681
 1039PEP     CB37873   6.012   4.310  15.473 -0.0647  0.0293 -0.1964
 1039PEP     CB37874   6.130   4.337  15.058  0.3430  0.1141 -0.1896
 1039PEP     CB37875   6.168   3.910  14.873  0.3276  0.1433  0.0513
 1039PEP     CB37876   6.493   3.719  15.197 -0.1553  0.0203 -0.0386
 1039PEP     CB37877   6.623   3.910  15.599  0.0495  0.2999  0.1570
 1039PEP     CB37878   6.372   4.119  15.939 -0.1076 -0.3705  0.3845
 1039PEP     CB37879   6.292   4.096  16.366  0.0457  0.0537  0.1362
 1039PEP     CB37880   6.553   4.166  16.759  0.4341 -0.0855  0.0820
 1040PEP     CB37881  17.532   9.627  17.123  0.5481  0.0638  0.0196
 1040PEP     CB37882  17.300   9.378  17.407  0.1626 -0.0154 -0.1656
 1040PEP     CB37883  16.976   9.157  17.590  0.0426 -0.0826  0.3016
 1040PEP     CB37884  16.720   8.877  17.715  0.0263 -0.2991  0.1881
 1040PEP     CB37885  16.638   8.745  18.177 -0.1800  0.1054  0.1618
 1040PEP     CB37886  16.324   8.736  18.531  0.5021  0.2159 -0.2141
 1040PEP     CB37887  15.893   8.513  18.694 -0.2934  0.0650  0.1553
 1040PEP     CB37888  15.622   8.561  19.047  0.0248  0.0254 -0.3557
 1040PEP     CB37889  15.445   8.563  19.502  0.1369 -0.0490 -0.3439
 1040PEP     CB37890  15.479   8.377  19.929 -0.0223 -0.0117 -0.1518
 1040PEP     CB37891  15.623   8.100  20.251  0.1482 -0.1973 -0.0547
 1040PEP     CB37892  15.486   8.040  20.694  0.0512 -0.1341 -0.2747
 1040PEP     CB37893  15.552   8.373  20.992  0.2831 -0.0158 -0.4320
 1040PEP     CB37894  15.798   8.674  20.923  0.0713  0.3043  0.2742
 1040PEP     CB37895  16.113   8.678  20.542 -0.3028  0.2827  0.1981
 1040PEP     CB37896  15.974   8.475  20.054  0.0663  0.2904  0.5444
 1040PEP     CB37897  15.858   8.102  19.841 -0.0396  0.0936  0.0278
 1040PEP     CB37898  16.017   7.758  19.601  0.0704 -0.2893 -0.4427
 1040PEP     CB37899  16.214   7.410  19.409 -0.2575 -0.2016 -0.3508
 1040PEP     CB37900  16.316   6.955  19.237 -0.0236  0.0070 -0.0275
 1040PEP     CB37901  16.518   6.447  19.302  0.4062 -0.0805 -0.0940
 1040PEP     CB37902  16.678   6.106  19.437 -0.0825 -0.1461  0.0231
 1040PEP     CB37903  17.004   5.792  19.497 -0.0727  0.1079  0.0474
 1040PEP     CB37904  17.160   5.457  19.257 -0.2660 -0.3275 -0.1310
 1040PEP     CB37905  17.249   5.005  19.098  0.2158 -0.0789  0.0310
 1040PEP     CB37906  17.377   4.653  18.774  0.2380 -0.1447 -0.2710
 1040PEP     CB37907  17.624   4.544  18.354 -0.3080 -0.0501 -0.3928
 1040PEP     CB37908  17.797   4.489  17.992 -0.2375 -0.0550  0.1293
 1040PEP     CB37909  18.233   4.318  17.834 -0.1990  0.4032 -0.1669
 1040PEP     CB37910  18.447   3.910  17.987 -0.2264 -0.1792  0.0647
 1040PEP     CB37911  18.469   3.640  18.259  0.0485 -0.0765 -0.1186
 1040PEP     CB37912  18.802   3.328  18.458  0.1308 -0.2699 -0.2830
 1040PEP     CB37913  19.269   3.372  18.496  0.1424 -0.2310 -0.1859
 1040PEP     CB37914  19.616   3.293  18.350  0.4969 -0.2594 -0.2946
 1040PEP     CB37915  19.920   3.551  18.298 -0.0237  0.0780  0.3178
 1040PEP     CB37916  20.306   3.679  18.267 -0.3194 -0.2406  0.0725
 1040PEP     CB37917  20.794   3.737  18.102  0.2193 -0.1554 -0.0237
 1040PEP     CB37918  21.165   3.628  17.927  0.2626  0.3235  0.1443
 1040PEP     CB37919  21.420   3.442  17.619 -0.0755  0.1249 -0.2495
 1040PEP     CB37920  21.855   3.346  17.450 -0.1664  0.2568 -0.3082
 1041PEP     CB37921  14.354  14.357   4.904 -0.1690  0.1218  0.1541
 1041PEP     CB37922  14.151  14.842   4.869  0.2698 -0.2921  0.2185
 1041PEP     CB37923  14.236  15.266   4.863  0.0682 -0.4020  0.2620
 1041PEP     CB37924  13.985  15.573   4.568  0.0779 -0.0219 -0.1393
 1041PEP     CB37925  13.757  15.571   4.155 -0.1293 -0.4402 -0.2801
 1041PEP     CB37926  13.474  15.483   3.952  0.0892 -0.0937  0.0712
 1041PEP     CB37927  13.221  15.726   3.845  0.0541  0.3709  0.1835
 1041PEP     CB37928  13.461  16.135   3.970  0.1050  0.1001 -0.0158
 1041PEP     CB37929  13.627  16.506   3.972  0.2103  0.2886  0.1470
 1041PEP     CB37930  13.489  16.953   3.850 -0.2548  0.4093  0.1194
 1041PEP     CB37931  13.210  17.326   3.692  0.1629  0.4958  0.0695
 1041PEP     CB37932  13.126  17.737   3.954 -0.1476 -0.3099 -0.1327
 1041PEP     CB37933  13.266  17.831   4.368  0.3631  0.2763 -0.1012
 1041PEP     CB37934  13.641  17.962   4.343 -0.2638 -0.3943  0.2356
 1041PEP     CB37935  13.996  18.246   4.469 -0.0589 -0.1557 -0.2463
 1041PEP     CB37936  14.341  18.404   4.678  0.2257  0.1321  0.2099
 1041PEP     CB37937  14.718  18.634   4.568  0.0770 -0.0044 -0.0949
 1041PEP     CB37938  15.042  18.739   4.392 -0.0210 -0.3750  0.2974
 1041PEP     CB37939  15.412  19.029   4.402 -0.1828  0.3068 -0.5594
 1041PEP     CB37940  15.680  19.284   4.181 -0.0777  0.0478  0.4129
 1041PEP     CB37941  16.012  19.525   4.228 -0.1987  0.1916  0.1285
 1041PEP     CB37942  16.538  19.574   4.244 -0.0131 -0.0703 -0.3360
 1041PEP     CB37943  16.849  19.638   3.919 -0.0612 -0.0043 -0.0302
 1041PEP     CB37944  17.039  19.933   3.732 -0.1327 -0.4079 -0.0320
 1041PEP     CB37945  17.043  20.138   3.421  0.0813 -0.0006 -0.3122
 1041PEP     CB37946  17.104  20.382   3.095  0.1337 -0.3140  0.2762
 1041PEP     CB37947  17.426  20.505   2.858 -0.1650 -0.0420 -0.0443
 1041PEP     CB37948  17.892  20.534   2.806  0.3086  0.2208 -0.0332
 1041PEP     CB37949  18.270  20.607   2.716  0.1187 -0.1016  0.1315
 1041PEP     CB37950  18.496  20.378   2.357  0.0244 -0.1366  0.0357
 1041PEP     CB37951  18.258  20.029   1.977  0.2188 -0.1435  0.0755
 1041PEP     CB37952  17.999  19.723   1.790 -0.0539 -0.1731 -0.0278
 1041PEP     CB37953  17.769  19.267   1.966 -0.0771  0.0678 -0.1922
 1041PEP     CB37954  17.660  19.138   2.443  0.2650 -0.0668  0.1838
 1041PEP     CB37955  17.796  19.057   2.906  0.1440 -0.0671  0.0571
 1041PEP     CB37956  17.618  19.269   3.281  0.0503  0.0372  0.0949
 1041PEP     CB37957  17.245  19.577   3.483 -0.3067  0.1253 -0.2196
 1041PEP     CB37958  16.813  19.660   3.275 -0.3780  0.1353 -0.0769
 1041PEP     CB37959  16.462  19.532   3.259 -0.0471  0.0515  0.5817
 1041PEP     CB37960  16.156  19.156   3.020  0.4167 -0.0459  0.4312
 1042PEP     CB37961   1.177   8.885  16.711  0.2117  0.2448 -0.1167
 1042PEP     CB37962   1.287   8.660  16.305 -0.0616  0.0183 -0.1926
 1042PEP     CB37963   1.628   8.568  16.033  0.5277  0.1624 -0.2870
 1042PEP     CB37964   1.888   8.837  15.972  0.1571 -0.1065 -0.1082
 1042PEP     CB37965   1.815   9.220  16.024 -0.4078 -0.1060 -0.3839
 1042PEP     CB37966   1.319   9.440  16.163 -0.3445 -0.3110 -0.0361
 1042PEP     CB37967   1.077   9.435  16.527  0.1300 -0.2119  0.2066
 1042PEP     CB37968   0.873   9.752  16.797  0.1585  0.2595  0.0766
 1042PEP     CB37969   0.876  10.214  16.845  0.0136 -0.2805  0.2143
 1042PEP     CB37970   0.674  10.603  16.798  0.3715  0.2963 -0.0499
 1042PEP     CB37971   0.412  10.777  17.128  0.2750  0.0143 -0.0851
 1042PEP     CB37972   0.457  10.679  17.497 -0.2501 -0.2168  0.2544
 1042PEP     CB37973   0.420  10.320  17.732  0.3264 -0.0063  0.1542
 1042PEP     CB37974   0.395   9.774  17.783 -0.2742 -0.2801 -0.2081
 1042PEP     CB37975   0.576   9.502  17.686 -0.0071 -0.3912  0.1982
 1042PEP     CB37976   0.966   9.260  17.546 -0.2988 -0.3608  0.1253
 1042PEP     CB37977   1.176   8.930  17.250 -0.3158 -0.2071 -0.0624
 1042PEP     CB37978   1.580   8.713  17.204  0.3628  0.0298  0.0613
 1042PEP     CB37979   1.810   8.345  16.978  0.0316 -0.0965  0.2005
 1042PEP     CB37980   1.868   8.053  16.662  0.1074  0.2520 -0.0372
 1042PEP     CB37981   1.850   7.822  16.237 -0.3529  0.3274 -0.2743
 1042PEP     CB37982   2.004   7.815  15.836  0.1516 -0.2176 -0.2294
 1042PEP     CB37983   2.148   7.939  15.389  0.1402 -0.1978  0.1534
 1042PEP     CB37984   2.408   8.242  15.122 -0.2589 -0.1519  0.4348
 1042PEP     CB37985   2.456   8.542  14.825 -0.3112  0.1537  0.0519
 1042PEP     CB37986   2.454   8.958  14.740 -0.0947  0.2525 -0.1162
 1042PEP     CB37987   2.704   9.293  14.848  0.1649  0.2536  0.1350
 1042PEP     CB37988   3.092   9.437  14.778  0.0331 -0.0130 -0.2380
 1042PEP     CB37989   3.398   9.105  14.589  0.2678 -0.3337  0.3515
 1042PEP     CB37990   3.682   9.095  14.244  0.1152  0.3257  0.2668
 1042PEP     CB37991   3.990   9.309  14.212 -0.0709 -0.2351  0.1666
 1042PEP     CB37992   4.304   9.569  14.454  0.0278 -0.1988  0.3042
 1042PEP     CB37993   4.394   9.628  14.848  0.0224 -0.3930 -0.1988
 1042PEP     CB37994   4.262   9.420  15.203 -0.2126 -0.3838 -0.1275
 1042PEP     CB37995   4.139   8.989  15.286 -0.2250 -0.2268 -0.2808
 1042PEP     CB37996   4.033   8.660  14.932  0.4064  0.0016  0.0477
 1042PEP     CB37997   3.934   8.645  14.520 -0.1357 -0.0013 -0.1515
 1042PEP     CB37998   4.154   8.865  14.138  0.1518 -0.2026 -0.1365
 1042PEP     CB37999   4.300   9.031  13.831 -0.6123  0.3105 -0.0306
 1042PEP     CB38000   4.699   9.097  13.599  0.0199  0.0839 -0.1155
 1043PEP     CB38001  10.196   7.688   7.600  0.0748  0.1604 -0.2189
 1043PEP     CB38002  10.135   8.119   7.556 -0.5951 -0.2789  0.0127
 1043PEP     CB38003  10.337   8.475   7.383 -0.0666  0.4006 -0.0386
 1043PEP     CB38004  10.469   8.867   7.166  0.3340 -0.0678 -0.1003
 1043PEP     CB38005  10.755   9.213   7.000  0.1185  0.0565 -0.0306
 1043PEP     CB38006  10.921   9.516   6.647 -0.1886  0.2143 -0.1823
 1043PEP     CB38007  11.008   9.548   6.182  0.3909  0.3708 -0.3500
 1043PEP     CB38008  10.788   9.736   5.865 -0.2390  0.1441 -0.2123
 1043PEP     CB38009  10.488  10.015   5.527 -0.0149  0.1512 -0.1668
 1043PEP     CB38010  10.459  10.289   5.205 -0.0443 -0.4049  0.0048
 1043PEP     CB38011  10.369  10.407   4.803  0.0213 -0.4110 -0.0922
 1043PEP     CB38012  10.192  10.583   4.419 -0.3151  0.3992  0.0897
 1043PEP     CB38013   9.940  10.918   4.195 -0.3538  0.0920  0.0480
 1043PEP     CB38014   9.491  10.996   4.256 -0.1211  0.0857 -0.0210
 1043PEP     CB38015   9.175  10.889   4.098  0.0490 -0.0612 -0.1964
 1043PEP     CB38016   9.022  10.676   3.668  0.0060  0.4047  0.1990
 1043PEP     CB38017   9.089  10.731   3.218 -0.0176 -0.3865  0.2219
 1043PEP     CB38018   9.339  10.878   2.826  0.5196 -0.0362  0.1594
 1043PEP     CB38019   9.686  10.875   2.566 -0.2103 -0.2968 -0.0479
 1043PEP     CB38020  10.123  10.853   2.549 -0.0150 -0.3880  0.1927
 1043PEP     CB38021  10.459  10.786   2.228 -0.0786  0.1750 -0.1532
 1043PEP     CB38022  10.670  10.901   1.758  0.0474  0.1065  0.0839
 1043PEP     CB38023  10.615  10.980   1.336  0.0849 -0.1389 -0.0341
 1043PEP     CB38024  10.630  10.787   0.912  0.3637 -0.3676  0.0092
 1043PEP     CB38025  10.767  10.813   0.606 -0.0282  0.0674 -0.5153
 1043PEP     CB38026  10.895  10.904   0.184  0.4845 -0.2656  0.4460
 1043PEP     CB38027  11.188  10.858  -0.145  0.2159  0.2440  0.0456
 1043PEP     CB38028  11.416  10.735  -0.517 -0.0215  0.4268  0.0679
 1043PEP     CB38029  11.722  10.639  -0.919 -0.4946  0.0187  0.0275
 1043PEP     CB38030  11.911  10.633  -1.338  0.4194  0.2644  0.0912
 1043PEP     CB38031  12.247  10.682  -1.458  0.0574  0.4476 -0.0512
 1043PEP     CB38032  12.638  10.754  -1.276  0.1997 -0.1265  0.4432
 1043PEP     CB38033  13.009  10.698  -0.948  0.5115 -0.0668  0.2092
 1043PEP     CB38034  13.163  10.717  -0.592  0.1123  0.0159  0.2145
 1043PEP     CB38035  13.243  10.617  -0.182  0.0188  0.0910  0.0706
 1043PEP     CB38036  13.375  10.747   0.224 -0.1527  0.4078  0.0803
 1043PEP     CB38037  13.644  10.875   0.507  0.0500  0.1356  0.0154
 1043PEP     CB38038  13.969  10.900   0.746 -0.1559  0.0520  0.2373
 1043PEP     CB38039  14.148  10.800   1.092 -0.0600  0.3203 -0.0973
 1043PEP     CB38040  14.471  10.866   1.303 -0.1079  0.3190  0.1714
 1044PEP     CB38041  12.548   6.401   5.791 -0.0185 -0.2607 -0.0233
 1044PEP     CB38042  12.267   6.675   5.853  0.0141 -0.1986 -0.1588
 1044PEP     CB38043  11.950   6.956   6.092  0.2521  0.0470  0.3185
 1044PEP     CB38044  11.905   7.348   6.145 -0.1298 -0.3519  0.1331
 1044PEP     CB38045  11.825   7.732   6.198 -0.1483 -0.1522  0.2358
 1044PEP     CB38046  12.025   8.007   6.433  0.1190  0.0407 -0.3580
 1044PEP     CB38047  12.292   7.949   6.811 -0.1360  0.1051 -0.0804
 1044PEP     CB38048  12.717   8.009   6.867 -0.1056 -0.2588 -0.1361
 1044PEP     CB38049  13.028   8.134   6.555 -0.1413  0.0104 -0.2654
 1044PEP     CB38050  13.002   8.405   6.424  0.1021  0.1479  0.3544
 1044PEP     CB38051  12.845   8.754   6.708 -0.1093  0.3226  0.0651
 1044PEP     CB38052  12.591   8.737   7.160 -0.1380 -0.2860  0.3688
 1044PEP     CB38053  12.227   8.548   7.499 -0.0393 -0.3629 -0.0111
 1044PEP     CB38054  11.821   8.353   7.650  0.1237  0.2206  0.1948
 1044PEP     CB38055  11.465   8.147   7.396 -0.0492 -0.2396 -0.2147
 1044PEP     CB38056  11.196   8.387   7.118  0.0891 -0.1381  0.2222
 1044PEP     CB38057  11.120   8.356   6.689  0.1968 -0.1190  0.2220
 1044PEP     CB38058  11.252   8.475   6.285  0.0311  0.0868  0.1746
 1044PEP     CB38059  11.626   8.506   6.159  0.2213  0.1217 -0.3621
 1044PEP     CB38060  11.947   8.549   5.874 -0.2358 -0.0745  0.1565
 1044PEP     CB38061  12.193   8.834   5.591 -0.4719 -0.1765 -0.1759
 1044PEP     CB38062  12.423   9.160   5.464 -0.1468  0.5619  0.0259
 1044PEP     CB38063  12.716   9.304   5.176  0.3703  0.1279  0.4290
 1044PEP     CB38064  12.735   9.584   4.755 -0.2427 -0.5358 -0.0734
 1044PEP     CB38065  12.693   9.677   4.287  0.3235 -0.4748  0.2843
 1044PEP     CB38066  12.757  10.094   3.953  0.1393 -0.1097 -0.1315
 1044PEP     CB38067  13.176  10.097   3.691  0.0673  0.2968 -0.4596
 1044PEP     CB38068  13.415   9.658   3.527 -0.1849 -0.4820 -0.1272
 1044PEP     CB38069  13.309   9.214   3.744 -0.1061  0.0867  0.2524
 1044PEP     CB38070  12.985   9.115   4.038 -0.0489 -0.0836 -0.1367
 1044PEP     CB38071  13.030   8.851   4.504  0.2151 -0.1446 -0.0645
 1044PEP     CB38072  12.676   8.754   4.688 -0.1187 -0.2899 -0.3884
 1044PEP     CB38073  12.271   8.671   4.601 -0.0339 -0.2033  0.0617
 1044PEP     CB38074  11.881   8.456   4.770 -0.1425 -0.5647  0.0811
 1044PEP     CB38075  11.593   8.584   5.155  0.1679  0.2206  0.1560
 1044PEP     CB38076  11.199   8.416   5.320  0.3759  0.0623 -0.2958
 1044PEP     CB38077  10.906   7.900   5.247  0.0932  0.0019  0.2415
 1044PEP     CB38078  10.663   7.530   5.284 -0.0877  0.0937 -0.1835
 1044PEP     CB38079  10.620   7.204   5.065  0.2457  0.5128 -0.1939
 1044PEP     CB38080  10.953   7.032   4.726 -0.5152 -0.2571 -0.0502
 1045PEP     CB38081  10.920  20.577  10.189 -0.0948 -0.2160 -0.1827
 1045PEP     CB38082  11.259  20.741  10.232  0.0793  0.1761 -0.2295
 1045PEP     CB38083  11.671  20.794  10.468  0.1327 -0.1354 -0.0523
 1045PEP     CB38084  11.960  21.055  10.596 -0.0729  0.2857 -0.1635
 1045PEP     CB38085  12.030  21.452  10.776 -0.0413 -0.0064 -0.0310
 1045PEP     CB38086  12.244  21.813  10.831 -0.2046 -0.3967  0.0988
 1045PEP     CB38087  12.650  21.817  10.764  0.0219  0.3417 -0.1241
 1045PEP     CB38088  12.981  21.963  10.552 -0.3413  0.1052 -0.1525
 1045PEP     CB38089  13.059  22.154  10.259  0.0116 -0.4269 -0.1396
 1045PEP     CB38090  13.302  22.358   9.924  0.0429 -0.1719  0.3875
 1045PEP     CB38091  13.456  22.510   9.558  0.3235 -0.5396  0.0812
 1045PEP     CB38092  13.314  22.877   9.385  0.0949 -0.4612  0.3237
 1045PEP     CB38093  13.245  23.213   9.596 -0.1691 -0.6035  0.1305
 1045PEP     CB38094  13.021  23.289   9.950 -0.1779 -0.4304  0.0537
 1045PEP     CB38095  12.590  23.359   9.905 -0.0716 -0.5555 -0.0708
 1045PEP     CB38096  12.079  23.343   9.833  0.2480  0.0761 -0.2945
 1045PEP     CB38097  11.781  23.550  10.105 -0.1424  0.0901  0.3857
 1045PEP     CB38098  11.699  23.772  10.477 -0.1032 -0.0557 -0.3475
 1045PEP     CB38099  11.602  24.184  10.631 -0.1850  0.0175 -0.3811
 1045PEP     CB38100  11.811  24.366  10.966  0.1125 -0.1292  0.1607
 1045PEP     CB38101  12.199  24.197  11.204 -0.1944 -0.0517  0.0557
 1045PEP     CB38102  12.344  23.979  11.506  0.1798 -0.2005  0.1628
 1045PEP     CB38103  12.653  24.048  11.807  0.0588  0.0480 -0.4821
 1045PEP     CB38104  13.030  23.901  12.008  0.0157 -0.0902 -0.2652
 1045PEP     CB38105  13.421  23.930  11.955 -0.2269  0.0465  0.3143
 1045PEP     CB38106  13.562  24.251  11.840 -0.3766 -0.1721  0.0396
 1045PEP     CB38107  13.488  24.606  11.483  0.3931  0.0932  0.1801
 1045PEP     CB38108  13.554  24.767  11.154  0.0500 -0.1377 -0.2795
 1045PEP     CB38109  13.604  24.940  10.841 -0.1601  0.0008  0.2294
 1045PEP     CB38110  13.893  25.211  10.698 -0.2962 -0.0406 -0.1077
 1045PEP     CB38111  13.938  25.644  10.786  0.0807 -0.1009  0.0445
 1045PEP     CB38112  13.703  25.969  10.970 -0.1429 -0.3560 -0.0984
 1045PEP     CB38113  13.769  26.317  11.207  0.5596 -0.2759 -0.3143
 1045PEP     CB38114  13.586  26.724  11.469  0.0943  0.2057 -0.0200
 1045PEP     CB38115  13.671  27.170  11.441  0.0719 -0.3557  0.1620
 1045PEP     CB38116  13.859  27.379  11.138  0.1385  0.1524 -0.0504
 1045PEP     CB38117  14.011  27.277  10.711  0.0811 -0.2956  0.1909
 1045PEP     CB38118  14.281  27.123  10.411  0.0787 -0.0957  0.0732
 1045PEP     CB38119  14.702  27.104  10.230  0.4249 -0.0058 -0.2048
 1045PEP     CB38120  14.969  26.824   9.966  0.0297 -0.1088 -0.2929
 1046PEP     CB38121  10.365  16.626  13.017 -0.2048 -0.3200 -0.4862
 1046PEP     CB38122  10.208  16.231  13.230 -0.2319 -0.0963  0.2790
 1046PEP     CB38123  10.411  16.012  13.596  0.0330 -0.0671  0.1547
 1046PEP     CB38124  10.828  16.012  13.855  0.1383  0.2907  0.0887
 1046PEP     CB38125  11.169  15.978  14.212 -0.5848 -0.0967  0.2115
 1046PEP     CB38126  11.476  16.083  14.434  0.0727 -0.2234  0.0796
 1046PEP     CB38127  11.504  16.264  14.823 -0.4921  0.0274 -0.0840
 1046PEP     CB38128  11.386  15.972  15.113  0.2054 -0.0367  0.3094
 1046PEP     CB38129  11.390  15.526  15.254  0.1632 -0.0407  0.0752
 1046PEP     CB38130  11.338  15.230  15.587  0.0804 -0.0855 -0.1327
 1046PEP     CB38131  11.185  15.346  16.057  0.4675  0.1027 -0.4365
 1046PEP     CB38132  11.036  15.491  16.455  0.2556  0.3132 -0.4491
 1046PEP     CB38133  10.973  15.380  16.835  0.0218  0.0778  0.0967
 1046PEP     CB38134  11.158  15.301  17.254  0.5401  0.0991 -0.2564
 1046PEP     CB38135  11.494  15.058  17.376 -0.1545 -0.1374  0.0411
 1046PEP     CB38136  11.647  14.619  17.409  0.0362 -0.1509 -0.1760
 1046PEP     CB38137  11.694  14.313  17.750  0.0855 -0.0491  0.2285
 1046PEP     CB38138  11.740  14.285  18.305 -0.2382 -0.2587  0.0622
 1046PEP     CB38139  11.538  14.513  18.611 -0.0201  0.2132  0.0395
 1046PEP     CB38140  11.299  14.885  18.521 -0.0672 -0.3016 -0.3023
 1046PEP     CB38141  11.240  15.075  18.147 -0.2686  0.2347  0.3229
 1046PEP     CB38142  11.339  15.334  17.768  0.2853  0.0633 -0.1138
 1046PEP     CB38143  11.416  15.527  17.546  0.2302  0.3893 -0.0916
 1046PEP     CB38144  11.559  15.634  17.139 -0.2042  0.3773 -0.0002
 1046PEP     CB38145  11.916  15.765  16.943 -0.0788 -0.3714 -0.0148
 1046PEP     CB38146  12.066  15.476  16.628 -0.1029 -0.1350 -0.1179
 1046PEP     CB38147  12.031  15.019  16.547 -0.0593 -0.1098  0.0299
 1046PEP     CB38148  12.207  14.616  16.463  0.2759  0.0679  0.1913
 1046PEP     CB38149  12.415  14.278  16.131  0.2464 -0.0724 -0.1494
 1046PEP     CB38150  12.688  13.979  15.869  0.3184  0.4714  0.1251
 1046PEP     CB38151  13.073  13.857  16.115 -0.1851 -0.3374 -0.1402
 1046PEP     CB38152  13.333  14.107  16.289 -0.0165 -0.2036  0.2218
 1046PEP     CB38153  13.291  14.561  16.421 -0.0169  0.0197 -0.0020
 1046PEP     CB38154  13.165  15.035  16.530  0.3415  0.2951 -0.3332
 1046PEP     CB38155  12.879  15.299  16.562  0.2659 -0.4882 -0.3099
 1046PEP     CB38156  12.789  15.589  16.883  0.2671  0.2223  0.1579
 1046PEP     CB38157  12.887  15.504  17.366  0.1358 -0.2284  0.0651
 1046PEP     CB38158  12.887  15.206  17.588  0.2112  0.1751 -0.2003
 1046PEP     CB38159  12.897  14.785  17.587 -0.3387 -0.0934  0.4235
 1046PEP     CB38160  12.713  14.305  17.703 -0.2585  0.3256  0.1336
 1047PEP     CB38161  10.968  17.116   0.753 -0.4901  0.2564  0.4403
 1047PEP     CB38162  11.203  16.868   0.414 -0.0826 -0.1224  0.0452
 1047PEP     CB38163  11.495  16.576   0.126  0.1628  0.1713  0.0113
 1047PEP     CB38164  12.062  16.573   0.171 -0.3449 -0.1820  0.0501
 1047PEP     CB38165  12.547  16.520   0.251 -0.2226 -0.2887 -0.0370
 1047PEP     CB38166  12.983  16.547   0.133 -0.1897 -0.2046  0.2827
 1047PEP     CB38167  13.142  16.622  -0.249  0.6941  0.1389 -0.1297
 1047PEP     CB38168  13.033  16.652  -0.634 -0.0867 -0.0964 -0.3763
 1047PEP     CB38169  12.729  16.417  -0.709 -0.0978 -0.2968 -0.3562
 1047PEP     CB38170  12.419  16.309  -0.480 -0.2580 -0.1192 -0.0268
 1047PEP     CB38171  12.382  16.140  -0.121  0.1561  0.1829 -0.2922
 1047PEP     CB38172  12.121  16.071   0.307 -0.1382 -0.1081 -0.2220
 1047PEP     CB38173  11.966  16.017   0.826  0.0046 -0.1117  0.0118
 1047PEP     CB38174  11.775  16.029   1.205 -0.1767 -0.3120 -0.0507
 1047PEP     CB38175  11.427  15.753   1.356  0.1077 -0.0166  0.1293
 1047PEP     CB38176  11.342  15.303   1.308  0.1286 -0.1810  0.1747
 1047PEP     CB38177  11.174  14.907   1.088  0.0525  0.0436  0.1180
 1047PEP     CB38178  10.999  14.648   0.765 -0.2063 -0.3372  0.1562
 1047PEP     CB38179  10.858  14.331   0.502  0.2373  0.2960  0.1067
 1047PEP     CB38180  10.527  14.237   0.210 -0.1415 -0.0871 -0.2270
 1047PEP     CB38181  10.287  14.321  -0.040  0.0741  0.3304 -0.2837
 1047PEP     CB38182   9.962  14.156  -0.406  0.0014 -0.1678  0.1508
 1047PEP     CB38183   9.604  14.185  -0.520 -0.1527  0.3231  0.3000
 1047PEP     CB38184   9.229  14.282  -0.672 -0.0988 -0.0207  0.0882
 1047PEP     CB38185   8.779  14.383  -0.729 -0.2345  0.0138  0.2667
 1047PEP     CB38186   8.338  14.410  -0.774  0.0496  0.1335 -0.1551
 1047PEP     CB38187   7.942  14.422  -0.589 -0.0743 -0.0292  0.0838
 1047PEP     CB38188   7.584  14.359  -0.284  0.0847  0.0894 -0.0682
 1047PEP     CB38189   7.203  14.414  -0.266 -0.1439 -0.3205  0.3980
 1047PEP     CB38190   6.786  14.599  -0.440  0.3522  0.1862  0.0670
 1047PEP     CB38191   6.317  14.698  -0.460  0.2392 -0.0803  0.1256
 1047PEP     CB38192   5.876  14.946  -0.509  0.0283  0.0464  0.3284
 1047PEP     CB38193   5.858  15.418  -0.478  0.1758 -0.0382  0.5436
 1047PEP     CB38194   5.826  15.852  -0.382 -0.0340  0.0503 -0.0210
 1047PEP     CB38195   6.094  16.169  -0.252 -0.2058  0.3989  0.3069
 1047PEP     CB38196   6.500  16.112  -0.063  0.1439 -0.3784 -0.0590
 1047PEP     CB38197   6.705  15.788  -0.099  0.1686 -0.1546  0.2440
 1047PEP     CB38198   6.770  15.480  -0.483 -0.4827 -0.0236 -0.1472
 1047PEP     CB38199   6.765  15.541  -0.861 -0.0477  0.0011 -0.3266
 1047PEP     CB38200   6.676  15.898  -1.114  0.0353 -0.0074  0.1110
 1048PEP     CB38201   3.737   7.405  21.224  0.1111 -0.3573  0.0511
 1048PEP     CB38202   4.175   7.373  21.242 -0.3640 -0.2591 -0.3483
 1048PEP     CB38203   4.611   7.600  21.082 -0.3458  0.0425  0.2357
 1048PEP     CB38204   4.927   7.931  21.300 -0.1446  0.0474 -0.0402
 1048PEP     CB38205   5.053   8.354  21.476  0.1653 -0.0161 -0.2315
 1048PEP     CB38206   5.250   8.784  21.405 -0.0204  0.0287 -0.1242
 1048PEP     CB38207   5.425   8.990  21.057  0.0737  0.1558 -0.1385
 1048PEP     CB38208   5.595   9.124  20.746 -0.0048  0.2058 -0.1516
 1048PEP     CB38209   6.034   9.322  20.797  0.1139  0.0336  0.2896
 1048PEP     CB38210   6.284   9.293  21.133  0.0412 -0.1238 -0.0385
 1048PEP     CB38211   6.358   9.016  21.456  0.0928 -0.2560 -0.4885
 1048PEP     CB38212   6.559   9.012  21.707  0.4736  0.5373 -0.2857
 1048PEP     CB38213   6.888   8.859  21.939  0.1644 -0.1139  0.3094
 1048PEP     CB38214   6.969   8.625  22.340  0.2723 -0.0081 -0.1082
 1048PEP     CB38215   7.012   8.289  22.552 -0.2221 -0.2042 -0.3094
 1048PEP     CB38216   7.279   7.912  22.747 -0.5293  0.3645 -0.2104
 1048PEP     CB38217   7.433   7.544  22.789 -0.1839  0.1342  0.0934
 1048PEP     CB38218   7.750   7.255  22.614 -0.0880  0.3048  0.4435
 1048PEP     CB38219   8.183   7.125  22.847  0.2022  0.2936 -0.1874
 1048PEP     CB38220   8.338   7.245  23.366  0.1821 -0.1105  0.3892
 1048PEP     CB38221   8.492   7.364  23.777  0.1531 -0.1132  0.1531
 1048PEP     CB38222   8.539   7.743  23.987  0.1691 -0.1459 -0.1617
 1048PEP     CB38223   8.183   8.002  24.202 -0.3085  0.1320 -0.1293
 1048PEP     CB38224   7.720   7.882  24.183  0.1253  0.3257  0.1489
 1048PEP     CB38225   7.565   7.414  24.222 -0.4333  0.2108  0.0308
 1048PEP     CB38226   7.342   7.089  24.172  0.0408 -0.0655 -0.5104
 1048PEP     CB38227   6.888   6.907  24.261  0.2713  0.3599  0.0958
 1048PEP     CB38228   6.686   6.644  24.051  0.1254  0.1189  0.1424
 1048PEP     CB38229   6.254   6.570  24.023  0.0706 -0.1955  0.1347
 1048PEP     CB38230   5.925   6.730  24.325  0.3684 -0.1488  0.0525
 1048PEP     CB38231   5.830   6.570  24.746  0.2696 -0.2802  0.2515
 1048PEP     CB38232   5.870   6.606  25.173  0.1128  0.1767  0.3381
 1048PEP     CB38233   6.120   6.643  25.634  0.1930 -0.0020  0.1950
 1048PEP     CB38234   6.190   6.697  26.034  0.1985  0.3633 -0.0407
 1048PEP     CB38235   6.268   6.581  26.490 -0.0813  0.2870  0.0502
 1048PEP     CB38236   6.592   6.475  26.852 -0.3680 -0.1844 -0.0143
 1048PEP     CB38237   6.991   6.249  26.772 -0.1972  0.0230  0.1433
 1048PEP     CB38238   7.322   6.414  26.456 -0.2005 -0.1905 -0.2364
 1048PEP     CB38239   7.489   6.617  26.079 -0.4801 -0.2092  0.0773
 1048PEP     CB38240   7.528   6.505  25.600 -0.2374  0.2691  0.1296
 1049PEP     CB38241   9.621  14.917   4.073  0.1148 -0.1022  0.1861
 1049PEP     CB38242   9.829  14.816   3.662  0.1271  0.0307  0.4034
 1049PEP     CB38243   9.959  14.656   3.313 -0.0765  0.2379 -0.1183
 1049PEP     CB38244   9.908  14.433   3.038  0.2025  0.0832 -0.0190
 1049PEP     CB38245   9.686  14.104   2.917  0.3411  0.1936 -0.1836
 1049PEP     CB38246   9.262  14.036   2.657 -0.2161 -0.4991  0.1827
 1049PEP     CB38247   9.143  13.965   2.305  0.2244 -0.2383  0.0244
 1049PEP     CB38248   8.818  13.616   2.215  0.1453 -0.0548 -0.0213
 1049PEP     CB38249   8.689  13.281   2.416  0.4347  0.0980 -0.4223
 1049PEP     CB38250   8.693  13.197   2.816 -0.0051 -0.2553  0.0238
 1049PEP     CB38251   8.575  13.429   3.267 -0.1776 -0.5093  0.1835
 1049PEP     CB38252   8.830  13.780   3.474 -0.0148 -0.1316  0.0951
 1049PEP     CB38253   9.272  13.784   3.692  0.2049 -0.3143 -0.4889
 1049PEP     CB38254   9.685  13.544   3.604  0.1404  0.0328  0.2234
 1049PEP     CB38255   9.995  13.287   3.559 -0.1845  0.3021  0.1763
 1049PEP     CB38256  10.304  12.998   3.399 -0.0377  0.2587  0.4908
 1049PEP     CB38257  10.369  12.568   3.140  0.0062 -0.2390  0.3434
 1049PEP     CB38258  10.633  12.181   3.128  0.0377 -0.0309 -0.2292
 1049PEP     CB38259  10.590  11.802   3.485 -0.2715 -0.2326  0.1256
 1049PEP     CB38260  10.202  11.788   3.585  0.1406  0.2369 -0.0776
 1049PEP     CB38261   9.859  12.053   3.553 -0.4153 -0.0810  0.0939
 1049PEP     CB38262   9.511  12.125   3.787 -0.2268 -0.0696 -0.2402
 1049PEP     CB38263   9.430  12.289   4.073 -0.0650 -0.3359  0.0068
 1049PEP     CB38264   9.138  12.464   4.384  0.0185 -0.1930  0.2938
 1049PEP     CB38265   8.838  12.613   4.648  0.0786  0.1463  0.1574
 1049PEP     CB38266   8.728  12.957   4.855 -0.0494  0.1034  0.3621
 1049PEP     CB38267   8.970  13.302   5.068  0.0277 -0.1358 -0.2628
 1049PEP     CB38268   9.293  13.354   5.284 -0.0580  0.1542  0.0093
 1049PEP     CB38269   9.665  13.167   5.527 -0.2175  0.1531 -0.7030
 1049PEP     CB38270  10.079  13.219   5.693 -0.3608  0.0022  0.1997
 1049PEP     CB38271  10.359  13.075   5.995  0.0152  0.2720 -0.4139
 1049PEP     CB38272  10.540  12.852   6.351 -0.1447  0.2719  0.1089
 1049PEP     CB38273  10.682  12.795   6.706  0.3491  0.0742  0.2573
 1049PEP     CB38274  10.762  12.355   6.978 -0.1050 -0.1026 -0.1871
 1049PEP     CB38275  10.683  11.923   6.738  0.0941  0.2263 -0.0340
 1049PEP     CB38276  10.360  11.708   6.572  0.3557  0.1723 -0.1556
 1049PEP     CB38277  10.076  11.430   6.415  0.1705 -0.1148  0.1364
 1049PEP     CB38278   9.875  10.999   6.595 -0.1146 -0.0654  0.0687
 1049PEP     CB38279   9.979  10.765   6.932  0.3610 -0.3215 -0.1393
 1049PEP     CB38280  10.225  10.437   7.197 -0.1826 -0.3338 -0.5074
 1050PEP     CB38281  19.308   8.879   2.239  0.0885  0.1347 -0.4901
 1050PEP     CB38282  19.262   8.810   2.670  0.0607  0.1595  0.1156
 1050PEP     CB38283  19.342   9.015   3.000  0.1032 -0.0898 -0.1809
 1050PEP     CB38284  19.157   9.352   3.275  0.0470  0.1021 -0.1353
 1050PEP     CB38285  19.057   9.592   3.694 -0.0015 -0.3329 -0.4379
 1050PEP     CB38286  19.129   9.992   3.842 -0.2136 -0.2860 -0.1822
 1050PEP     CB38287  19.505  10.186   3.923  0.2717 -0.3475 -0.1426
 1050PEP     CB38288  19.817  10.333   4.221 -0.1233 -0.2279  0.0346
 1050PEP     CB38289  19.751  10.179   4.666  0.1285 -0.3210 -0.5780
 1050PEP     CB38290  19.327  10.243   4.687 -0.1207 -0.0932  0.2536
 1050PEP     CB38291  19.128  10.534   4.420  0.1183  0.0273 -0.4405
 1050PEP     CB38292  19.356  10.745   4.108  0.2789  0.5323  0.0990
 1050PEP     CB38293  19.601  10.806   3.729 -0.0562  0.0097 -0.0421
 1050PEP     CB38294  19.682  10.559   3.432  0.0471 -0.1155 -0.3277
 1050PEP     CB38295  19.937  10.214   3.417 -0.1467 -0.3566 -0.1104
 1050PEP     CB38296  20.003   9.760   3.337  0.1361 -0.1708 -0.0736
 1050PEP     CB38297  19.938   9.366   3.425  0.0004  0.2616 -0.0179
 1050PEP     CB38298  19.588   9.080   3.492  0.0321 -0.1326 -0.0352
 1050PEP     CB38299  19.270   9.093   3.773  0.0742 -0.1568 -0.2255
 1050PEP     CB38300  19.222   9.279   4.142  0.1158  0.4334  0.2203
 1050PEP     CB38301  19.198   9.663   4.250 -0.4182  0.0719  0.0788
 1050PEP     CB38302  18.923  10.053   4.381 -0.0193 -0.2714  0.2347
 1050PEP     CB38303  18.586  10.189   4.640  0.1663  0.0202  0.0307
 1050PEP     CB38304  18.268  10.144   5.071 -0.0200  0.0232 -0.0537
 1050PEP     CB38305  17.983   9.861   5.290 -0.1693 -0.2323  0.2840
 1050PEP     CB38306  17.619   9.549   5.417  0.0679 -0.0509  0.3772
 1050PEP     CB38307  17.506   9.095   5.437  0.0588  0.2941 -0.3134
 1050PEP     CB38308  17.667   8.714   5.586 -0.2124 -0.1584 -0.0875
 1050PEP     CB38309  17.950   8.485   5.752 -0.1741 -0.4092 -0.1229
 1050PEP     CB38310  18.145   8.212   5.827  0.0108 -0.0973 -0.0871
 1050PEP     CB38311  18.480   7.963   6.067 -0.2917 -0.1095  0.4058
 1050PEP     CB38312  18.709   8.225   6.429 -0.1625 -0.1374  0.2922
 1050PEP     CB38313  18.847   8.625   6.391  0.7054  0.1760 -0.3429
 1050PEP     CB38314  18.965   8.964   6.325 -0.0104  0.1633 -0.0706
 1050PEP     CB38315  18.844   9.409   6.373  0.3780  0.0288  0.2301
 1050PEP     CB38316  18.778   9.774   6.558 -0.4319 -0.3252 -0.1361
 1050PEP     CB38317  18.583  10.174   6.628  0.1801 -0.3942  0.1578
 1050PEP     CB38318  18.363  10.450   6.817 -0.0388  0.0162  0.2407
 1050PEP     CB38319  18.370  10.666   7.243 -0.0071 -0.2518 -0.3440
 1050PEP     CB38320  18.275  10.691   7.641 -0.0290  0.3476 -0.1370
 1051PEP     CB38321  20.144   0.446  11.355 -0.3691  0.1089 -0.0920
 1051PEP     CB38322  20.137   0.270  10.881 -0.3017 -0.2593  0.1462
 1051PEP     CB38323  20.221   0.333  10.478  0.2844 -0.0132  0.0285
 1051PEP     CB38324  20.490   0.684  10.270 -0.0078  0.2312 -0.2150
 1051PEP     CB38325  20.847   0.809  10.435  0.0464  0.3823 -0.1826
 1051PEP     CB38326  20.832   0.973  10.820  0.0774 -0.5633 -0.3332
 1051PEP     CB38327  20.391   1.159  11.083  0.1237  0.2293  0.0661
 1051PEP     CB38328  20.000   0.884  11.184  0.1804 -0.4856 -0.1478
 1051PEP     CB38329  19.745   0.461  11.107 -0.2903 -0.0043  0.0742
 1051PEP     CB38330  19.486   0.236  10.942  0.4029  0.2391  0.1366
 1051PEP     CB38331  19.039   0.166  10.924  0.0783 -0.2273 -0.1185
 1051PEP     CB38332  18.725  -0.089  11.060  0.0890  0.2536  0.0626
 1051PEP     CB38333  18.788  -0.427  11.299 -0.0191 -0.0454  0.1842
 1051PEP     CB38334  19.128  -0.627  11.602  0.0190  0.1546  0.1321
 1051PEP     CB38335  19.351  -0.699  11.932  0.0412  0.0448  0.4294
 1051PEP     CB38336  19.568  -0.382  12.249 -0.1218 -0.3947 -0.0949
 1051PEP     CB38337  19.580  -0.080  12.568 -0.0802 -0.0874  0.0740
 1051PEP     CB38338  19.968   0.173  12.713  0.0191  0.0714  0.2002
 1051PEP     CB38339  20.485   0.115  12.639 -0.0885  0.0567 -0.0335
 1051PEP     CB38340  20.605  -0.272  12.595  0.4141  0.0037  0.2476
 1051PEP     CB38341  20.760  -0.646  12.349  0.0704  0.2202  0.0246
 1051PEP     CB38342  20.891  -0.999  12.176 -0.1959 -0.2215 -0.0904
 1051PEP     CB38343  20.769  -1.406  12.082  0.0485 -0.6031 -0.5729
 1051PEP     CB38344  20.956  -1.741  11.831  0.0674 -0.3312 -0.0042
 1051PEP     CB38345  21.425  -1.813  11.887 -0.2045  0.3519  0.3452
 1051PEP     CB38346  21.859  -1.520  12.107  0.2488 -0.1547  0.2457
 1051PEP     CB38347  22.040  -1.255  12.422  0.1992  0.2289 -0.0110
 1051PEP     CB38348  22.301  -1.000  12.744 -0.0401  0.3582  0.0645
 1051PEP     CB38349  22.556  -0.668  12.951 -0.0836  0.1823 -0.0246
 1051PEP     CB38350  22.980  -0.616  13.083 -0.3182  0.1990  0.1236
 1051PEP     CB38351  23.413  -0.499  12.988 -0.0869 -0.0505 -0.1571
 1051PEP     CB38352  23.849  -0.747  12.911  0.2214  0.3341  0.2210
 1051PEP     CB38353  24.082  -1.072  13.156 -0.2638 -0.3109 -0.5039
 1051PEP     CB38354  23.947  -1.529  13.023  0.0752 -0.2837  0.0665
 1051PEP     CB38355  23.908  -1.756  12.613  0.2976  0.1128  0.1343
 1051PEP     CB38356  23.884  -1.974  12.209 -0.1072 -0.1217  0.0101
 1051PEP     CB38357  24.103  -2.326  12.165  0.3925 -0.1662 -0.0925
 1051PEP     CB38358  24.341  -2.684  12.309  0.3632 -0.6049  0.2141
 1051PEP     CB38359  24.489  -3.041  12.105  0.0968 -0.1292 -0.1478
 1051PEP     CB38360  24.455  -3.300  11.790 -0.1173 -0.3637  0.3450
 1052PEP     CB38361  16.273  17.888   5.444 -0.1552  0.4799  0.0146
 1052PEP     CB38362  16.574  17.844   5.693  0.0786  0.1382 -0.0581
 1052PEP     CB38363  16.681  17.555   6.032  0.1697  0.3504  0.1359
 1052PEP     CB38364  16.436  17.268   6.297 -0.2267 -0.0542 -0.3033
 1052PEP     CB38365  16.141  16.881   6.118 -0.4007  0.0602 -0.1732
 1052PEP     CB38366  16.101  16.454   5.898 -0.2390  0.0456 -0.0713
 1052PEP     CB38367  15.858  16.085   5.779  0.1157  0.1432  0.0402
 1052PEP     CB38368  15.478  16.017   5.548 -0.0383 -0.0720  0.1386
 1052PEP     CB38369  15.269  15.757   5.210  0.1863 -0.1521 -0.1225
 1052PEP     CB38370  15.264  15.588   4.868 -0.1998 -0.2029  0.0571
 1052PEP     CB38371  15.401  15.283   4.679 -0.1154  0.2169  0.2204
 1052PEP     CB38372  15.696  15.151   4.824 -0.2573 -0.2621 -0.0961
 1052PEP     CB38373  16.053  15.315   5.126  0.1732 -0.3169 -0.1181
 1052PEP     CB38374  16.193  15.439   5.528  0.0759  0.0152  0.2063
 1052PEP     CB38375  16.391  15.373   5.884 -0.6992  0.1065  0.3623
 1052PEP     CB38376  16.782  15.197   6.084  0.0040 -0.0306 -0.2387
 1052PEP     CB38377  17.152  15.287   6.173  0.2021 -0.1674  0.1129
 1052PEP     CB38378  17.461  15.573   6.430 -0.0486 -0.3315 -0.2005
 1052PEP     CB38379  17.776  15.445   6.798  0.0451 -0.1455 -0.1163
 1052PEP     CB38380  18.102  15.554   7.004  0.1210  0.1734  0.1578
 1052PEP     CB38381  18.414  15.635   7.367  0.1719 -0.2507 -0.2366
 1052PEP     CB38382  18.634  15.301   7.570  0.3531 -0.1303 -0.1954
 1052PEP     CB38383  18.581  14.883   7.779 -0.0313  0.0722 -0.2438
 1052PEP     CB38384  18.422  14.626   8.066  0.0582 -0.2150 -0.0381
 1052PEP     CB38385  18.341  14.404   8.406 -0.2874  0.1910 -0.1041
 1052PEP     CB38386  18.457  14.208   8.778 -0.3809 -0.1923  0.0509
 1052PEP     CB38387  18.428  13.896   9.114  0.0111 -0.0310  0.1067
 1052PEP     CB38388  18.605  13.584   9.382  0.1449  0.1529  0.2625
 1052PEP     CB38389  18.740  13.552   9.833 -0.0609  0.2586 -0.0939
 1052PEP     CB38390  18.906  13.806  10.273  0.0255  0.2174  0.0329
 1052PEP     CB38391  19.068  14.129  10.499 -0.0846 -0.0259  0.1330
 1052PEP     CB38392  19.437  14.350  10.804 -0.3050  0.2130  0.0374
 1052PEP     CB38393  19.875  14.511  10.990  0.1038 -0.3117 -0.1834
 1052PEP     CB38394  20.216  14.633  11.269  0.4442  0.3385 -0.0472
 1052PEP     CB38395  20.566  14.832  11.407 -0.1371  0.0746 -0.0679
 1052PEP     CB38396  20.837  15.003  11.720 -0.1435 -0.0117 -0.0779
 1052PEP     CB38397  21.083  15.219  11.994  0.0257  0.0632  0.3568
 1052PEP     CB38398  20.924  15.615  12.218  0.2918 -0.4586  0.0738
 1052PEP     CB38399  20.578  15.800  12.520 -0.3428 -0.0183  0.3958
 1052PEP     CB38400  20.161  15.892  12.609 -0.4981  0.0752  0.3359
 1053PEP     CB38401  16.423   3.870   5.925 -0.0122  0.3283  0.3559
 1053PEP     CB38402  16.236   3.910   5.541 -0.1768  0.1982  0.2750
 1053PEP     CB38403  16.045   3.671   5.238  0.2130  0.1733  0.1928
 1053PEP     CB38404  15.681   3.564   4.934 -0.3872 -0.3013 -0.1286
 1053PEP     CB38405  15.239   3.567   4.810 -0.0312  0.4088  0.1995
 1053PEP     CB38406  14.932   3.335   4.509  0.2309  0.0422 -0.1083
 1053PEP     CB38407  14.600   3.183   4.221 -0.0459  0.0037 -0.0652
 1053PEP     CB38408  14.378   3.295   3.769  0.0394 -0.1111  0.2779
 1053PEP     CB38409  14.473   3.550   3.414 -0.3914  0.1013  0.2935
 1053PEP     CB38410  14.898   3.692   3.179  0.0400  0.0075 -0.4574
 1053PEP     CB38411  14.993   3.597   2.698 -0.0065  0.1994 -0.3856
 1053PEP     CB38412  14.775   3.754   2.381 -0.3026  0.1446 -0.1611
 1053PEP     CB38413  14.415   3.571   2.244 -0.3013 -0.1495 -0.1650
 1053PEP     CB38414  14.171   3.309   2.148  0.0160  0.0619 -0.1602
 1053PEP     CB38415  14.031   2.946   1.897 -0.0067 -0.0801 -0.1416
 1053PEP     CB38416  13.889   3.074   1.475  0.0294  0.2851  0.5806
 1053PEP     CB38417  13.892   3.473   1.194 -0.1900  0.1040  0.3395
 1053PEP     CB38418  14.062   3.970   1.316  0.2414  0.0798  0.2972
 1053PEP     CB38419  14.267   4.059   1.614  0.5364  0.6924 -0.0576
 1053PEP     CB38420  14.558   3.849   1.815 -0.0809  0.2020 -0.1748
 1053PEP     CB38421  14.839   3.481   1.841  0.0254 -0.0459 -0.3072
 1053PEP     CB38422  15.214   3.280   1.956  0.3222 -0.0084 -0.1691
 1053PEP     CB38423  15.582   3.143   2.299 -0.0858  0.1738 -0.1804
 1053PEP     CB38424  15.617   2.834   2.698 -0.3559 -0.1517 -0.0658
 1053PEP     CB38425  15.322   2.622   2.941  0.1922 -0.3167  0.0276
 1053PEP     CB38426  14.967   2.428   2.860  0.2662 -0.1385 -0.0405
 1053PEP     CB38427  14.890   2.031   2.495 -0.0810  0.0725  0.1630
 1053PEP     CB38428  15.088   2.017   2.068 -0.1502 -0.1925  0.0965
 1053PEP     CB38429  14.960   2.444   1.707 -0.2637 -0.0579 -0.2100
 1053PEP     CB38430  14.705   2.797   1.793 -0.0924  0.0233 -0.0422
 1053PEP     CB38431  14.492   2.974   2.162 -0.1895  0.1477  0.0102
 1053PEP     CB38432  14.732   3.161   2.489  0.1032 -0.0414  0.0220
 1053PEP     CB38433  15.026   2.870   2.644  0.2660  0.0881 -0.1047
 1053PEP     CB38434  15.303   2.457   2.470 -0.1814  0.3269  0.0577
 1053PEP     CB38435  15.697   2.385   2.471 -0.0437  0.3113  0.1129
 1053PEP     CB38436  16.032   2.602   2.452  0.1883 -0.2657  0.0852
 1053PEP     CB38437  16.217   3.003   2.601  0.1800  0.3890  0.1764
 1053PEP     CB38438  16.146   3.441   2.668 -0.1962  0.2817 -0.0260
 1053PEP     CB38439  15.794   3.732   2.513 -0.1681 -0.2046 -0.0034
 1053PEP     CB38440  15.415   3.756   2.250  0.1712  0.2252  0.0115
 1054PEP     CB38441  15.490   2.758  10.204  0.3338  0.0662 -0.0412
 1054PEP     CB38442  15.815   2.458  10.228 -0.1207 -0.0291 -0.0344
 1054PEP     CB38443  15.784   2.172  10.592 -0.2364 -0.0205 -0.2048
 1054PEP     CB38444  15.861   2.154  11.010 -0.3212  0.1154  0.2478
 1054PEP     CB38445  16.008   2.253  11.413 -0.5521 -0.1595  0.0826
 1054PEP     CB38446  16.404   2.374  11.677  0.4202  0.0493 -0.3366
 1054PEP     CB38447  16.816   2.342  11.565 -0.1897  0.0036  0.3682
 1054PEP     CB38448  16.924   2.093  11.285 -0.0646 -0.0504  0.2435
 1054PEP     CB38449  16.567   2.003  11.004  0.1753 -0.3704  0.2882
 1054PEP     CB38450  16.257   2.048  10.691  0.4754  0.1683 -0.1601
 1054PEP     CB38451  16.122   2.034  10.230 -0.2047 -0.0284  0.0862
 1054PEP     CB38452  16.127   2.380   9.952  0.1002  0.1877  0.1924
 1054PEP     CB38453  15.975   2.829   9.894  0.2031 -0.2885  0.0572
 1054PEP     CB38454  15.580   2.996   9.728 -0.2608  0.0222 -0.1441
 1054PEP     CB38455  15.472   3.110   9.211 -0.4530 -0.1008 -0.1221
 1054PEP     CB38456  15.251   3.020   8.803 -0.3114 -0.4206  0.3311
 1054PEP     CB38457  15.198   3.281   8.442 -0.1713 -0.2027 -0.2440
 1054PEP     CB38458  15.364   3.415   8.029 -0.1026 -0.1997 -0.1890
 1054PEP     CB38459  15.529   3.226   7.722  0.0361  0.1183  0.1396
 1054PEP     CB38460  15.817   2.967   7.460  0.1119 -0.1313  0.1249
 1054PEP     CB38461  16.085   2.686   7.605  0.0886  0.1082 -0.0016
 1054PEP     CB38462  16.183   2.506   8.012  0.2027  0.0404 -0.7556
 1054PEP     CB38463  15.968   2.558   8.339  0.1287  0.0289  0.2641
 1054PEP     CB38464  15.871   2.523   8.784 -0.2694 -0.0219  0.1976
 1054PEP     CB38465  15.813   2.711   9.161 -0.0804 -0.0694 -0.1101
 1054PEP     CB38466  16.080   3.023   9.468 -0.1295 -0.0106  0.2194
 1054PEP     CB38467  16.456   3.003   9.687 -0.3108 -0.1180 -0.5838
 1054PEP     CB38468  16.872   3.055   9.997  0.2086 -0.3748 -0.0906
 1054PEP     CB38469  17.292   3.158  10.095 -0.0129  0.1034  0.0543
 1054PEP     CB38470  17.547   3.116   9.741  0.2541 -0.0401  0.0345
 1054PEP     CB38471  17.727   3.352   9.478  0.2587 -0.4037 -0.2679
 1054PEP     CB38472  17.513   3.772   9.422  0.2223 -0.2993  0.3164
 1054PEP     CB38473  17.099   3.740   9.262 -0.0828 -0.2038  0.1733
 1054PEP     CB38474  16.673   3.572   9.124 -0.0450  0.3354 -0.3746
 1054PEP     CB38475  16.263   3.355   9.064  0.0235 -0.0332  0.1049
 1054PEP     CB38476  15.865   3.242   8.852  0.1414 -0.0023 -0.1005
 1054PEP     CB38477  15.642   3.008   8.554  0.0477 -0.2544 -0.2010
 1054PEP     CB38478  15.429   2.668   8.356 -0.2002 -0.2103  0.0578
 1054PEP     CB38479  15.231   2.336   8.211 -0.0587  0.1805 -0.3413
 1054PEP     CB38480  15.206   1.896   8.096 -0.0249  0.0897 -0.2147
 1055PEP     CB38481   8.005  21.980  12.444  0.0069  0.1667  0.1640
 1055PEP     CB38482   7.767  22.341  12.255  0.0707  0.0909  0.2819
 1055PEP     CB38483   7.872  22.740  12.147  0.0734 -0.1765 -0.1082
 1055PEP     CB38484   8.282  22.829  12.247 -0.1577  0.2534  0.1632
 1055PEP     CB38485   8.689  22.928  12.453  0.0835  0.2472  0.0168
 1055PEP     CB38486   9.123  22.895  12.572 -0.1318 -0.1211  0.1071
 1055PEP     CB38487   9.540  22.549  12.507  0.0995  0.0083  0.3088
 1055PEP     CB38488   9.582  22.116  12.424 -0.0311  0.1201 -0.2430
 1055PEP     CB38489   9.439  21.666  12.364 -0.2987 -0.1349  0.1640
 1055PEP     CB38490   9.440  21.145  12.365 -0.2111 -0.1159 -0.2703
 1055PEP     CB38491   9.204  20.843  12.486 -0.1556 -0.0804 -0.0013
 1055PEP     CB38492   8.948  20.708  12.880 -0.6220  0.0509  0.0147
 1055PEP     CB38493   9.071  20.759  13.310  0.0195 -0.2415 -0.1022
 1055PEP     CB38494   9.339  21.136  13.503  0.2480 -0.3828 -0.1280
 1055PEP     CB38495   9.187  21.460  13.429 -0.0885  0.1195  0.0586
 1055PEP     CB38496   8.893  21.719  13.169  0.0676 -0.1234 -0.2464
 1055PEP     CB38497   8.529  22.136  13.161 -0.1819  0.0741 -0.0891
 1055PEP     CB38498   8.469  22.540  13.310  0.3947 -0.2976 -0.0231
 1055PEP     CB38499   8.561  22.957  13.458  0.0540 -0.2770 -0.1970
 1055PEP     CB38500   8.573  23.360  13.404  0.0334  0.1433  0.0425
 1055PEP     CB38501   8.404  23.607  13.169  0.0783  0.2126 -0.1790
 1055PEP     CB38502   8.213  23.588  12.804 -0.0111 -0.3877 -0.0958
 1055PEP     CB38503   8.083  23.727  12.343 -0.3230  0.3839  0.2566
 1055PEP     CB38504   7.756  23.550  12.121  0.0552 -0.1697 -0.3608
 1055PEP     CB38505   7.397  23.438  12.361 -0.0937 -0.4044  0.2243
 1055PEP     CB38506   7.326  23.520  12.811  0.1146  0.1859  0.5890
 1055PEP     CB38507   7.252  23.952  12.956  0.0027 -0.0483  0.1571
 1055PEP     CB38508   7.047  24.330  12.873 -0.1668  0.3299  0.1367
 1055PEP     CB38509   6.845  24.531  12.511 -0.2922 -0.0634 -0.0569
 1055PEP     CB38510   6.462  24.494  12.304  0.0502 -0.2444 -0.2706
 1055PEP     CB38511   6.334  24.229  12.151 -0.0433 -0.1633 -0.2564
 1055PEP     CB38512   6.396  23.937  11.829  0.1725  0.1152 -0.0249
 1055PEP     CB38513   6.514  23.565  11.659 -0.1506  0.0717  0.0784
 1055PEP     CB38514   6.800  23.295  11.512 -0.0171 -0.4309  0.3599
 1055PEP     CB38515   7.055  23.016  11.708  0.3262 -0.0949  0.2311
 1055PEP     CB38516   6.963  22.890  12.144  0.3315  0.2102  0.1941
 1055PEP     CB38517   6.761  22.694  12.400  0.0584 -0.0697 -0.3880
 1055PEP     CB38518   6.482  22.721  12.776 -0.0064  0.0499  0.3291
 1055PEP     CB38519   6.400  22.835  13.251 -0.2784  0.3537 -0.1382
 1055PEP     CB38520   6.156  22.969  13.561  0.1284 -0.0450 -0.1917
 1056PEP     CB38521  14.837  14.143   6.205 -0.1173  0.0670  0.1826
 1056PEP     CB38522  14.355  14.167   6.240  0.0295  0.1447 -0.2872
 1056PEP     CB38523  14.027  14.486   6.091  0.0739  0.0344 -0.0222
 1056PEP     CB38524  13.697  14.822   6.106 -0.1604  0.0408  0.0887
 1056PEP     CB38525  13.598  15.173   5.848  0.1307 -0.2723 -0.0260
 1056PEP     CB38526  13.608  15.353   5.356  0.2429  0.0823 -0.1317
 1056PEP     CB38527  13.715  15.601   5.028 -0.2191 -0.0645 -0.1982
 1056PEP     CB38528  13.741  16.003   4.726  0.0358  0.2644 -0.3593
 1056PEP     CB38529  14.128  16.298   4.464 -0.2905 -0.0795 -0.1905
 1056PEP     CB38530  14.624  16.284   4.412 -0.0235  0.1743 -0.2023
 1056PEP     CB38531  14.986  16.360   4.390 -0.0037  0.2010 -0.1792
 1056PEP     CB38532  15.299  16.154   4.233  0.2279 -0.0168  0.0099
 1056PEP     CB38533  15.566  15.770   4.508 -0.2138 -0.0299  0.2304
 1056PEP     CB38534  15.786  15.672   4.877  0.1874  0.0464 -0.3081
 1056PEP     CB38535  15.803  15.728   5.315 -0.1182  0.0731  0.0046
 1056PEP     CB38536  15.722  15.526   5.759 -0.4510  0.4383 -0.0807
 1056PEP     CB38537  15.952  15.342   6.126 -0.3361 -0.0375 -0.1679
 1056PEP     CB38538  16.124  15.183   6.520  0.2653  0.0230  0.0126
 1056PEP     CB38539  16.404  15.268   6.891  0.1105 -0.0544 -0.1196
 1056PEP     CB38540  16.431  15.679   7.048  0.3681 -0.1625 -0.0650
 1056PEP     CB38541  16.629  16.033   6.978 -0.2586 -0.2256 -0.2094
 1056PEP     CB38542  16.705  16.201   6.639 -0.3237  0.1145 -0.0007
 1056PEP     CB38543  16.896  16.442   6.211  0.0094  0.4971  0.0317
 1056PEP     CB38544  17.222  16.673   5.991 -0.0837  0.0476  0.0671
 1056PEP     CB38545  17.502  16.791   5.649  0.3801 -0.4052 -0.0383
 1056PEP     CB38546  17.865  16.516   5.527 -0.1034 -0.0456 -0.0939
 1056PEP     CB38547  17.932  16.136   5.699 -0.0683  0.0685 -0.4464
 1056PEP     CB38548  18.210  15.911   5.901 -0.3583 -0.2669 -0.1044
 1056PEP     CB38549  18.445  15.709   6.233 -0.0823  0.0796  0.0159
 1056PEP     CB38550  18.539  15.663   6.685 -0.1512 -0.4577  0.1812
 1056PEP     CB38551  18.796  15.566   6.988 -0.3321  0.1546  0.0384
 1056PEP     CB38552  19.189  15.357   7.067 -0.3137  0.0454 -0.3408
 1056PEP     CB38553  19.331  14.912   7.250 -0.4781  0.0545  0.0245
 1056PEP     CB38554  19.258  14.651   7.605 -0.0171 -0.2398  0.0678
 1056PEP     CB38555  19.351  14.766   8.004  0.1083 -0.0818  0.0033
 1056PEP     CB38556  19.726  15.021   8.153  0.2402 -0.1999  0.0505
 1056PEP     CB38557  19.953  15.383   8.381  0.3506  0.1014 -0.1753
 1056PEP     CB38558  20.297  15.659   8.410 -0.0327 -0.0220 -0.0617
 1056PEP     CB38559  20.547  16.040   8.330  0.2958  0.0846  0.0487
 1056PEP     CB38560  20.685  16.274   7.885  0.0498 -0.0514  0.2034
 1057PEP     CB38561   0.194   9.837  21.732  0.3817 -0.3611 -0.3336
 1057PEP     CB38562   0.029   9.446  21.619 -0.0041  0.0956  0.1033
 1057PEP     CB38563  -0.034   9.100  21.336  0.1129 -0.0416  0.0586
 1057PEP     CB38564   0.013   8.939  20.937 -0.2480 -0.1802 -0.1227
 1057PEP     CB38565  -0.013   8.933  20.453  0.0931 -0.3244 -0.4535
 1057PEP     CB38566   0.084   9.020  20.046 -0.0477  0.1168 -0.1562
 1057PEP     CB38567   0.134   8.877  19.737 -0.6047 -0.1442 -0.0781
 1057PEP     CB38568   0.089   8.576  19.505  0.0893 -0.0188 -0.0321
 1057PEP     CB38569   0.179   8.177  19.250  0.2103  0.0685 -0.0329
 1057PEP     CB38570   0.295   7.718  19.451 -0.2177  0.6314 -0.0724
 1057PEP     CB38571   0.356   7.712  19.986 -0.1734  0.2826  0.0326
 1057PEP     CB38572   0.014   7.796  20.372  0.2662  0.0302  0.3316
 1057PEP     CB38573  -0.300   8.093  20.664  0.1415  0.3482  0.2272
 1057PEP     CB38574  -0.405   8.017  21.073 -0.0692  0.2809  0.2007
 1057PEP     CB38575  -0.715   7.767  21.270  0.0097  0.3242 -0.1020
 1057PEP     CB38576  -1.113   7.572  21.509 -0.2003  0.1218  0.4173
 1057PEP     CB38577  -1.447   7.343  21.824  0.0804  0.3187 -0.1095
 1057PEP     CB38578  -1.311   7.190  22.240 -0.3787  0.2405  0.4017
 1057PEP     CB38579  -1.060   7.449  22.506 -0.0037 -0.1255  0.2324
 1057PEP     CB38580  -0.901   7.851  22.472 -0.5521 -0.3081  0.0640
 1057PEP     CB38581  -0.954   8.290  22.247  0.3385 -0.1180  0.2003
 1057PEP     CB38582  -1.318   8.357  21.913  0.1089 -0.3048 -0.1844
 1057PEP     CB38583  -1.349   8.487  21.511 -0.0702 -0.2809  0.2263
 1057PEP     CB38584  -1.296   8.443  21.041 -0.0744 -0.0937  0.1430
 1057PEP     CB38585  -1.460   8.189  20.705  0.0276  0.0111  0.2753
 1057PEP     CB38586  -1.347   8.039  20.335 -0.3341  0.4672 -0.3180
 1057PEP     CB38587  -1.035   8.038  20.000 -0.0966  0.1120  0.0196
 1057PEP     CB38588  -0.828   8.335  19.764  0.1183  0.0366 -0.4770
 1057PEP     CB38589  -0.901   8.799  19.836 -0.3842 -0.2346  0.1781
 1057PEP     CB38590  -1.143   9.166  19.905  0.0445 -0.1975 -0.2429
 1057PEP     CB38591  -1.646   9.255  20.058  0.0551 -0.1925 -0.3108
 1057PEP     CB38592  -1.860   8.828  20.093  0.0243  0.1614  0.3127
 1057PEP     CB38593  -1.664   8.416  20.114 -0.3055  0.0518  0.1037
 1057PEP     CB38594  -1.374   8.374  19.802  0.1223 -0.2953  0.0229
 1057PEP     CB38595  -1.604   8.247  19.428  0.3473 -0.1004  0.0908
 1057PEP     CB38596  -1.834   7.800  19.451  0.1910  0.0749  0.3069
 1057PEP     CB38597  -2.134   7.431  19.229 -0.4406 -0.2403  0.3641
 1057PEP     CB38598  -2.397   7.270  19.017 -0.0620  0.1182  0.3352
 1057PEP     CB38599  -2.870   7.271  18.806  0.0710 -0.0153  0.3308
 1057PEP     CB38600  -3.111   7.171  18.418  0.2667 -0.1291  0.4438
 1058PEP     CB38601   7.726  21.282  19.062  0.1967 -0.4724  0.5275
 1058PEP     CB38602   7.368  21.405  19.135  0.4502  0.3485 -0.2277
 1058PEP     CB38603   6.925  21.522  19.122 -0.4610 -0.1043 -0.2948
 1058PEP     CB38604   6.610  21.540  19.505 -0.1324 -0.0643 -0.0190
 1058PEP     CB38605   6.554  21.437  19.930 -0.2388  0.1369  0.1594
 1058PEP     CB38606   6.447  21.528  20.410  0.5086 -0.1625  0.0324
 1058PEP     CB38607   6.365  21.211  20.808 -0.3179  0.2947 -0.2135
 1058PEP     CB38608   6.426  20.758  20.865  0.0119  0.2628  0.2496
 1058PEP     CB38609   6.773  20.473  21.013  0.2892 -0.1542  0.2021
 1058PEP     CB38610   7.234  20.338  20.868  0.0905 -0.3082 -0.0257
 1058PEP     CB38611   7.602  20.326  20.669 -0.1858 -0.1095 -0.0266
 1058PEP     CB38612   8.038  20.327  20.648 -0.1330 -0.1020 -0.3610
 1058PEP     CB38613   8.374  20.507  20.846 -0.0769  0.0763  0.0004
 1058PEP     CB38614   8.758  20.611  20.984 -0.0339  0.2755  0.1197
 1058PEP     CB38615   9.150  20.770  21.066 -0.0960  0.0143  0.1720
 1058PEP     CB38616   9.549  20.609  21.204 -0.0791  0.0462  0.0856
 1058PEP     CB38617   9.799  20.288  20.887  0.1323  0.2063 -0.1661
 1058PEP     CB38618   9.648  20.267  20.472 -0.0292  0.0523  0.3970
 1058PEP     CB38619   9.357  20.028  20.213  0.1945  0.0689  0.0696
 1058PEP     CB38620   8.929  19.915  20.014 -0.0397 -0.1137 -0.1700
 1058PEP     CB38621   8.664  19.566  20.053 -0.0081  0.3270  0.3599
 1058PEP     CB38622   8.235  19.570  20.152 -0.0741  0.2763 -0.2019
 1058PEP     CB38623   7.786  19.791  20.253  0.1381  0.1002 -0.2664
 1058PEP     CB38624   7.515  19.991  20.334  0.0772  0.2059  0.1287
 1058PEP     CB38625   7.034  19.935  20.456  0.3509  0.0863  0.1130
 1058PEP     CB38626   6.827  19.916  20.835 -0.2958 -0.1118 -0.0053
 1058PEP     CB38627   6.573  19.933  21.186  0.5894  0.1466 -0.0643
 1058PEP     CB38628   6.321  19.870  21.427 -0.0423  0.1763  0.2688
 1058PEP     CB38629   6.046  19.604  21.553  0.0941 -0.1610 -0.0922
 1058PEP     CB38630   5.637  19.497  21.676  0.1167  0.1037  0.0254
 1058PEP     CB38631   5.291  19.313  21.614 -0.2263  0.3610 -0.1614
 1058PEP     CB38632   4.887  19.159  21.719  0.0931 -0.0561  0.1475
 1058PEP     CB38633   4.490  18.952  21.764 -0.4041  0.1431 -0.1779
 1058PEP     CB38634   4.244  18.689  22.136 -0.0638 -0.4873 -0.0505
 1058PEP     CB38635   4.004  18.649  22.525 -0.2315 -0.3799 -0.1144
 1058PEP     CB38636   3.649  18.668  22.724 -0.0022 -0.1630 -0.0716
 1058PEP     CB38637   3.233  18.579  23.079  0.4312 -0.1317  0.0934
 1058PEP     CB38638   3.092  18.294  23.372 -0.2103  0.0196 -0.0466
 1058PEP     CB38639   3.309  18.124  23.696  0.1047 -0.0894  0.2360
 1058PEP     CB38640   3.364  17.920  24.209  0.1674 -0.0606 -0.3850
 1059PEP     CB38641  21.735  11.841   2.247 -0.0404 -0.4474  0.0706
 1059PEP     CB38642  21.693  11.580   2.539  0.1030  0.2642  0.0324
 1059PEP     CB38643  21.615  11.361   2.892  0.0171 -0.1995  0.0226
 1059PEP     CB38644  21.336  11.032   3.008 -0.3992 -0.1715 -0.4355
 1059PEP     CB38645  20.979  11.068   2.884 -0.2549 -0.0081 -0.3095
 1059PEP     CB38646  20.781  11.032   2.563 -0.2633  0.0161 -0.1130
 1059PEP     CB38647  20.660  11.449   2.266 -0.3320 -0.0528 -0.0285
 1059PEP     CB38648  20.922  11.841   2.172 -0.2273  0.2095  0.0145
 1059PEP     CB38649  21.114  12.253   1.928  0.2057  0.4039  0.2348
 1059PEP     CB38650  20.929  12.630   1.789 -0.1253  0.2881 -0.0104
 1059PEP     CB38651  20.659  12.926   1.860  0.3529  0.2275  0.0765
 1059PEP     CB38652  20.322  13.051   2.071 -0.0535 -0.0902  0.3163
 1059PEP     CB38653  20.029  13.357   2.100  0.2936 -0.1561 -0.6684
 1059PEP     CB38654  19.552  13.404   1.949  0.0656 -0.2210  0.1975
 1059PEP     CB38655  19.287  13.456   1.547 -0.1509 -0.0257  0.0482
 1059PEP     CB38656  19.195  13.182   1.283 -0.4075  0.1161 -0.2343
 1059PEP     CB38657  19.307  12.733   1.374  0.1335  0.1054 -0.1186
 1059PEP     CB38658  19.649  12.530   1.628  0.3175 -0.1495 -0.0714
 1059PEP     CB38659  20.069  12.689   1.853  0.0003  0.4354 -0.1091
 1059PEP     CB38660  20.385  12.497   2.224  0.3472 -0.0258  0.0426
 1059PEP     CB38661  20.732  12.468   2.384  0.1062 -0.3900  0.0694
 1059PEP     CB38662  21.133  12.592   2.496 -0.0077 -0.0258  0.1951
 1059PEP     CB38663  21.396  12.413   2.683 -0.4139  0.2931 -0.1135
 1059PEP     CB38664  21.516  12.100   3.099  0.0128 -0.0474  0.3046
 1059PEP     CB38665  21.894  12.201   3.428 -0.1713 -0.1152 -0.3810
 1059PEP     CB38666  22.112  12.549   3.391  0.0054 -0.2887  0.0602
 1059PEP     CB38667  22.159  12.944   2.962 -0.2549 -0.1476  0.0186
 1059PEP     CB38668  21.981  13.005   2.471  0.0522  0.1130  0.1112
 1059PEP     CB38669  21.975  12.897   2.011 -0.0440 -0.0101  0.1249
 1059PEP     CB38670  21.878  12.753   1.637 -0.2556 -0.2500 -0.4929
 1059PEP     CB38671  21.997  12.622   1.175 -0.4061  0.1501  0.3502
 1059PEP     CB38672  22.357  12.704   0.864  0.0189 -0.0335  0.1529
 1059PEP     CB38673  22.716  12.559   0.657 -0.1326  0.0519  0.0531
 1059PEP     CB38674  22.930  12.264   0.618  0.1451 -0.2854  0.0510
 1059PEP     CB38675  22.990  11.894   0.321  0.3350 -0.1048  0.4694
 1059PEP     CB38676  22.875  11.749  -0.038 -0.0188 -0.0830 -0.1444
 1059PEP     CB38677  22.700  11.437  -0.262 -0.1044  0.1544 -0.0001
 1059PEP     CB38678  22.609  11.221  -0.664  0.0654 -0.0533 -0.1543
 1059PEP     CB38679  22.736  10.860  -0.842 -0.3561 -0.1854  0.0624
 1059PEP     CB38680  22.982  10.610  -1.209 -0.2073  0.1230  0.0432
 1060PEP     CB38681  19.358  19.917  20.912 -0.0463 -0.2186 -0.2826
 1060PEP     CB38682  19.692  19.719  21.120  0.0802 -0.0034  0.0329
 1060PEP     CB38683  19.965  19.626  21.547  0.0596  0.1745  0.0377
 1060PEP     CB38684  20.282  19.409  21.845  0.0218  0.2127  0.1072
 1060PEP     CB38685  20.575  19.350  22.248 -0.1745  0.0761 -0.3385
 1060PEP     CB38686  20.733  19.275  22.703 -0.2323  0.2965  0.3388
 1060PEP     CB38687  20.606  19.174  23.095 -0.2021 -0.1861  0.3860
 1060PEP     CB38688  20.731  19.109  23.504 -0.2753 -0.3835  0.0429
 1060PEP     CB38689  20.846  19.472  23.774 -0.1403  0.0089  0.2126
 1060PEP     CB38690  21.195  19.470  23.943 -0.1456 -0.1549 -0.2656
 1060PEP     CB38691  21.630  19.707  23.848 -0.1921 -0.4193  0.2476
 1060PEP     CB38692  21.895  20.009  23.932  0.2913 -0.2194  0.1112
 1060PEP     CB38693  22.127  20.035  24.267 -0.2944 -0.1262  0.1986
 1060PEP     CB38694  22.080  19.859  24.587 -0.0403  0.2295 -0.0793
 1060PEP     CB38695  22.115  19.514  24.799  0.1280 -0.1045  0.2920
 1060PEP     CB38696  22.049  19.136  24.547 -0.0220  0.0482  0.1976
 1060PEP     CB38697  21.849  19.042  24.224 -0.0023 -0.0199 -0.3200
 1060PEP     CB38698  21.577  19.175  23.835 -0.2454  0.2630  0.1887
 1060PEP     CB38699  21.274  19.143  23.417 -0.0339  0.0110  0.1363
 1060PEP     CB38700  21.049  18.925  23.091 -0.0359 -0.2281  0.1269
 1060PEP     CB38701  20.779  18.785  22.775  0.0908 -0.2674  0.3346
 1060PEP     CB38702  20.369  18.927  22.603 -0.2522 -0.0086 -0.2281
 1060PEP     CB38703  20.041  19.017  22.356  0.3864  0.1447  0.1338
 1060PEP     CB38704  19.943  19.086  21.933  0.1347  0.2837 -0.2568
 1060PEP     CB38705  20.060  19.144  21.500 -0.0090 -0.1095  0.0656
 1060PEP     CB38706  20.291  19.213  21.198  0.0446 -0.1224 -0.5196
 1060PEP     CB38707  20.699  19.074  21.078  0.1693 -0.2456 -0.1531
 1060PEP     CB38708  21.197  19.291  21.176  0.1767  0.1151 -0.1476
 1060PEP     CB38709  21.443  19.739  21.133  0.3055 -0.2987 -0.2559
 1060PEP     CB38710  21.382  20.170  21.174  0.3611  0.2642  0.0359
 1060PEP     CB38711  20.948  20.252  21.429 -0.2050  0.2229 -0.2037
 1060PEP     CB38712  20.639  19.872  21.409 -0.3147 -0.3061  0.1852
 1060PEP     CB38713  20.677  19.457  21.508 -0.2232 -0.3567 -0.1625
 1060PEP     CB38714  20.564  19.020  21.623  0.0234  0.0676  0.0326
 1060PEP     CB38715  20.308  18.690  21.380 -0.1358 -0.0114  0.1796
 1060PEP     CB38716  20.141  18.775  21.049 -0.2940 -0.1900 -0.3363
 1060PEP     CB38717  20.338  18.865  20.722 -0.0592  0.1992  0.4052
 1060PEP     CB38718  20.498  19.158  20.492  0.1019 -0.1049  0.3015
 1060PEP     CB38719  20.827  19.313  20.114 -0.0909 -0.0431 -0.0990
 1060PEP     CB38720  21.006  19.683  19.973  0.1612 -0.0962 -0.1523
 1061PEP     CB38721   7.820  19.914  20.790 -0.2349  0.3381 -0.0079
 1061PEP     CB38722   7.457  19.651  20.690 -0.1920  0.0882 -0.3639
 1061PEP     CB38723   7.157  19.393  20.844  0.0270 -0.0464 -0.0176
 1061PEP     CB38724   6.955  19.021  20.928  0.1684  0.0360  0.3287
 1061PEP     CB38725   7.062  18.742  21.225  0.3567  0.2751  0.2605
 1061PEP     CB38726   7.407  18.574  21.632  0.0821 -0.1751  0.1188
 1061PEP     CB38727   7.725  18.911  21.835  0.1780 -0.0101  0.4487
 1061PEP     CB38728   7.867  19.284  21.719  0.2681  0.2279 -0.2242
 1061PEP     CB38729   7.718  19.662  21.767  0.1017  0.0635 -0.0164
 1061PEP     CB38730   7.363  20.000  21.800 -0.2543 -0.0470 -0.5122
 1061PEP     CB38731   7.293  20.440  21.933  0.1163 -0.2224  0.1391
 1061PEP     CB38732   7.472  20.859  21.700  0.4598 -0.0868 -0.1078
 1061PEP     CB38733   7.608  21.139  21.285  0.1632 -0.3559  0.1252
 1061PEP     CB38734   7.576  21.599  21.149 -0.1206 -0.0927  0.1822
 1061PEP     CB38735   7.596  21.974  20.934 -0.1184  0.0558  0.2297
 1061PEP     CB38736   7.557  22.386  20.764 -0.1969 -0.1848  0.0665
 1061PEP     CB38737   7.559  22.842  20.521  0.6062 -0.0667  0.2074
 1061PEP     CB38738   7.443  23.223  20.280  0.1736 -0.0919 -0.1607
 1061PEP     CB38739   7.174  23.500  19.979 -0.0978  0.3405  0.4259
 1061PEP     CB38740   6.899  23.643  19.710 -0.0668  0.0479 -0.1319
 1061PEP     CB38741   6.776  23.980  19.449 -0.3241 -0.1691  0.0530
 1061PEP     CB38742   6.678  24.288  19.144 -0.4609 -0.2208  0.0427
 1061PEP     CB38743   6.574  24.625  18.730 -0.0741 -0.0813  0.1173
 1061PEP     CB38744   6.494  25.016  18.499 -0.3833  0.1677  0.2018
 1061PEP     CB38745   6.206  25.289  18.306 -0.0490 -0.1493  0.3722
 1061PEP     CB38746   5.860  25.352  18.139  0.2169  0.0193  0.0875
 1061PEP     CB38747   5.784  25.691  17.862  0.1089  0.1069 -0.3211
 1061PEP     CB38748   6.175  25.899  17.644 -0.4065  0.1812  0.0447
 1061PEP     CB38749   6.692  25.843  17.537 -0.0933 -0.1286  0.4229
 1061PEP     CB38750   6.870  25.523  17.342  0.0400  0.2490 -0.4425
 1061PEP     CB38751   6.735  25.072  17.196  0.0941  0.2001 -0.0359
 1061PEP     CB38752   6.404  24.914  16.835 -0.0418 -0.2743 -0.0955
 1061PEP     CB38753   6.167  25.221  16.609  0.2898 -0.2012  0.0132
 1061PEP     CB38754   6.303  25.618  16.543 -0.1593 -0.0070 -0.1357
 1061PEP     CB38755   6.516  25.738  16.135  0.0381 -0.0146  0.2634
 1061PEP     CB38756   6.619  25.392  15.997 -0.2337 -0.2351 -0.0063
 1061PEP     CB38757   6.839  25.204  16.336  0.1555 -0.0880  0.1883
 1061PEP     CB38758   6.861  25.337  16.761 -0.2728  0.0294  0.0682
 1061PEP     CB38759   6.589  25.589  16.971 -0.0438  0.1991 -0.3260
 1061PEP     CB38760   6.198  25.625  17.142 -0.3155 -0.0521  0.1204
 1062PEP     CB38761  21.498  16.046  16.973  0.1298 -0.2652  0.0541
 1062PEP     CB38762  21.649  16.183  17.352 -0.0580 -0.1926 -0.0438
 1062PEP     CB38763  21.704  16.341  17.792  0.4585  0.0970 -0.0723
 1062PEP     CB38764  21.628  16.394  18.205 -0.0346 -0.0204  0.0637
 1062PEP     CB38765  21.534  16.195  18.581 -0.2614 -0.0222  0.2668
 1062PEP     CB38766  21.248  15.860  18.765 -0.0225  0.3685 -0.0636
 1062PEP     CB38767  20.905  15.582  18.627 -0.3199 -0.3170  0.0395
 1062PEP     CB38768  20.433  15.603  18.580 -0.0374  0.0994 -0.0087
 1062PEP     CB38769  19.983  15.751  18.725  0.3096  0.0969  0.0043
 1062PEP     CB38770  19.872  15.879  19.109  0.1649  0.4753  0.1349
 1062PEP     CB38771  20.102  15.741  19.344 -0.0186  0.2755  0.0365
 1062PEP     CB38772  20.304  15.355  19.178 -0.3733  0.4152  0.3889
 1062PEP     CB38773  20.376  14.888  19.078  0.2375 -0.2260 -0.1188
 1062PEP     CB38774  20.075  14.659  18.751 -0.1656 -0.0649 -0.1776
 1062PEP     CB38775  19.814  14.989  18.361  0.0152  0.2641  0.2408
 1062PEP     CB38776  19.722  15.444  18.429 -0.0262  0.2584 -0.1594
 1062PEP     CB38777  19.582  15.503  18.839 -0.1308 -0.0926 -0.1553
 1062PEP     CB38778  19.147  15.405  18.905  0.2577 -0.3463  0.1319
 1062PEP     CB38779  18.848  15.263  18.613 -0.1748 -0.1411 -0.3422
 1062PEP     CB38780  18.400  15.251  18.513 -0.2704 -0.2614  0.3040
 1062PEP     CB38781  17.909  15.302  18.429  0.0327  0.0305 -0.2742
 1062PEP     CB38782  17.669  15.018  18.448  0.5296 -0.2516 -0.2199
 1062PEP     CB38783  17.614  14.640  18.673 -0.2574 -0.0546 -0.0240
 1062PEP     CB38784  17.373  14.300  18.867 -0.0357  0.2454 -0.1977
 1062PEP     CB38785  16.951  14.258  18.959  0.2134  0.1011  0.2999
 1062PEP     CB38786  16.655  13.940  18.756  0.1114  0.0103  0.2463
 1062PEP     CB38787  16.799  13.661  18.355 -0.3373 -0.5713  0.3153
 1062PEP     CB38788  16.705  13.494  17.983 -0.3561 -0.2837 -0.1242
 1062PEP     CB38789  16.945  13.365  17.443 -0.1078  0.0978 -0.0390
 1062PEP     CB38790  17.095  13.489  17.031 -0.0259 -0.2256  0.3695
 1062PEP     CB38791  17.070  13.768  16.831  0.5300  0.0257 -0.3880
 1062PEP     CB38792  16.956  14.098  16.719  0.3277 -0.0836  0.1917
 1062PEP     CB38793  16.796  14.622  16.736 -0.3335 -0.3472  0.4067
 1062PEP     CB38794  16.711  14.875  17.051  0.1341 -0.2528  0.2465
 1062PEP     CB38795  16.428  14.747  17.267  0.0670  0.0560 -0.0494
 1062PEP     CB38796  16.391  14.358  17.189 -0.0769 -0.4118 -0.3122
 1062PEP     CB38797  16.609  13.980  16.970 -0.0932  0.0835  0.0305
 1062PEP     CB38798  16.669  13.673  17.148 -0.1481 -0.1260  0.0696
 1062PEP     CB38799  16.511  13.251  17.254 -0.3007  0.1775  0.0970
 1062PEP     CB38800  16.252  12.889  17.249  0.0410  0.2551 -0.0041
 1063PEP     CB38801  19.382   1.398   8.460 -0.0817 -0.1383  0.1257
 1063PEP     CB38802  19.455   1.087   8.179  0.2197 -0.0068 -0.4200
 1063PEP     CB38803  19.555   0.623   7.936  0.0627  0.1300  0.1030
 1063PEP     CB38804  19.665   0.245   7.971  0.0427  0.0206  0.3113
 1063PEP     CB38805  19.894  -0.240   7.886 -0.2441  0.1365 -0.1113
 1063PEP     CB38806  19.784  -0.694   7.856 -0.0334  0.2200  0.5498
 1063PEP     CB38807  19.380  -0.888   7.958 -0.0716 -0.1147 -0.1118
 1063PEP     CB38808  18.938  -0.974   8.016 -0.0961  0.4495 -0.2247
 1063PEP     CB38809  18.457  -0.915   8.083 -0.1943 -0.4265 -0.3843
 1063PEP     CB38810  18.003  -0.841   7.959 -0.0770 -0.0506  0.3366
 1063PEP     CB38811  17.605  -0.950   7.821 -0.0504  0.2024  0.0084
 1063PEP     CB38812  17.379  -1.233   7.623 -0.0343  0.2147  0.0467
 1063PEP     CB38813  17.259  -1.612   7.720 -0.1331  0.4168 -0.0520
 1063PEP     CB38814  17.090  -2.003   7.763 -0.2525  0.3897 -0.3392
 1063PEP     CB38815  16.972  -2.294   7.393 -0.1642  0.1920  0.1601
 1063PEP     CB38816  17.044  -2.559   6.991 -0.0679 -0.2876 -0.3988
 1063PEP     CB38817  17.346  -2.896   6.807  0.0482 -0.1071  0.0051
 1063PEP     CB38818  17.810  -2.949   6.915  0.1169 -0.0669  0.0001
 1063PEP     CB38819  18.044  -2.679   7.344 -0.0933  0.2171  0.0564
 1063PEP     CB38820  17.832  -2.553   7.684 -0.2314 -0.1776  0.0856
 1063PEP     CB38821  17.697  -2.790   8.067  0.0749  0.0868  0.0103
 1063PEP     CB38822  17.816  -3.188   8.219 -0.1378  0.1718 -0.2929
 1063PEP     CB38823  17.711  -3.576   8.370 -0.0285 -0.3217 -0.3040
 1063PEP     CB38824  17.668  -3.921   8.675  0.2184  0.1770 -0.1968
 1063PEP     CB38825  17.532  -4.363   8.768 -0.2415  0.1381 -0.1682
 1063PEP     CB38826  17.244  -4.738   8.591  0.1822  0.0077  0.3006
 1063PEP     CB38827  16.768  -4.896   8.591 -0.3029 -0.4218 -0.0685
 1063PEP     CB38828  16.473  -5.177   8.429  0.2034 -0.2474 -0.1335
 1063PEP     CB38829  16.067  -5.456   8.255  0.1886 -0.3970 -0.0233
 1063PEP     CB38830  15.740  -5.682   8.021 -0.1691 -0.1062  0.0094
 1063PEP     CB38831  15.338  -5.760   8.154 -0.2671 -0.1858  0.2239
 1063PEP     CB38832  14.923  -5.630   8.135 -0.0589  0.0238  0.1246
 1063PEP     CB38833  14.737  -5.313   7.767 -0.3110 -0.3365 -0.2414
 1063PEP     CB38834  14.719  -4.859   7.679 -0.2845 -0.4517 -0.0556
 1063PEP     CB38835  14.608  -4.439   7.742  0.0665  0.1852  0.0496
 1063PEP     CB38836  14.516  -4.293   8.102 -0.1047  0.3618  0.1311
 1063PEP     CB38837  14.242  -4.092   8.269  0.1866  0.3599 -0.0713
 1063PEP     CB38838  13.902  -3.896   8.323 -0.0451 -0.4799  0.1198
 1063PEP     CB38839  13.858  -3.457   8.548 -0.3015 -0.0567 -0.1040
 1063PEP     CB38840  13.843  -3.120   8.813  0.1033 -0.2339  0.1228
 1064PEP     CB38841   2.242  18.961   9.021 -0.2813 -0.1447 -0.3520
 1064PEP     CB38842   2.505  19.094   9.233  0.1748 -0.0743  0.2123
 1064PEP     CB38843   2.754  19.283   9.579 -0.0821 -0.1180  0.2449
 1064PEP     CB38844   2.828  19.342  10.007 -0.0052 -0.1370 -0.0880
 1064PEP     CB38845   2.969  19.243  10.462  0.2419  0.1635 -0.0854
 1064PEP     CB38846   3.086  19.331  10.806 -0.0821 -0.1543 -0.2235
 1064PEP     CB38847   2.943  19.442  11.243 -0.2826  0.1651 -0.4078
 1064PEP     CB38848   2.869  19.717  11.644  0.2155 -0.0572  0.1029
 1064PEP     CB38849   2.986  20.147  11.671 -0.1097 -0.1225  0.1747
 1064PEP     CB38850   3.026  20.493  11.438  0.4017  0.2439 -0.2933
 1064PEP     CB38851   2.907  20.852  11.084 -0.1573 -0.1289 -0.1840
 1064PEP     CB38852   2.998  20.915  10.678 -0.1950  0.0482  0.1636
 1064PEP     CB38853   3.260  20.950  10.158  0.2679  0.0822 -0.0153
 1064PEP     CB38854   3.252  20.753   9.745  0.0138 -0.1077  0.1285
 1064PEP     CB38855   3.304  20.549   9.294 -0.3815  0.0977 -0.0907
 1064PEP     CB38856   3.309  20.524   8.919 -0.2901 -0.1085 -0.1051
 1064PEP     CB38857   3.177  20.515   8.457 -0.0787  0.1227 -0.3379
 1064PEP     CB38858   2.965  20.710   8.179 -0.1874 -0.2742 -0.0772
 1064PEP     CB38859   2.733  21.202   8.275 -0.0960 -0.1527  0.0766
 1064PEP     CB38860   2.894  21.565   8.109 -0.1380  0.0570 -0.1231
 1064PEP     CB38861   2.764  21.981   7.849 -0.2006 -0.3000 -0.1104
 1064PEP     CB38862   2.493  22.329   7.574  0.0539  0.1520  0.0433
 1064PEP     CB38863   2.339  22.467   7.207 -0.0220 -0.1314  0.0581
 1064PEP     CB38864   2.465  22.464   6.705 -0.4443 -0.6343  0.1652
 1064PEP     CB38865   2.593  22.267   6.404 -0.2661  0.0435 -0.0606
 1064PEP     CB38866   2.418  22.190   6.021  0.0179  0.1945  0.5005
 1064PEP     CB38867   2.007  22.373   5.851 -0.2289  0.1088  0.1063
 1064PEP     CB38868   1.729  22.692   5.754  0.3909 -0.2590 -0.0714
 1064PEP     CB38869   1.842  23.129   5.499  0.0144  0.2640  0.1862
 1064PEP     CB38870   1.982  23.504   5.244 -0.0782 -0.1446 -0.1450
 1064PEP     CB38871   2.178  23.938   5.229  0.2713  0.1992  0.1090
 1064PEP     CB38872   2.432  24.320   5.090  0.0347 -0.0163  0.1495
 1064PEP     CB38873   2.743  24.571   5.193 -0.3808 -0.1386 -0.2124
 1064PEP     CB38874   3.183  24.554   5.144 -0.1505  0.1083  0.3510
 1064PEP     CB38875   3.530  24.319   5.158 -0.1828 -0.0717  0.0078
 1064PEP     CB38876   3.697  24.114   4.840  0.1036 -0.1851  0.1568
 1064PEP     CB38877   3.627  23.709   4.572  0.5263 -0.0591  0.1302
 1064PEP     CB38878   3.352  23.424   4.338  0.2308 -0.2549  0.2012
 1064PEP     CB38879   2.920  23.528   4.071 -0.3079 -0.1009  0.0163
 1064PEP     CB38880   2.572  23.587   3.852  0.0547 -0.2536  0.2074
 1065PEP     CB38881   5.532  19.746   4.977 -0.0549 -0.1357  0.0924
 1065PEP     CB38882   5.342  19.417   4.895  0.1123  0.1489 -0.1262
 1065PEP     CB38883   5.085  19.415   4.517  0.1360  0.3569 -0.0256
 1065PEP     CB38884   4.942  19.600   4.155  0.0761  0.2266 -0.2915
 1065PEP     CB38885   4.566  19.777   3.965  0.2536  0.1309  0.2280
 1065PEP     CB38886   4.278  19.794   3.758  0.5453 -0.1475  0.6670
 1065PEP     CB38887   3.960  19.935   3.530  0.1684 -0.3403  0.0938
 1065PEP     CB38888   3.870  19.826   3.143  0.2957  0.1083  0.0424
 1065PEP     CB38889   4.109  19.644   2.805  0.0149 -0.0107  0.1507
 1065PEP     CB38890   4.322  19.302   2.985 -0.0918  0.0366 -0.3116
 1065PEP     CB38891   4.326  19.309   3.470  0.1481  0.3719  0.2718
 1065PEP     CB38892   4.275  19.313   3.875  0.2302 -0.2570 -0.2592
 1065PEP     CB38893   4.046  19.276   4.255  0.0045  0.2607  0.2129
 1065PEP     CB38894   3.744  19.026   4.509  0.1043 -0.0430 -0.1427
 1065PEP     CB38895   3.620  18.647   4.536  0.2292  0.2095  0.1176
 1065PEP     CB38896   3.391  18.286   4.498 -0.1502  0.0453  0.2044
 1065PEP     CB38897   3.500  17.856   4.640  0.1853 -0.3361  0.2752
 1065PEP     CB38898   3.692  17.442   4.652 -0.0650  0.2018  0.0422
 1065PEP     CB38899   3.923  17.098   4.572  0.2335 -0.0452  0.3601
 1065PEP     CB38900   4.118  16.811   4.363 -0.1015  0.0397 -0.1037
 1065PEP     CB38901   4.497  16.616   4.373 -0.1631 -0.2190 -0.0271
 1065PEP     CB38902   4.797  16.404   4.733  0.1025 -0.1472  0.0440
 1065PEP     CB38903   5.193  16.240   4.906  0.0415 -0.1273 -0.4784
 1065PEP     CB38904   5.607  16.496   4.870  0.0335 -0.4383  0.2761
 1065PEP     CB38905   5.730  16.911   4.717 -0.5706  0.0433 -0.4051
 1065PEP     CB38906   5.413  17.245   4.774 -0.0923 -0.3082  0.3360
 1065PEP     CB38907   4.969  17.341   4.865 -0.4338 -0.1147 -0.1874
 1065PEP     CB38908   4.599  17.070   5.152  0.0965  0.1794 -0.1600
 1065PEP     CB38909   4.608  16.621   5.222  0.0414  0.1250 -0.0566
 1065PEP     CB38910   5.059  16.470   5.344 -0.4893 -0.0992 -0.2583
 1065PEP     CB38911   5.361  16.741   5.584  0.2692 -0.0560  0.1403
 1065PEP     CB38912   5.403  17.027   5.872 -0.1368 -0.0408 -0.4016
 1065PEP     CB38913   5.760  17.228   6.090  0.1257  0.2413 -0.0228
 1065PEP     CB38914   5.829  17.152   6.537  0.3336  0.3419 -0.1383
 1065PEP     CB38915   5.762  16.812   6.924  0.0341 -0.0765 -0.4432
 1065PEP     CB38916   6.087  16.425   7.056 -0.0712  0.0829 -0.1374
 1065PEP     CB38917   6.447  16.226   6.924  0.0919 -0.1717  0.4527
 1065PEP     CB38918   6.541  16.419   6.448 -0.1022 -0.2445 -0.2129
 1065PEP     CB38919   6.749  16.799   6.305  0.2152  0.3809  0.1503
 1065PEP     CB38920   6.998  17.138   6.573 -0.1256  0.3914 -0.1322
 1066PEP     CB38921  18.850  16.279  17.956 -0.0868 -0.1800  0.1918
 1066PEP     CB38922  18.588  15.920  17.714 -0.0340  0.1499  0.1293
 1066PEP     CB38923  18.504  15.478  17.477 -0.1715  0.2608 -0.0042
 1066PEP     CB38924  18.659  15.072  17.357 -0.2832 -0.1610  0.3163
 1066PEP     CB38925  18.822  14.833  17.621 -0.1831 -0.0468 -0.4892
 1066PEP     CB38926  18.897  14.874  18.084 -0.2921  0.2013 -0.5109
 1066PEP     CB38927  18.658  14.807  18.424  0.0949  0.0999 -0.1159
 1066PEP     CB38928  18.251  14.707  18.392  0.1924  0.0933  0.1345
 1066PEP     CB38929  18.015  14.960  18.113  0.0665 -0.0764  0.1945
 1066PEP     CB38930  17.726  15.227  17.970 -0.1598  0.1576  0.5255
 1066PEP     CB38931  17.356  15.243  17.757  0.2342  0.3240 -0.0823
 1066PEP     CB38932  17.109  15.405  17.540  0.0306 -0.0510  0.0224
 1066PEP     CB38933  16.768  15.453  17.261  0.1911 -0.1765  0.2926
 1066PEP     CB38934  16.552  15.326  16.906  0.1551  0.1557 -0.0584
 1066PEP     CB38935  16.285  15.273  16.510 -0.3772 -0.2941 -0.0726
 1066PEP     CB38936  16.152  15.550  16.191 -0.2651 -0.2478 -0.0183
 1066PEP     CB38937  16.134  15.800  15.792  0.0643  0.0990 -0.2544
 1066PEP     CB38938  16.477  15.689  15.468  0.0456 -0.0265 -0.1355
 1066PEP     CB38939  16.629  15.281  15.371 -0.5957  0.0649 -0.1922
 1066PEP     CB38940  16.704  14.926  15.576 -0.2839 -0.0935 -0.1587
 1066PEP     CB38941  16.863  14.474  15.636 -0.2851  0.3233  0.1365
 1066PEP     CB38942  16.967  14.179  15.419 -0.1311  0.1269  0.2355
 1066PEP     CB38943  17.216  13.889  15.466  0.2904 -0.1898  0.1445
 1066PEP     CB38944  17.450  13.431  15.618 -0.2211  0.1605 -0.0333
 1066PEP     CB38945  17.342  13.094  15.898 -0.1618 -0.0372  0.1417
 1066PEP     CB38946  16.954  12.933  16.131  0.0848 -0.0360 -0.1462
 1066PEP     CB38947  16.797  12.593  16.384 -0.0945 -0.1542  0.2991
 1066PEP     CB38948  16.579  12.227  16.490 -0.1875 -0.0356 -0.0707
 1066PEP     CB38949  16.293  12.151  16.809  0.1667 -0.2358 -0.0317
 1066PEP     CB38950  15.868  12.181  16.929 -0.1965 -0.2309  0.2718
 1066PEP     CB38951  15.474  12.037  16.879  0.1263 -0.0401 -0.0487
 1066PEP     CB38952  15.128  11.930  16.673  0.3146 -0.0494  0.3201
 1066PEP     CB38953  14.885  11.532  16.456  0.0839 -0.3084  0.2398
 1066PEP     CB38954  14.642  11.251  16.229  0.0542  0.0154 -0.0055
 1066PEP     CB38955  14.542  10.842  16.035 -0.0445 -0.0105 -0.0526
 1066PEP     CB38956  14.519  10.445  15.797  0.2834 -0.0277  0.4638
 1066PEP     CB38957  14.321  10.105  15.498 -0.0367 -0.4035  0.1848
 1066PEP     CB38958  13.951   9.998  15.428 -0.4082  0.2417 -0.4716
 1066PEP     CB38959  13.459  10.068  15.561  0.1070 -0.3570 -0.0603
 1066PEP     CB38960  13.300  10.456  15.614  0.6343  0.2483 -0.0608
 1067PEP     CB38961   9.753   8.419  14.120 -0.2397  0.0557 -0.2112
 1067PEP     CB38962   9.851   8.315  14.462 -0.0592  0.0946  0.2983
 1067PEP     CB38963   9.803   8.456  14.930  0.3035  0.3058 -0.0714
 1067PEP     CB38964   9.447   8.747  15.186  0.0222 -0.0427 -0.0203
 1067PEP     CB38965   9.081   9.002  15.123 -0.2066  0.1581  0.2886
 1067PEP     CB38966   8.657   9.119  15.075 -0.1632  0.3979 -0.3700
 1067PEP     CB38967   8.207   9.010  14.914 -0.3682  0.1720 -0.1740
 1067PEP     CB38968   7.915   8.752  15.037  0.1833 -0.1415  0.3041
 1067PEP     CB38969   7.889   8.389  15.256  0.2799  0.0711  0.0432
 1067PEP     CB38970   7.634   8.105  15.202 -0.4476 -0.0928 -0.0164
 1067PEP     CB38971   7.471   7.923  14.831  0.0137 -0.1806 -0.1058
 1067PEP     CB38972   7.117   8.056  14.592  0.3767  0.2629  0.1023
 1067PEP     CB38973   6.721   8.195  14.767  0.0880  0.0332 -0.0325
 1067PEP     CB38974   6.701   8.220  15.314  0.3657  0.2002  0.1833
 1067PEP     CB38975   6.813   8.545  15.576  0.2093 -0.0457 -0.2569
 1067PEP     CB38976   6.794   8.966  15.720  0.0626 -0.0275 -0.1831
 1067PEP     CB38977   6.631   9.419  15.755  0.1220 -0.1533  0.0063
 1067PEP     CB38978   6.239   9.647  15.684 -0.1489 -0.1882 -0.2716
 1067PEP     CB38979   5.831   9.895  15.788  0.2481  0.4663 -0.0226
 1067PEP     CB38980   5.374   9.899  15.685 -0.1657  0.1136 -0.1991
 1067PEP     CB38981   4.919   9.906  15.726  0.2539  0.2235 -0.1368
 1067PEP     CB38982   4.607   9.709  15.917  0.2897 -0.1260 -0.2302
 1067PEP     CB38983   4.055   9.830  15.979  0.0847 -0.3219  0.0105
 1067PEP     CB38984   3.869  10.199  15.932 -0.3009  0.0659  0.0094
 1067PEP     CB38985   3.811  10.489  15.606  0.2701  0.0159  0.1011
 1067PEP     CB38986   3.535  10.651  15.216  0.1157  0.0581  0.2440
 1067PEP     CB38987   3.022  10.548  15.069 -0.0287  0.2359 -0.1410
 1067PEP     CB38988   2.836  10.273  14.787 -0.0705  0.4413 -0.0934
 1067PEP     CB38989   3.011   9.883  14.601  0.4587  0.1870 -0.0468
 1067PEP     CB38990   3.045   9.547  14.260 -0.2556 -0.3963  0.0757
 1067PEP     CB38991   3.090   9.401  13.794 -0.0433  0.3510  0.3774
 1067PEP     CB38992   3.453   9.321  13.549  0.0913 -0.2368 -0.2598
 1067PEP     CB38993   3.957   9.356  13.669  0.0209 -0.0356 -0.0141
 1067PEP     CB38994   4.244   9.577  13.869  0.4084 -0.0899 -0.0242
 1067PEP     CB38995   4.757   9.762  13.965 -0.0040  0.3052 -0.1916
 1067PEP     CB38996   5.277   9.779  14.067  0.1365  0.0106 -0.2047
 1067PEP     CB38997   5.547   9.959  14.283 -0.1843 -0.2293  0.3351
 1067PEP     CB38998   5.516  10.352  14.308  0.2609  0.1677  0.1997
 1067PEP     CB38999   5.125  10.596  14.214  0.0959  0.2009 -0.0884
 1067PEP     CB39000   4.978  10.984  13.985 -0.0483 -0.1868  0.0853
 1068PEP     CB39001  13.977  12.838   0.925  0.0967  0.0869  0.1606
 1068PEP     CB39002  14.281  13.032   0.719 -0.1127  0.1519  0.2917
 1068PEP     CB39003  14.546  13.332   0.609 -0.1480 -0.3944 -0.0848
 1068PEP     CB39004  14.489  13.779   0.777  0.0005 -0.0511 -0.2146
 1068PEP     CB39005  14.078  13.945   0.944 -0.1388 -0.2312 -0.0533
 1068PEP     CB39006  13.750  13.837   0.617 -0.1653  0.0878 -0.2124
 1068PEP     CB39007  13.500  13.666   0.496 -0.2235 -0.1280 -0.1073
 1068PEP     CB39008  13.063  13.585   0.624  0.0881 -0.2802 -0.1225
 1068PEP     CB39009  12.735  13.562   0.884 -0.0725 -0.3704 -0.4305
 1068PEP     CB39010  12.590  13.820   1.175  0.4064 -0.0412 -0.2851
 1068PEP     CB39011  12.733  13.877   1.632 -0.0319  0.5974  0.5453
 1068PEP     CB39012  13.143  13.799   1.837  0.1045  0.1911 -0.0687
 1068PEP     CB39013  13.405  13.592   1.552  0.1707 -0.0130 -0.1183
 1068PEP     CB39014  13.226  13.372   1.318 -0.2985 -0.1052 -0.3070
 1068PEP     CB39015  13.083  13.088   0.974  0.1693  0.0017  0.2025
 1068PEP     CB39016  12.925  13.044   0.575 -0.1752 -0.2512  0.2337
 1068PEP     CB39017  13.175  12.929   0.233  0.0947 -0.0463  0.0168
 1068PEP     CB39018  13.405  12.600   0.270 -0.0847  0.1750 -0.2410
 1068PEP     CB39019  13.257  12.284   0.632 -0.0960  0.3553 -0.1455
 1068PEP     CB39020  13.029  12.180   1.000 -0.1140  0.2012  0.0730
 1068PEP     CB39021  12.935  11.959   1.278  0.1809 -0.1052  0.2251
 1068PEP     CB39022  12.626  11.713   1.619  0.2568 -0.0740 -0.4535
 1068PEP     CB39023  12.259  11.780   1.928  0.0370  0.2033 -0.0686
 1068PEP     CB39024  11.965  11.804   2.330 -0.0116 -0.2165 -0.1107
 1068PEP     CB39025  11.505  11.787   2.344  0.1063  0.2029 -0.0190
 1068PEP     CB39026  11.269  11.766   2.022  0.2252 -0.2315  0.0342
 1068PEP     CB39027  10.983  12.045   1.784 -0.2898 -0.1187 -0.1520
 1068PEP     CB39028  10.743  12.450   1.787 -0.4685 -0.0141  0.2643
 1068PEP     CB39029  10.613  12.982   1.724 -0.1704 -0.1834 -0.0262
 1068PEP     CB39030  10.464  13.374   1.886  0.0102 -0.1611  0.4379
 1068PEP     CB39031  10.339  13.773   2.080  0.2287 -0.2203  0.0491
 1068PEP     CB39032  10.504  14.093   2.344 -0.1180 -0.1633 -0.1604
 1068PEP     CB39033  10.913  14.409   2.596 -0.4130 -0.2323  0.0095
 1068PEP     CB39034  11.325  14.474   2.671  0.3620  0.0773  0.3289
 1068PEP     CB39035  11.638  14.649   2.491  0.4030 -0.2454 -0.0079
 1068PEP     CB39036  11.910  15.032   2.343 -0.1111  0.0610 -0.3137
 1068PEP     CB39037  12.049  15.483   2.485 -0.0851 -0.2357  0.1232
 1068PEP     CB39038  12.143  15.963   2.602  0.0862  0.1421  0.2406
 1068PEP     CB39039  12.186  16.347   2.703  0.2615 -0.4503  0.0325
 1068PEP     CB39040  12.093  16.696   2.745 -0.1015 -0.0139  0.2525
 1069PEP     CB39041   7.948   5.404  20.013 -0.0599  0.0528 -0.0465
 1069PEP     CB39042   7.801   5.761  19.730  0.0776 -0.0755  0.1585
 1069PEP     CB39043   7.641   5.887  19.355  0.3746  0.1575  0.4054
 1069PEP     CB39044   7.307   5.678  19.036 -0.0352 -0.1261 -0.4338
 1069PEP     CB39045   7.174   5.243  19.115 -0.0923 -0.3574 -0.2063
 1069PEP     CB39046   7.414   4.916  18.986 -0.0647 -0.1634 -0.2643
 1069PEP     CB39047   7.839   5.015  18.790  0.2386 -0.1160 -0.4575
 1069PEP     CB39048   8.246   5.056  18.600  0.1716  0.2551 -0.1989
 1069PEP     CB39049   8.689   4.968  18.482  0.3243  0.1979 -0.0484
 1069PEP     CB39050   8.916   4.548  18.379 -0.1448 -0.1165 -0.1551
 1069PEP     CB39051   9.147   4.114  18.504 -0.0639  0.0492  0.1392
 1069PEP     CB39052   9.129   3.849  18.781  0.0471 -0.0175  0.0936
 1069PEP     CB39053   9.013   3.724  19.121 -0.1137 -0.0494 -0.1256
 1069PEP     CB39054   8.690   3.907  19.379  0.3841 -0.2816  0.1082
 1069PEP     CB39055   8.488   4.293  19.408 -0.0972 -0.2419 -0.4471
 1069PEP     CB39056   8.163   4.565  19.665 -0.0392  0.2770  0.2408
 1069PEP     CB39057   7.939   4.718  19.933  0.0665  0.1287  0.2267
 1069PEP     CB39058   7.726   4.919  20.232  0.2907 -0.0092 -0.0771
 1069PEP     CB39059   7.616   4.915  20.698  0.1960  0.1812 -0.1293
 1069PEP     CB39060   7.658   5.011  21.138 -0.0355  0.3701  0.0867
 1069PEP     CB39061   7.690   4.882  21.566 -0.0895 -0.2956  0.0076
 1069PEP     CB39062   7.968   4.750  21.921 -0.3904 -0.4830 -0.0924
 1069PEP     CB39063   8.253   4.841  22.168 -0.1448 -0.0809  0.0271
 1069PEP     CB39064   8.586   5.097  22.435  0.1103 -0.0822  0.1388
 1069PEP     CB39065   8.907   5.173  22.662 -0.3158 -0.0110  0.3543
 1069PEP     CB39066   9.315   4.938  22.861 -0.2962 -0.0218  0.0473
 1069PEP     CB39067   9.715   4.909  23.063 -0.0290  0.0443  0.2562
 1069PEP     CB39068   9.958   4.717  23.365  0.4354 -0.2910  0.4993
 1069PEP     CB39069  10.284   4.448  23.365  0.0921 -0.1745  0.1813
 1069PEP     CB39070  10.520   4.090  23.339  0.0960 -0.1968 -0.2433
 1069PEP     CB39071  10.836   3.783  23.179  0.1324  0.0599 -0.3554
 1069PEP     CB39072  11.195   3.754  22.834  0.0579 -0.0955  0.5805
 1069PEP     CB39073  11.538   3.727  22.663 -0.0878  0.0930  0.2006
 1069PEP     CB39074  11.847   4.023  22.749  0.1095 -0.4879 -0.0384
 1069PEP     CB39075  11.802   4.344  23.019 -0.0167 -0.1512 -0.2616
 1069PEP     CB39076  11.587   4.235  23.407  0.0881 -0.0333 -0.2251
 1069PEP     CB39077  11.613   3.993  23.767 -0.0163 -0.2284 -0.0090
 1069PEP     CB39078  11.778   3.747  24.049 -0.1123 -0.2839 -0.1695
 1069PEP     CB39079  11.786   3.641  24.452  0.4627 -0.1101 -0.0940
 1069PEP     CB39080  11.746   3.392  24.842  0.0313 -0.1420 -0.2124
 1070PEP     CB39081   9.046   2.279  20.690  0.0254 -0.0764  0.2334
 1070PEP     CB39082   8.781   2.567  20.673  0.2156 -0.1728 -0.3410
 1070PEP     CB39083   8.682   2.926  20.639 -0.0305  0.1234  0.3420
 1070PEP     CB39084   8.619   3.389  20.495  0.1213 -0.1208  0.0187
 1070PEP     CB39085   8.535   3.826  20.476 -0.1040  0.3220 -0.2310
 1070PEP     CB39086   8.569   4.227  20.402  0.3297 -0.0005  0.3170
 1070PEP     CB39087   8.723   4.719  20.396  0.2276  0.3449 -0.1450
 1070PEP     CB39088   8.994   5.158  20.509  0.1535 -0.3418 -0.2491
 1070PEP     CB39089   9.315   5.342  20.836  0.2254  0.1472 -0.0897
 1070PEP     CB39090   9.514   5.166  21.248  0.1497 -0.3636  0.1001
 1070PEP     CB39091   9.848   5.031  21.579  0.0908  0.1412  0.1980
 1070PEP     CB39092  10.257   4.972  21.833 -0.0671  0.2588 -0.2323
 1070PEP     CB39093  10.657   4.770  21.930 -0.0121  0.1265  0.3383
 1070PEP     CB39094  10.841   4.544  22.253 -0.1469 -0.1916 -0.0004
 1070PEP     CB39095  10.999   4.658  22.653  0.0216  0.0391  0.5621
 1070PEP     CB39096  11.130   5.076  22.981 -0.5286 -0.0961 -0.0033
 1070PEP     CB39097  11.539   5.252  23.106  0.2641 -0.3685 -0.1048
 1070PEP     CB39098  11.894   5.282  22.826  0.2519  0.0986 -0.0081
 1070PEP     CB39099  12.069   5.407  22.390  0.5420 -0.1479 -0.2484
 1070PEP     CB39100  12.151   5.584  21.964  0.0342 -0.1471  0.1627
 1070PEP     CB39101  12.283   5.908  21.588  0.0360 -0.0083  0.0486
 1070PEP     CB39102  11.933   6.150  21.238 -0.2965  0.2455  0.0458
 1070PEP     CB39103  11.452   6.258  21.351 -0.4837  0.1544 -0.2622
 1070PEP     CB39104  11.224   6.282  21.637 -0.1541  0.0769  0.1089
 1070PEP     CB39105  11.250   6.273  22.174 -0.2755  0.1378 -0.1153
 1070PEP     CB39106  11.585   6.610  22.461 -0.3590  0.2279 -0.0130
 1070PEP     CB39107  11.603   7.025  22.376  0.1934 -0.4485  0.2642
 1070PEP     CB39108  11.369   7.208  21.980  0.0069 -0.1389  0.2611
 1070PEP     CB39109  11.152   6.993  21.606 -0.2393  0.1385 -0.0966
 1070PEP     CB39110  10.963   6.625  21.348  0.3569  0.1661  0.1988
 1070PEP     CB39111  10.538   6.428  21.063  0.3047 -0.1502 -0.1013
 1070PEP     CB39112  10.051   6.433  21.033  0.0084 -0.2748 -0.0513
 1070PEP     CB39113   9.606   6.290  21.151  0.0095 -0.3379 -0.0675
 1070PEP     CB39114   9.202   6.107  21.247 -0.1997  0.0298  0.3522
 1070PEP     CB39115   8.863   5.949  21.013 -0.0917 -0.0691 -0.1291
 1070PEP     CB39116   8.853   6.161  20.575  0.2703 -0.3084  0.0900
 1070PEP     CB39117   9.198   6.236  20.239  0.0314 -0.0275  0.2081
 1070PEP     CB39118   9.433   6.575  20.182 -0.1340  0.0472  0.1430
 1070PEP     CB39119   9.286   7.054  20.098 -0.2679  0.0264 -0.2178
 1070PEP     CB39120   8.995   7.283  19.861 -0.2224  0.1180 -0.0820
 1071PEP     CB39121   3.916  12.439  16.615  0.0150  0.2892  0.0829
 1071PEP     CB39122   4.042  12.617  16.309 -0.1690 -0.0090  0.3448
 1071PEP     CB39123   4.324  12.525  16.005  0.1117  0.2734 -0.2040
 1071PEP     CB39124   4.687  12.314  16.003  0.0837 -0.2090  0.2632
 1071PEP     CB39125   4.868  11.916  16.034  0.2131  0.1151 -0.2377
 1071PEP     CB39126   4.772  11.389  16.057  0.1543 -0.5356 -0.0725
 1071PEP     CB39127   4.550  11.159  16.364 -0.1291 -0.2117  0.1671
 1071PEP     CB39128   4.719  11.009  16.730 -0.1921  0.0859  0.1343
 1071PEP     CB39129   5.153  11.033  16.936 -0.3328  0.1996 -0.1106
 1071PEP     CB39130   5.497  11.229  17.157  0.2550 -0.2435 -0.2043
 1071PEP     CB39131   5.911  11.299  17.374  0.1698  0.2174 -0.1212
 1071PEP     CB39132   6.193  11.341  17.649  0.2133 -0.4293 -0.0963
 1071PEP     CB39133   6.471  11.011  17.768 -0.0073 -0.2291  0.5380
 1071PEP     CB39134   6.536  10.661  17.431  0.0965 -0.4289  0.1745
 1071PEP     CB39135   6.588  10.768  16.905  0.2651 -0.1895 -0.2926
 1071PEP     CB39136   6.563  11.125  16.681  0.1212  0.1130 -0.0290
 1071PEP     CB39137   6.591  11.478  16.357  0.1206 -0.0169  0.3666
 1071PEP     CB39138   6.389  11.834  16.164  0.1672  0.0367 -0.4315
 1071PEP     CB39139   6.138  12.157  15.955  0.3806 -0.2042  0.1814
 1071PEP     CB39140   5.656  12.212  16.020  0.2362 -0.3638 -0.2409
 1071PEP     CB39141   5.437  12.487  16.278  0.4828 -0.2630  0.2196
 1071PEP     CB39142   5.129  12.362  16.560  0.7838  0.2992  0.4431
 1071PEP     CB39143   4.780  12.064  16.514  0.0357 -0.2686 -0.0986
 1071PEP     CB39144   4.540  11.767  16.486  0.1378 -0.1898 -0.0719
 1071PEP     CB39145   4.110  11.570  16.288  0.4949 -0.1055 -0.1648
 1071PEP     CB39146   3.803  11.666  15.960  0.0920  0.2133  0.0004
 1071PEP     CB39147   3.836  11.950  15.575  0.0076  0.2532  0.3426
 1071PEP     CB39148   4.232  11.881  15.414 -0.0546 -0.2326 -0.4129
 1071PEP     CB39149   4.342  11.536  15.703 -0.2285  0.2148 -0.0794
 1071PEP     CB39150   4.075  11.264  15.824 -0.3367  0.2884 -0.0489
 1071PEP     CB39151   3.832  10.937  15.843 -0.0288  0.0513 -0.0752
 1071PEP     CB39152   3.570  10.619  16.025  0.0225  0.0343 -0.4821
 1071PEP     CB39153   3.183  10.496  16.260  0.3786  0.1384 -0.0932
 1071PEP     CB39154   2.851  10.777  16.514  0.2839  0.1865 -0.0190
 1071PEP     CB39155   2.545  10.762  16.781  0.1422  0.2205 -0.0123
 1071PEP     CB39156   2.380  10.636  17.127 -0.2752  0.4924 -0.0879
 1071PEP     CB39157   2.502  10.327  17.435  0.1268  0.0418  0.0644
 1071PEP     CB39158   2.245   9.895  17.591  0.5446 -0.3611 -0.1023
 1071PEP     CB39159   1.974   9.623  17.667  0.2166 -0.1668  0.0991
 1071PEP     CB39160   1.945   9.143  17.616  0.3875 -0.2904 -0.2957
 1072PEP     CB39161   6.923  21.756   5.719 -0.0570  0.1003 -0.2195
 1072PEP     CB39162   7.117  22.073   5.862 -0.4226 -0.2800  0.4342
 1072PEP     CB39163   7.469  22.384   6.107  0.2599  0.2522 -0.0901
 1072PEP     CB39164   7.442  22.505   6.547  0.1520 -0.0867 -0.1221
 1072PEP     CB39165   7.304  22.421   6.958  0.1659 -0.2055 -0.0931
 1072PEP     CB39166   7.267  22.316   7.402  0.1217  0.2590 -0.3244
 1072PEP     CB39167   7.355  22.081   7.803 -0.3639 -0.0007 -0.1453
 1072PEP     CB39168   7.210  21.953   8.197  0.1091 -0.3634 -0.1962
 1072PEP     CB39169   7.296  21.552   8.400  0.3022  0.4001 -0.2929
 1072PEP     CB39170   7.170  21.198   8.635  0.1261 -0.0784  0.2113
 1072PEP     CB39171   6.930  21.023   8.964 -0.0941  0.2195 -0.0490
 1072PEP     CB39172   6.695  21.049   9.362  0.3030 -0.3440  0.1795
 1072PEP     CB39173   6.452  20.833   9.660  0.1651  0.1948 -0.2363
 1072PEP     CB39174   6.314  20.503   9.777 -0.4639 -0.0787 -0.1281
 1072PEP     CB39175   6.201  20.113   9.799 -0.2029 -0.5082 -0.1149
 1072PEP     CB39176   6.138  19.626   9.802 -0.0559 -0.1052 -0.2559
 1072PEP     CB39177   5.881  19.341   9.730  0.3869 -0.0168  0.0345
 1072PEP     CB39178   5.522  19.445   9.920 -0.0392 -0.1011  0.2014
 1072PEP     CB39179   5.417  19.930  10.079 -0.5469 -0.2387  0.1143
 1072PEP     CB39180   5.468  20.320  10.322 -0.0269  0.2924  0.0417
 1072PEP     CB39181   5.666  20.621  10.532  0.2032 -0.1324  0.1765
 1072PEP     CB39182   6.019  20.825  10.632  0.2073 -0.3367 -0.1125
 1072PEP     CB39183   6.391  20.985  10.655  0.1983 -0.3030  0.0589
 1072PEP     CB39184   6.780  21.124  10.445  0.0223  0.1682  0.2964
 1072PEP     CB39185   7.137  21.192  10.724  0.2862 -0.2028  0.0755
 1072PEP     CB39186   7.345  21.479  11.012  0.2960 -0.1248  0.0719
 1072PEP     CB39187   7.608  21.721  11.240  0.1982 -0.3557 -0.1271
 1072PEP     CB39188   7.983  22.057  11.417  0.2049 -0.1454 -0.1565
 1072PEP     CB39189   8.323  22.198  11.313  0.1409 -0.0993  0.2929
 1072PEP     CB39190   8.605  22.484  11.144 -0.0579  0.0049  0.3971
 1072PEP     CB39191   8.976  22.682  10.957 -0.1394 -0.4021  0.2487
 1072PEP     CB39192   9.278  23.108  10.992 -0.1007 -0.2183 -0.1623
 1072PEP     CB39193   9.744  23.228  11.190  0.1491 -0.1567  0.1129
 1072PEP     CB39194  10.072  23.484  11.091  0.1019 -0.2060  0.2508
 1072PEP     CB39195  10.141  24.022  10.886 -0.0375  0.1327  0.3868
 1072PEP     CB39196  10.085  24.488  10.950  0.0150  0.2678  0.4576
 1072PEP     CB39197   9.915  24.791  11.245  0.1544  0.1380  0.1472
 1072PEP     CB39198  10.029  24.931  11.573  0.0127  0.4057  0.0815
 1072PEP     CB39199   9.924  24.747  11.993 -0.1963 -0.2134 -0.4687
 1072PEP     CB39200  10.141  24.473  12.423 -0.3401 -0.2410  0.1939
 1073PEP     CB39201   7.378  21.167   8.039 -0.2573 -0.0635 -0.0601
 1073PEP     CB39202   7.596  20.756   7.880  0.3229 -0.1426  0.0800
 1073PEP     CB39203   7.720  20.463   7.572  0.0628 -0.1506 -0.0045
 1073PEP     CB39204   8.120  20.224   7.276  0.2124 -0.2209 -0.1194
 1073PEP     CB39205   8.494  20.053   7.335 -0.1045 -0.2611  0.0420
 1073PEP     CB39206   8.614  19.742   7.563 -0.0235 -0.2121  0.0685
 1073PEP     CB39207   8.659  19.441   7.839  0.2795 -0.2671  0.1293
 1073PEP     CB39208   8.576  19.200   8.259 -0.0063  0.0582 -0.1412
 1073PEP     CB39209   8.830  19.323   8.645 -0.1436 -0.5065  0.5510
 1073PEP     CB39210   9.244  19.648   8.702  0.2670  0.1340  0.3916
 1073PEP     CB39211   9.708  19.660   8.633  0.2795  0.0077  0.2027
 1073PEP     CB39212   9.932  19.700   8.303 -0.0775 -0.2084 -0.2974
 1073PEP     CB39213  10.184  20.063   8.247  0.5556  0.2866 -0.0499
 1073PEP     CB39214  10.411  20.331   8.571  0.0323  0.3776 -0.2009
 1073PEP     CB39215  10.563  20.718   8.517  0.0129  0.1426  0.1710
 1073PEP     CB39216  10.581  20.836   8.087 -0.1205 -0.1350  0.0090
 1073PEP     CB39217  10.736  21.077   7.739  0.0040  0.2511  0.2465
 1073PEP     CB39218  10.623  21.403   7.502  0.1093  0.1411  0.0548
 1073PEP     CB39219  10.469  21.770   7.423  0.1360 -0.1123  0.0156
 1073PEP     CB39220  10.129  22.129   7.467  0.0361 -0.0240 -0.3246
 1073PEP     CB39221   9.829  22.352   7.407  0.0064  0.4413  0.2046
 1073PEP     CB39222   9.845  22.772   7.097  0.1189 -0.0209 -0.2743
 1073PEP     CB39223  10.194  22.905   7.034  0.0654 -0.3839 -0.1713
 1073PEP     CB39224  10.702  22.836   6.999  0.0317 -0.0338 -0.2332
 1073PEP     CB39225  11.045  22.536   7.099 -0.1175 -0.0666 -0.0645
 1073PEP     CB39226  11.087  22.025   7.222  0.0598 -0.1955  0.4991
 1073PEP     CB39227  11.020  21.742   7.628  0.1122 -0.0568 -0.4660
 1073PEP     CB39228  10.664  21.771   7.882  0.3916 -0.0433 -0.0413
 1073PEP     CB39229  10.356  22.101   7.955 -0.1503 -0.3766 -0.2786
 1073PEP     CB39230  10.296  22.482   7.730 -0.1061 -0.1308  0.0845
 1073PEP     CB39231  10.670  22.722   7.487 -0.0412  0.4803  0.0503
 1073PEP     CB39232  11.153  22.646   7.585 -0.6461 -0.2708 -0.1357
 1073PEP     CB39233  11.451  22.398   7.486 -0.2952  0.2236 -0.0435
 1073PEP     CB39234  11.621  22.125   7.138 -0.0808 -0.4260  0.0676
 1073PEP     CB39235  11.669  21.923   6.757 -0.1158 -0.0326 -0.1876
 1073PEP     CB39236  11.533  21.718   6.405  0.1200  0.2820 -0.1599
 1073PEP     CB39237  11.414  21.555   6.009  0.1940  0.0961  0.2695
 1073PEP     CB39238  11.534  21.305   5.620 -0.0200 -0.0838  0.2567
 1073PEP     CB39239  11.748  21.015   5.321 -0.1492 -0.1289  0.0920
 1073PEP     CB39240  12.096  20.867   5.312 -0.1651 -0.2545  0.4757
 1074PEP     CB39241  14.035  13.720   6.473 -0.0270  0.0293 -0.0147
 1074PEP     CB39242  14.108  13.552   5.941  0.0700  0.0989 -0.4169
 1074PEP     CB39243  13.996  13.400   5.548 -0.1271  0.3213 -0.0536
 1074PEP     CB39244  13.928  13.107   5.238 -0.1381  0.4485 -0.2796
 1074PEP     CB39245  13.875  12.894   4.759  0.0220  0.2618  0.2575
 1074PEP     CB39246  13.959  12.959   4.295  0.2909  0.1590  0.1876
 1074PEP     CB39247  14.242  12.944   3.921 -0.3304 -0.0369 -0.2546
 1074PEP     CB39248  14.500  13.031   3.527 -0.4148  0.0257  0.0311
 1074PEP     CB39249  14.870  13.253   3.343 -0.1011  0.3851 -0.1253
 1074PEP     CB39250  15.046  13.632   3.209 -0.0423 -0.1079  0.3185
 1074PEP     CB39251  14.828  14.118   3.118  0.1203 -0.4861 -0.2446
 1074PEP     CB39252  14.445  14.318   3.034 -0.1367  0.1250 -0.3478
 1074PEP     CB39253  14.262  14.401   2.616 -0.2064 -0.2023  0.1373
 1074PEP     CB39254  13.979  14.075   2.459  0.2026  0.0226 -0.1062
 1074PEP     CB39255  13.847  13.783   2.620 -0.1585  0.3187 -0.0351
 1074PEP     CB39256  13.900  13.425   2.861  0.2485  0.3098  0.4186
 1074PEP     CB39257  13.982  13.275   3.349 -0.0189  0.0384  0.1868
 1074PEP     CB39258  13.737  13.061   3.682  0.2992 -0.1768 -0.3862
 1074PEP     CB39259  13.344  12.918   3.586 -0.1630 -0.0650  0.2206
 1074PEP     CB39260  12.908  12.946   3.432  0.3964 -0.0555 -0.1991
 1074PEP     CB39261  12.571  13.183   3.523 -0.0676  0.0861  0.2699
 1074PEP     CB39262  12.174  13.140   3.720  0.1223  0.2844 -0.1563
 1074PEP     CB39263  11.861  13.324   3.890  0.0798 -0.2667  0.1314
 1074PEP     CB39264  11.768  13.562   4.241  0.0603  0.3013  0.1767
 1074PEP     CB39265  11.994  13.789   4.598  0.2340  0.0637  0.1199
 1074PEP     CB39266  12.309  13.913   4.611  0.2325 -0.3022 -0.4310
 1074PEP     CB39267  12.696  13.714   4.428  0.4070 -0.2749 -0.0553
 1074PEP     CB39268  12.809  13.270   4.346  0.2785 -0.2526  0.0938
 1074PEP     CB39269  13.229  13.055   4.558  0.4672 -0.1344  0.1977
 1074PEP     CB39270  13.567  13.297   4.697 -0.2497  0.0867 -0.1353
 1074PEP     CB39271  13.697  13.739   4.679 -0.1536 -0.0374 -0.2290
 1074PEP     CB39272  13.792  14.156   4.911 -0.1060 -0.1335  0.0234
 1074PEP     CB39273  13.587  14.417   5.208  0.1339 -0.0469  0.3391
 1074PEP     CB39274  13.254  14.396   5.513  0.2348  0.3820 -0.2560
 1074PEP     CB39275  12.828  14.574   5.476 -0.1255  0.2328  0.0321
 1074PEP     CB39276  12.619  14.971   5.539 -0.0509 -0.1531 -0.1468
 1074PEP     CB39277  12.427  15.398   5.695 -0.0028 -0.0420  0.2208
 1074PEP     CB39278  12.230  15.564   6.155 -0.0061  0.1385 -0.1672
 1074PEP     CB39279  11.995  15.340   6.439  0.2799 -0.0629 -0.0854
 1074PEP     CB39280  12.094  14.922   6.635 -0.1902  0.0442 -0.0080
 1075PEP     CB39281  21.513  11.702  11.361  0.1832  0.2834 -0.0947
 1075PEP     CB39282  21.295  11.996  11.077 -0.1006 -0.4707 -0.0038
 1075PEP     CB39283  20.946  12.131  10.819  0.0961  0.0627 -0.0943
 1075PEP     CB39284  20.596  12.381  10.569 -0.1496  0.1806  0.1182
 1075PEP     CB39285  20.181  12.510  10.449  0.1055 -0.0481  0.2377
 1075PEP     CB39286  19.899  12.703  10.175  0.0868  0.3536  0.0150
 1075PEP     CB39287  19.583  12.543   9.797 -0.1750 -0.1308 -0.1307
 1075PEP     CB39288  19.438  12.063   9.663 -0.0878  0.1581  0.1218
 1075PEP     CB39289  19.492  11.630   9.801 -0.1623 -0.0656 -0.0503
 1075PEP     CB39290  19.661  11.271   9.976  0.2181 -0.0978 -0.0007
 1075PEP     CB39291  19.786  10.970  10.136 -0.2040 -0.1183 -0.3985
 1075PEP     CB39292  20.157  10.750  10.458  0.4175  0.1878  0.0762
 1075PEP     CB39293  20.271  10.395  10.785  0.0526 -0.3544  0.0053
 1075PEP     CB39294  20.061  10.252  11.143 -0.1016 -0.4462 -0.0115
 1075PEP     CB39295  20.067  10.164  11.608 -0.3685  0.2566 -0.1483
 1075PEP     CB39296  19.804  10.232  12.054 -0.3073 -0.1702  0.1407
 1075PEP     CB39297  19.391  10.334  12.304  0.3147 -0.0380  0.2033
 1075PEP     CB39298  19.085  10.337  12.636  0.0824  0.1157 -0.1443
 1075PEP     CB39299  19.157  10.567  13.056  0.1562 -0.3997 -0.0209
 1075PEP     CB39300  19.488  10.628  13.137 -0.4610  0.2908 -0.1971
 1075PEP     CB39301  19.792  10.789  12.976  0.1781 -0.2414 -0.2813
 1075PEP     CB39302  20.223  10.669  12.713 -0.0623 -0.2715  0.0493
 1075PEP     CB39303  20.264  10.304  12.400 -0.1283  0.0107 -0.2089
 1075PEP     CB39304  20.203   9.833  12.288  0.0800  0.5325  0.2068
 1075PEP     CB39305  20.313   9.368  12.279 -0.3260 -0.0361 -0.0061
 1075PEP     CB39306  20.486   9.041  12.462 -0.0893 -0.0937 -0.1347
 1075PEP     CB39307  20.548   8.627  12.675  0.0181  0.4317  0.1960
 1075PEP     CB39308  20.597   8.237  12.957 -0.0828 -0.1514  0.1412
 1075PEP     CB39309  20.934   8.039  13.233 -0.0943  0.3317  0.0540
 1075PEP     CB39310  21.101   7.932  13.577  0.4002 -0.0759  0.3149
 1075PEP     CB39311  21.435   7.857  13.969  0.2449 -0.1623  0.2364
 1075PEP     CB39312  21.679   8.002  14.313  0.2270  0.0771  0.2531
 1075PEP     CB39313  21.914   7.965  14.678 -0.3485  0.1543 -0.0324
 1075PEP     CB39314  21.893   7.652  14.994 -0.1206 -0.0076  0.0355
 1075PEP     CB39315  21.826   7.275  15.158  0.2479  0.1503  0.3336
 1075PEP     CB39316  21.812   6.840  15.063 -0.1034  0.1435 -0.3777
 1075PEP     CB39317  21.737   6.464  15.178  0.2272  0.0477 -0.4541
 1075PEP     CB39318  21.346   6.236  15.295 -0.2450 -0.3756 -0.1858
 1075PEP     CB39319  21.217   5.810  15.541  0.0485 -0.0870 -0.2645
 1075PEP     CB39320  21.126   5.441  15.661  0.2112  0.1405 -0.0197
 1076PEP     CB39321  19.495  15.037  18.779 -0.0180  0.0228  0.3096
 1076PEP     CB39322  19.887  15.095  18.893  0.0068  0.1578 -0.0449
 1076PEP     CB39323  20.196  15.236  18.671 -0.0445  0.2914 -0.3039
 1076PEP     CB39324  20.673  15.092  18.747  0.0959 -0.1135  0.0339
 1076PEP     CB39325  20.947  14.684  18.497 -0.1376 -0.3467 -0.1027
 1076PEP     CB39326  21.035  14.496  18.049 -0.2899  0.0531 -0.1197
 1076PEP     CB39327  21.088  14.235  17.686  0.5806 -0.0734  0.1032
 1076PEP     CB39328  21.088  13.796  17.642 -0.1553  0.1015 -0.4130
 1076PEP     CB39329  20.709  13.543  17.743  0.1965  0.1049 -0.1835
 1076PEP     CB39330  20.417  13.712  17.563  0.3449 -0.3514  0.0587
 1076PEP     CB39331  20.051  13.923  17.322 -0.0666  0.1469 -0.1612
 1076PEP     CB39332  19.911  14.125  16.992  0.0833  0.1603  0.2131
 1076PEP     CB39333  19.596  14.447  17.003  0.1843 -0.0711 -0.1370
 1076PEP     CB39334  19.383  14.765  16.817  0.3000 -0.1862 -0.0199
 1076PEP     CB39335  19.168  15.057  16.902 -0.4648  0.3072  0.1498
 1076PEP     CB39336  18.926  15.446  16.978 -0.1407  0.0517 -0.0757
 1076PEP     CB39337  18.721  15.789  17.111  0.0436  0.0487 -0.3261
 1076PEP     CB39338  18.583  16.245  17.031  0.3231  0.1259  0.1909
 1076PEP     CB39339  18.547  16.557  16.661  0.1486 -0.1183 -0.1206
 1076PEP     CB39340  18.882  16.658  16.365 -0.1964  0.0780  0.1401
 1076PEP     CB39341  19.173  16.466  16.323  0.2414 -0.0475 -0.0387
 1076PEP     CB39342  19.421  16.308  16.660 -0.0166 -0.1258 -0.0257
 1076PEP     CB39343  19.489  16.279  17.091  0.3004 -0.0617  0.0531
 1076PEP     CB39344  19.991  16.403  17.121 -0.2804  0.0190  0.1278
 1076PEP     CB39345  20.208  16.775  16.925 -0.1495 -0.4099 -0.2766
 1076PEP     CB39346  19.945  17.173  16.737 -0.2005  0.0481  0.3675
 1076PEP     CB39347  19.522  17.281  16.708 -0.1344 -0.3793 -0.1998
 1076PEP     CB39348  19.212  17.365  17.040  0.0010  0.1917 -0.1308
 1076PEP     CB39349  18.966  17.246  17.424 -0.2142 -0.0201  0.1136
 1076PEP     CB39350  18.666  16.836  17.494 -0.0206 -0.2479  0.4495
 1076PEP     CB39351  18.727  16.499  17.478 -0.0817 -0.2873  0.2378
 1076PEP     CB39352  19.042  16.256  17.307 -0.1726 -0.4242 -0.1037
 1076PEP     CB39353  19.227  15.844  17.335 -0.2768 -0.1913 -0.1668
 1076PEP     CB39354  19.350  15.392  17.316 -0.3322  0.0375 -0.1303
 1076PEP     CB39355  19.531  15.039  17.233  0.0650 -0.2538  0.0100
 1076PEP     CB39356  19.858  14.742  17.263 -0.2422 -0.1253 -0.2490
 1076PEP     CB39357  20.201  14.506  17.219  0.2701  0.1683  0.1750
 1076PEP     CB39358  20.412  14.200  17.128  0.0998  0.3530  0.0368
 1076PEP     CB39359  20.385  13.797  16.868 -0.3118  0.2984 -0.1197
 1076PEP     CB39360  20.360  13.568  16.495 -0.0010  0.2217 -0.2944
 1077PEP     CB39361  11.157  13.075  15.536  0.0433  0.1043  0.2365
 1077PEP     CB39362  11.319  13.131  15.910  0.1157 -0.2162  0.2634
 1077PEP     CB39363  11.142  13.369  16.319  0.1381  0.2124  0.1588
 1077PEP     CB39364  11.184  13.670  16.698  0.0709 -0.2860 -0.3366
 1077PEP     CB39365  11.079  14.111  16.711  0.0397 -0.2214  0.0136
 1077PEP     CB39366  10.945  14.425  16.587 -0.2503  0.5837 -0.0864
 1077PEP     CB39367  10.726  14.469  16.200 -0.2698  0.1139  0.2474
 1077PEP     CB39368  10.546  14.179  15.958  0.0892  0.0195  0.2864
 1077PEP     CB39369  10.302  13.910  15.892  0.1664  0.0688  0.0936
 1077PEP     CB39370  10.307  13.645  16.200  0.1631 -0.1126 -0.1122
 1077PEP     CB39371  10.395  13.710  16.684 -0.2607 -0.0827 -0.2250
 1077PEP     CB39372  10.529  14.002  17.015 -0.0168  0.0120 -0.4005
 1077PEP     CB39373  10.912  14.046  17.150 -0.0494 -0.0337  0.2708
 1077PEP     CB39374  11.164  13.728  17.216  0.0150 -0.1115  0.2923
 1077PEP     CB39375  11.295  13.291  17.426 -0.1259  0.1253  0.4209
 1077PEP     CB39376  11.244  12.792  17.532  0.0038  0.1550 -0.2598
 1077PEP     CB39377  11.318  12.344  17.523 -0.1195  0.4278 -0.1806
 1077PEP     CB39378  11.376  11.918  17.493 -0.4069 -0.1513 -0.3412
 1077PEP     CB39379  11.217  11.535  17.367  0.1470  0.0824  0.0738
 1077PEP     CB39380  10.870  11.384  17.133  0.1713 -0.3796 -0.2776
 1077PEP     CB39381  10.674  11.020  16.988 -0.0403  0.0708  0.2053
 1077PEP     CB39382  10.520  10.618  16.782  0.0800  0.0687  0.3842
 1077PEP     CB39383  10.528  10.239  16.622 -0.2497  0.2129  0.0415
 1077PEP     CB39384  10.485   9.807  16.671  0.0154 -0.0841  0.1906
 1077PEP     CB39385  10.589   9.551  17.008 -0.2005  0.1861  0.0385
 1077PEP     CB39386  10.485   9.550  17.502  0.0375  0.1207 -0.2788
 1077PEP     CB39387  10.453   9.741  17.898  0.1629  0.2199  0.2725
 1077PEP     CB39388  10.453  10.000  18.274 -0.1432 -0.0674  0.3499
 1077PEP     CB39389  10.660  10.425  18.383 -0.2002 -0.0350  0.0175
 1077PEP     CB39390  10.826  10.692  18.021 -0.0211 -0.2849 -0.4095
 1077PEP     CB39391  11.045  10.464  17.628 -0.0862 -0.0608  0.1462
 1077PEP     CB39392  11.240  10.208  17.361  0.0300  0.4264  0.4121
 1077PEP     CB39393  11.210   9.725  17.256  0.6533 -0.0497  0.3630
 1077PEP     CB39394  10.938   9.479  17.411  0.2647 -0.5045  0.1157
 1077PEP     CB39395  10.860   9.082  17.598 -0.1785  0.2544  0.1148
 1077PEP     CB39396  10.533   8.838  17.765 -0.0389 -0.3561 -0.0342
 1077PEP     CB39397  10.261   8.442  17.741 -0.1203  0.2197 -0.2851
 1077PEP     CB39398   9.854   8.303  17.675 -0.0591  0.1018 -0.3375
 1077PEP     CB39399   9.434   8.061  17.670  0.0059 -0.5116 -0.0082
 1077PEP     CB39400   8.966   7.873  17.546 -0.0709  0.1622 -0.0502
 1078PEP     CB39401  19.700  12.089  18.313  0.0080  0.3837 -0.0575
 1078PEP     CB39402  19.743  11.725  18.571 -0.2619  0.2876  0.1742
 1078PEP     CB39403  19.848  11.336  18.671  0.5246 -0.0307  0.0870
 1078PEP     CB39404  20.080  10.994  18.599 -0.1423  0.1219 -0.0454
 1078PEP     CB39405  20.243  10.660  18.176  0.1010 -0.1504 -0.0256
 1078PEP     CB39406  20.355  10.624  17.736  0.3479 -0.5928  0.1723
 1078PEP     CB39407  20.645  10.501  17.448  0.0995 -0.2767 -0.0085
 1078PEP     CB39408  20.882  10.627  17.062  0.0637  0.2152  0.0404
 1078PEP     CB39409  20.723  10.981  16.818  0.2203 -0.0561 -0.2840
 1078PEP     CB39410  20.240  11.049  16.755  0.4143 -0.4634  0.1469
 1078PEP     CB39411  19.937  10.780  16.419  0.5773 -0.1590  0.1645
 1078PEP     CB39412  20.000  10.663  15.962  0.1618  0.1109  0.2080
 1078PEP     CB39413  20.045  10.521  15.487  0.3330 -0.3874  0.0291
 1078PEP     CB39414  20.011  10.115  15.371 -0.3843 -0.1354  0.1163
 1078PEP     CB39415  19.982   9.671  15.484 -0.1573  0.2493  0.1316
 1078PEP     CB39416  19.788   9.267  15.550  0.1204  0.1358  0.0031
 1078PEP     CB39417  19.755   8.879  15.808 -0.0409 -0.1004  0.1092
 1078PEP     CB39418  19.922   8.475  15.914  0.1662  0.2077  0.0827
 1078PEP     CB39419  20.142   8.143  16.000  0.4608 -0.0597  0.1402
 1078PEP     CB39420  20.482   7.823  16.143  0.4277 -0.1183 -0.0562
 1078PEP     CB39421  20.681   7.435  16.215  0.0448 -0.0817  0.0802
 1078PEP     CB39422  20.865   7.027  16.331 -0.2733 -0.1544 -0.4751
 1078PEP     CB39423  21.132   6.842  16.580  0.3666  0.1894  0.0152
 1078PEP     CB39424  21.265   6.857  17.018  0.0570 -0.2037 -0.1664
 1078PEP     CB39425  21.318   6.864  17.475  0.1095 -0.0434 -0.3669
 1078PEP     CB39426  21.620   7.116  17.629  0.0512  0.2011  0.1809
 1078PEP     CB39427  21.969   7.097  17.511  0.0299 -0.0247 -0.1878
 1078PEP     CB39428  22.084   7.248  17.126 -0.3692  0.2201 -0.0571
 1078PEP     CB39429  21.836   7.182  16.790 -0.0730 -0.1250  0.1176
 1078PEP     CB39430  21.762   6.810  16.584  0.0446  0.1955 -0.0254
 1078PEP     CB39431  21.636   6.363  16.816  0.0825  0.3563 -0.1102
 1078PEP     CB39432  21.578   5.914  16.940  0.0853  0.1641 -0.1410
 1078PEP     CB39433  21.196   5.644  16.948 -0.0858  0.1391  0.4250
 1078PEP     CB39434  20.846   5.727  16.815 -0.0531  0.2010  0.1914
 1078PEP     CB39435  20.469   6.042  16.733 -0.0802  0.1768 -0.1942
 1078PEP     CB39436  20.315   6.218  17.057  0.0470 -0.2448  0.2111
 1078PEP     CB39437  20.480   6.343  17.460 -0.0857  0.1532  0.2030
 1078PEP     CB39438  20.213   6.530  17.746  0.3338  0.1881 -0.1326
 1078PEP     CB39439  19.935   6.854  17.651  0.1453 -0.0942 -0.2405
 1078PEP     CB39440  19.833   6.997  17.275 -0.1156 -0.0103 -0.2977
 1079PEP     CB39441   4.976  11.535  20.161 -0.6755 -0.1518 -0.1858
 1079PEP     CB39442   5.059  11.881  19.768 -0.1171  0.0378  0.0911
 1079PEP     CB39443   5.014  12.283  19.397  0.0031  0.0892 -0.0787
 1079PEP     CB39444   4.824  12.423  18.984 -0.3681 -0.0072  0.0970
 1079PEP     CB39445   4.795  12.607  18.654 -0.0501 -0.1224 -0.0688
 1079PEP     CB39446   4.952  13.008  18.593  0.4599 -0.1630  0.0524
 1079PEP     CB39447   5.061  13.338  18.296  0.2845 -0.0353  0.1806
 1079PEP     CB39448   5.466  13.489  18.166 -0.1465 -0.1417 -0.3943
 1079PEP     CB39449   5.758  13.783  18.269 -0.0009  0.1737 -0.1603
 1079PEP     CB39450   5.986  14.141  18.288 -0.0242  0.3849  0.2582
 1079PEP     CB39451   6.409  14.219  18.305  0.0267 -0.1075  0.4026
 1079PEP     CB39452   6.765  14.500  18.431 -0.4178  0.2098  0.0377
 1079PEP     CB39453   7.119  14.722  18.618  0.0822  0.1164  0.1028
 1079PEP     CB39454   6.933  15.043  18.935  0.1889 -0.2056  0.3226
 1079PEP     CB39455   7.096  15.378  19.234  0.2924  0.1992 -0.0350
 1079PEP     CB39456   7.541  15.411  19.391 -0.0802 -0.4363  0.0466
 1079PEP     CB39457   7.870  15.352  19.119  0.1891 -0.1631 -0.0080
 1079PEP     CB39458   8.271  15.192  18.809 -0.0815 -0.2107  0.1219
 1079PEP     CB39459   8.658  15.211  18.667  0.4223  0.0348  0.2070
 1079PEP     CB39460   9.073  14.930  18.550  0.0586  0.2523  0.0221
 1079PEP     CB39461   9.381  14.717  18.683  0.1971 -0.1196 -0.0630
 1079PEP     CB39462   9.393  14.301  18.889 -0.2520  0.0087 -0.1169
 1079PEP     CB39463   9.338  13.985  18.552 -0.0195 -0.0214  0.2390
 1079PEP     CB39464   8.990  13.952  18.256 -0.1742  0.4085 -0.4120
 1079PEP     CB39465   8.558  14.128  18.277  0.0363 -0.3288 -0.0496
 1079PEP     CB39466   8.511  14.514  18.510 -0.0938  0.0385 -0.0236
 1079PEP     CB39467   8.726  14.744  18.799  0.3457 -0.2035  0.2959
 1079PEP     CB39468   9.092  14.688  19.057 -0.1325 -0.1807  0.1436
 1079PEP     CB39469   9.449  14.707  19.186 -0.0149 -0.2185  0.2667
 1079PEP     CB39470   9.644  14.612  19.646 -0.3928 -0.1856  0.4467
 1079PEP     CB39471   9.923  14.475  19.909  0.0348 -0.1411 -0.1184
 1079PEP     CB39472  10.215  14.312  20.210  0.1065  0.2400 -0.0713
 1079PEP     CB39473  10.577  14.082  20.320 -0.0141  0.0334 -0.0061
 1079PEP     CB39474  10.699  13.659  20.503 -0.2081  0.0053 -0.4035
 1079PEP     CB39475  10.608  13.383  20.748 -0.4530 -0.2066 -0.3251
 1079PEP     CB39476  10.525  13.055  21.102 -0.2026  0.3483  0.0413
 1079PEP     CB39477  10.705  12.671  21.186 -0.5153 -0.2275 -0.0902
 1079PEP     CB39478  10.367  12.377  21.151  0.1623 -0.0803  0.3999
 1079PEP     CB39479  10.090  12.581  21.279 -0.2861  0.2531  0.1306
 1079PEP     CB39480   9.910  12.974  21.093  0.1635 -0.1159  0.0428
 1080PEP     CB39481   0.750  17.580   0.228  0.3359  0.2654 -0.0898
 1080PEP     CB39482   0.522  17.157   0.203 -0.0687  0.1995 -0.0651
 1080PEP     CB39483   0.343  16.871   0.562  0.0462  0.2481 -0.0084
 1080PEP     CB39484   0.239  16.795   1.040 -0.1505  0.1527  0.0638
 1080PEP     CB39485   0.231  16.941   1.448 -0.1650  0.0130 -0.0286
 1080PEP     CB39486   0.495  17.352   1.480 -0.1932 -0.0367 -0.0391
 1080PEP     CB39487   0.605  17.660   1.156  0.0949 -0.1766  0.1797
 1080PEP     CB39488   0.505  18.031   0.924  0.2441  0.2914  0.0466
 1080PEP     CB39489   0.564  18.476   1.008  0.0893  0.1448 -0.0771
 1080PEP     CB39490   0.461  18.945   0.886  0.0346 -0.0171 -0.0006
 1080PEP     CB39491   0.604  19.360   0.723 -0.2029 -0.0859 -0.1937
 1080PEP     CB39492   0.920  19.603   0.401  0.1593 -0.2284 -0.0786
 1080PEP     CB39493   0.877  19.807   0.013  0.2403 -0.1401 -0.3393
 1080PEP     CB39494   0.675  19.648  -0.352  0.0300  0.0622  0.1215
 1080PEP     CB39495   0.522  19.830  -0.761 -0.0261 -0.0160  0.2785
 1080PEP     CB39496   0.488  19.746  -1.153 -0.3266 -0.2686 -0.0663
 1080PEP     CB39497   0.295  19.860  -1.506 -0.0701  0.1172 -0.0172
 1080PEP     CB39498   0.194  20.243  -1.761  0.3743  0.0855  0.1082
 1080PEP     CB39499  -0.043  20.626  -1.706  0.2909  0.0254 -0.0935
 1080PEP     CB39500  -0.367  20.986  -1.717  0.1941  0.1382 -0.3414
 1080PEP     CB39501  -0.665  21.220  -1.780  0.2302 -0.2284  0.0058
 1080PEP     CB39502  -1.112  21.421  -1.632 -0.6175  0.2148  0.1498
 1080PEP     CB39503  -1.275  21.895  -1.647  0.0175  0.3325  0.0882
 1080PEP     CB39504  -1.304  22.378  -1.568  0.1227  0.5760  0.3315
 1080PEP     CB39505  -1.186  22.724  -1.326 -0.1435 -0.1502 -0.0798
 1080PEP     CB39506  -1.013  22.998  -0.902  0.2441  0.0030 -0.1148
 1080PEP     CB39507  -1.068  22.860  -0.443  0.0420 -0.0630 -0.1154
 1080PEP     CB39508  -1.066  22.484  -0.371  0.1679 -0.4976 -0.3849
 1080PEP     CB39509  -0.815  22.232  -0.476 -0.0922  0.0256 -0.1679
 1080PEP     CB39510  -0.439  22.282  -0.656 -0.1841  0.2759 -0.1647
 1080PEP     CB39511  -0.074  22.450  -0.442  0.0271 -0.2408 -0.2243
 1080PEP     CB39512   0.086  22.712  -0.384  0.0733 -0.0874 -0.3294
 1080PEP     CB39513  -0.001  23.144  -0.669  0.3424  0.3780 -0.0383
 1080PEP     CB39514  -0.138  23.521  -0.848 -0.1808 -0.0742  0.1704
 1080PEP     CB39515  -0.193  23.970  -0.931  0.0882 -0.2094 -0.5767
 1080PEP     CB39516  -0.337  24.425  -0.767  0.3737 -0.0225  0.0298
 1080PEP     CB39517  -0.233  24.877  -0.676 -0.0434 -0.0066 -0.0753
 1080PEP     CB39518  -0.141  25.341  -0.613 -0.0398  0.1137 -0.0323
 1080PEP     CB39519  -0.099  25.731  -0.777 -0.0596 -0.1015 -0.0098
 1080PEP     CB39520  -0.171  25.860  -1.157  0.0413 -0.5539  0.0487
 1081PEP     CB39521  14.937   4.794  20.044 -0.3784  0.0787  0.4392
 1081PEP     CB39522  15.043   4.931  20.483  0.1879 -0.5405 -0.1497
 1081PEP     CB39523  15.266   5.284  20.751  0.1074  0.2841 -0.3278
 1081PEP     CB39524  15.623   5.241  20.931  0.4559  0.1442 -0.0118
 1081PEP     CB39525  16.014   5.158  20.788 -0.4581 -0.0686  0.2444
 1081PEP     CB39526  16.480   5.032  20.583 -0.0038  0.2408 -0.4831
 1081PEP     CB39527  16.954   5.026  20.385  0.2860  0.4227 -0.0383
 1081PEP     CB39528  17.288   4.777  20.215 -0.2013  0.3021 -0.1023
 1081PEP     CB39529  17.346   4.421  20.002  0.2235  0.1253 -0.2177
 1081PEP     CB39530  17.183   4.113  20.323 -0.2162  0.0540  0.2495
 1081PEP     CB39531  16.824   4.213  20.601  0.1167  0.2222  0.2543
 1081PEP     CB39532  16.803   4.239  21.028 -0.3307 -0.3116  0.0684
 1081PEP     CB39533  17.094   4.005  21.426 -0.1134  0.0036 -0.1751
 1081PEP     CB39534  17.462   4.142  21.524 -0.3639 -0.2585 -0.2820
 1081PEP     CB39535  17.825   4.219  21.624  0.2927 -0.0113 -0.4925
 1081PEP     CB39536  18.157   4.403  21.488 -0.0285 -0.1964  0.1085
 1081PEP     CB39537  18.462   4.608  21.397 -0.0574 -0.2869  0.0794
 1081PEP     CB39538  18.469   5.097  21.467 -0.1326 -0.0139  0.1246
 1081PEP     CB39539  18.036   5.402  21.630 -0.5697  0.1994  0.2646
 1081PEP     CB39540  17.612   5.321  21.514 -0.0137  0.1828 -0.1294
 1081PEP     CB39541  17.470   5.066  21.176  0.1689 -0.0280  0.1084
 1081PEP     CB39542  17.753   4.863  20.898  0.2118  0.0251  0.4074
 1081PEP     CB39543  17.941   4.647  20.614  0.2235 -0.2006  0.4807
 1081PEP     CB39544  18.256   4.575  20.301  0.1862 -0.1315 -0.5979
 1081PEP     CB39545  18.368   4.765  19.927 -0.2077 -0.2943  0.1146
 1081PEP     CB39546  18.448   5.195  19.690 -0.1905 -0.2346  0.2310
 1081PEP     CB39547  18.333   5.560  19.940  0.0119  0.3473 -0.2655
 1081PEP     CB39548  17.928   5.737  20.179 -0.2642 -0.1749  0.2142
 1081PEP     CB39549  17.575   5.814  20.474 -0.2197 -0.0733  0.1044
 1081PEP     CB39550  17.313   6.119  20.611  0.0222  0.0675 -0.2066
 1081PEP     CB39551  17.220   6.578  20.583 -0.0392  0.0943 -0.4211
 1081PEP     CB39552  17.411   6.987  20.515  0.4650 -0.1359 -0.3957
 1081PEP     CB39553  17.854   7.101  20.430  0.2735  0.2153  0.1884
 1081PEP     CB39554  18.152   6.770  20.488  0.3041  0.1345 -0.1013
 1081PEP     CB39555  18.350   6.418  20.644  0.0501  0.3170  0.4125
 1081PEP     CB39556  18.768   6.387  20.755  0.0619 -0.2000 -0.1853
 1081PEP     CB39557  19.198   6.381  20.868  0.1146 -0.1655 -0.0542
 1081PEP     CB39558  19.648   6.508  20.771  0.2962  0.2388  0.2271
 1081PEP     CB39559  19.940   6.785  20.617  0.2820  0.1489  0.0608
 1081PEP     CB39560  20.186   7.225  20.683  0.3992 -0.2325 -0.0032
 1082PEP     CB39561  21.026   4.164   0.526  0.3179  0.4317 -0.0247
 1082PEP     CB39562  21.310   4.181   0.113  0.0724 -0.0198  0.3626
 1082PEP     CB39563  21.628   4.087  -0.237  0.0182  0.2566 -0.1281
 1082PEP     CB39564  21.734   4.145  -0.709 -0.3374  0.2030  0.0615
 1082PEP     CB39565  22.154   4.127  -0.934 -0.1079  0.2443  0.1230
 1082PEP     CB39566  22.599   4.362  -0.901 -0.1120 -0.1549 -0.2038
 1082PEP     CB39567  22.726   4.821  -0.819  0.0556  0.2894  0.1670
 1082PEP     CB39568  22.573   5.278  -0.666 -0.1157 -0.0915  0.2295
 1082PEP     CB39569  22.377   5.623  -0.567  0.0703  0.2565 -0.3642
 1082PEP     CB39570  22.055   5.782  -0.354  0.3445  0.0829  0.3855
 1082PEP     CB39571  21.656   5.707  -0.240  0.1808  0.0435  0.2379
 1082PEP     CB39572  21.311   5.622  -0.090  0.1521  0.3389  0.1344
 1082PEP     CB39573  20.937   5.433   0.237  0.3880  0.1476  0.0219
 1082PEP     CB39574  20.876   5.201   0.602 -0.2392 -0.1950 -0.1779
 1082PEP     CB39575  21.134   4.812   0.773  0.1100 -0.1301  0.0135
 1082PEP     CB39576  21.330   4.466   0.858 -0.1040  0.1080 -0.2401
 1082PEP     CB39577  21.512   4.065   0.612 -0.5805 -0.0571  0.0119
 1082PEP     CB39578  21.850   4.075   0.209  0.1813  0.0594 -0.0053
 1082PEP     CB39579  22.088   4.312  -0.012  0.1034 -0.0460  0.6292
 1082PEP     CB39580  22.328   4.494  -0.406 -0.2123 -0.2216  0.2479
 1082PEP     CB39581  22.226   4.778  -0.769  0.0231 -0.0717 -0.1313
 1082PEP     CB39582  21.935   4.974  -1.051 -0.0661 -0.0986 -0.2529
 1082PEP     CB39583  21.535   5.179  -1.099 -0.1965 -0.0065 -0.0813
 1082PEP     CB39584  21.312   5.279  -0.732  0.0352  0.2783 -0.1571
 1082PEP     CB39585  21.435   5.124  -0.344 -0.3511 -0.4743  0.3635
 1082PEP     CB39586  21.524   5.056   0.063  0.3276  0.0529 -0.4166
 1082PEP     CB39587  21.483   5.017   0.448 -0.2634  0.2351 -0.0789
 1082PEP     CB39588  21.675   4.841   0.934  0.3963  0.5633 -0.0285
 1082PEP     CB39589  22.045   4.923   1.196 -0.3430 -0.2634 -0.3509
 1082PEP     CB39590  22.462   5.126   1.221 -0.2596  0.2457  0.0738
 1082PEP     CB39591  22.765   5.328   1.572  0.1449  0.0276  0.2834
 1082PEP     CB39592  22.692   5.209   2.082 -0.1558  0.1142 -0.3469
 1082PEP     CB39593  22.375   5.278   2.337 -0.3445  0.0718 -0.1239
 1082PEP     CB39594  21.951   5.476   2.357 -0.1873 -0.1005 -0.0454
 1082PEP     CB39595  21.729   5.914   2.317 -0.1055  0.6397  0.1589
 1082PEP     CB39596  21.748   6.264   2.314 -0.0651  0.2250  0.3463
 1082PEP     CB39597  21.772   6.598   2.135  0.2154 -0.2814  0.2382
 1082PEP     CB39598  22.043   6.845   1.782  0.0570  0.2210  0.0398
 1082PEP     CB39599  22.503   7.033   1.676 -0.1108  0.0852 -0.0083
 1082PEP     CB39600  22.930   7.120   1.541 -0.0130 -0.0315 -0.3913
 1083PEP     CB39601  18.494   6.503  13.037  0.1692  0.4364 -0.1439
 1083PEP     CB39602  18.584   6.126  13.174  0.2863 -0.3587  0.5664
 1083PEP     CB39603  18.835   5.669  13.200 -0.0255  0.1242 -0.0635
 1083PEP     CB39604  18.722   5.331  12.768 -0.1548  0.2674  0.0533
 1083PEP     CB39605  18.379   4.996  12.731 -0.3159  0.3010  0.2375
 1083PEP     CB39606  18.038   4.929  12.369 -0.0446  0.3679  0.3228
 1083PEP     CB39607  18.086   4.957  11.891  0.3141 -0.1518  0.1897
 1083PEP     CB39608  18.442   4.931  11.692  0.0110 -0.1078 -0.2308
 1083PEP     CB39609  18.874   4.899  11.892  0.0794 -0.4279 -0.3323
 1083PEP     CB39610  18.995   4.573  12.288 -0.2225 -0.0659  0.2123
 1083PEP     CB39611  19.180   4.237  12.680 -0.3357 -0.0267  0.2377
 1083PEP     CB39612  19.402   3.992  12.891  0.0903  0.2673  0.3530
 1083PEP     CB39613  19.548   3.878  13.276  0.3093 -0.3704  0.0564
 1083PEP     CB39614  19.820   3.841  13.678  0.1063 -0.3289  0.1840
 1083PEP     CB39615  19.946   3.536  13.887 -0.1233  0.3537 -0.2528
 1083PEP     CB39616  19.744   3.203  14.036  0.1085 -0.0050  0.1222
 1083PEP     CB39617  19.355   2.950  14.179 -0.0848  0.4881  0.0263
 1083PEP     CB39618  19.136   2.624  14.015  0.4194  0.3290 -0.2660
 1083PEP     CB39619  18.817   2.268  14.111 -0.0993 -0.2653  0.4296
 1083PEP     CB39620  18.465   2.206  14.294 -0.3868 -0.1030 -0.2021
 1083PEP     CB39621  18.215   2.014  14.616 -0.0560  0.1743 -0.0664
 1083PEP     CB39622  18.121   1.822  15.038  0.1832  0.0384 -0.1488
 1083PEP     CB39623  17.759   1.759  15.240 -0.2494 -0.4678  0.1249
 1083PEP     CB39624  17.316   1.703  15.112 -0.2720  0.1704  0.0067
 1083PEP     CB39625  16.955   1.800  15.363 -0.0388  0.2965 -0.2498
 1083PEP     CB39626  16.627   1.716  15.586 -0.0092 -0.0908 -0.2351
 1083PEP     CB39627  16.421   1.347  15.718  0.2071 -0.1690  0.0327
 1083PEP     CB39628  16.477   1.162  16.118  0.2130 -0.2102  0.2422
 1083PEP     CB39629  16.856   1.222  16.322 -0.0995  0.0598 -0.5170
 1083PEP     CB39630  17.113   1.594  16.271  0.0157 -0.1254 -0.2853
 1083PEP     CB39631  17.249   2.036  16.509 -0.0816 -0.1065 -0.1276
 1083PEP     CB39632  17.355   2.328  16.744  0.0043 -0.0225  0.0093
 1083PEP     CB39633  17.413   2.344  17.210  0.1191  0.0284 -0.0805
 1083PEP     CB39634  17.643   2.368  17.555 -0.2956 -0.0099  0.2098
 1083PEP     CB39635  17.925   2.040  17.817 -0.0845 -0.0030  0.0579
 1083PEP     CB39636  17.783   1.784  18.170  0.1573  0.0191 -0.3827
 1083PEP     CB39637  17.789   1.933  18.616  0.3085  0.2978  0.0332
 1083PEP     CB39638  17.734   2.298  18.914 -0.2040  0.1091  0.0832
 1083PEP     CB39639  17.557   2.692  18.970  0.2402  0.2018 -0.3193
 1083PEP     CB39640  17.470   3.066  18.883  0.2600 -0.1066 -0.2203
 1084PEP     CB39641   0.793  19.191   5.944 -0.4574 -0.0754  0.2869
 1084PEP     CB39642   1.277  19.289   6.133  0.0495 -0.0965  0.0506
 1084PEP     CB39643   1.709  19.478   6.240  0.1316  0.0701  0.2659
 1084PEP     CB39644   2.169  19.609   6.261  0.4406 -0.1958 -0.1881
 1084PEP     CB39645   2.511  19.837   6.371 -0.3606 -0.1851  0.0688
 1084PEP     CB39646   2.930  19.687   6.260  0.0403  0.1466  0.0997
 1084PEP     CB39647   3.264  19.512   6.400 -0.0731  0.3009 -0.0627
 1084PEP     CB39648   3.615  19.220   6.256 -0.1662  0.3596  0.0980
 1084PEP     CB39649   3.992  19.109   6.060  0.3722  0.0339  0.4149
 1084PEP     CB39650   4.348  19.122   5.862  0.0799  0.0972  0.0884
 1084PEP     CB39651   4.681  19.099   5.617 -0.1344 -0.1214  0.2713
 1084PEP     CB39652   4.752  18.982   5.180  0.3188  0.2313 -0.5314
 1084PEP     CB39653   4.852  18.942   4.784  0.1008 -0.3380  0.0926
 1084PEP     CB39654   5.206  18.906   4.564  0.1389  0.1106  0.3262
 1084PEP     CB39655   5.572  19.202   4.540  0.3478 -0.0537  0.0714
 1084PEP     CB39656   5.970  19.390   4.573 -0.0646 -0.0861 -0.1307
 1084PEP     CB39657   6.370  19.514   4.283 -0.0499 -0.0621  0.1249
 1084PEP     CB39658   6.779  19.388   4.326 -0.0488 -0.4683  0.1506
 1084PEP     CB39659   7.082  19.411   3.964 -0.0906 -0.0788 -0.0735
 1084PEP     CB39660   7.271  19.710   3.616  0.0282  0.0690 -0.0859
 1084PEP     CB39661   7.215  20.089   3.681 -0.1889 -0.1664 -0.1228
 1084PEP     CB39662   7.263  20.481   3.434  0.4276  0.0310 -0.0523
 1084PEP     CB39663   7.340  20.476   2.949 -0.0059 -0.3127  0.1526
 1084PEP     CB39664   7.607  20.229   2.660 -0.0832 -0.1930  0.4218
 1084PEP     CB39665   7.670  20.049   2.331 -0.2304  0.2437 -0.2023
 1084PEP     CB39666   7.855  19.868   1.957 -0.0401  0.1274  0.1915
 1084PEP     CB39667   7.880  19.665   1.556  0.3897  0.1283 -0.0075
 1084PEP     CB39668   7.607  19.407   1.262 -0.0028 -0.4507  0.1648
 1084PEP     CB39669   7.182  19.339   1.311  0.0720 -0.0751  0.4276
 1084PEP     CB39670   6.918  19.430   1.581  0.3423 -0.2025 -0.1731
 1084PEP     CB39671   6.980  19.387   1.988 -0.1042 -0.2724 -0.1343
 1084PEP     CB39672   6.788  19.200   2.361  0.0889 -0.2206  0.1558
 1084PEP     CB39673   6.608  18.991   2.782  0.0883  0.3809  0.2216
 1084PEP     CB39674   6.540  19.098   3.217 -0.4787 -0.1494 -0.0915
 1084PEP     CB39675   6.198  19.115   3.486  0.0672  0.1479 -0.1441
 1084PEP     CB39676   5.978  19.270   3.868 -0.0739  0.0610  0.4140
 1084PEP     CB39677   5.852  19.636   4.225  0.3654 -0.0077 -0.2303
 1084PEP     CB39678   5.984  19.909   4.471 -0.2004  0.2259 -0.1088
 1084PEP     CB39679   6.451  19.966   4.610  0.3528 -0.0248  0.3610
 1084PEP     CB39680   6.864  19.767   4.599  0.0378  0.0102 -0.2456
 1085PEP     CB39681  17.195   9.279   2.463 -0.3077  0.3077 -0.1681
 1085PEP     CB39682  17.284   8.978   2.726 -0.2965  0.2340  0.0265
 1085PEP     CB39683  17.330   8.608   2.902 -0.2006  0.0501 -0.1324
 1085PEP     CB39684  17.187   8.242   2.790  0.1098 -0.0446  0.0579
 1085PEP     CB39685  17.014   7.857   2.631 -0.0969 -0.5942  0.0733
 1085PEP     CB39686  17.229   7.600   2.326 -0.0705  0.0945 -0.2540
 1085PEP     CB39687  17.470   7.775   1.982  0.0682 -0.0652  0.1855
 1085PEP     CB39688  17.708   8.117   1.887 -0.1986 -0.0243 -0.2062
 1085PEP     CB39689  17.638   8.532   2.036  0.0828 -0.3820  0.1493
 1085PEP     CB39690  17.429   8.635   2.412 -0.1824  0.0790 -0.2644
 1085PEP     CB39691  16.942   8.500   2.472  0.2491  0.0081 -0.0071
 1085PEP     CB39692  16.671   8.303   2.060 -0.2764  0.4791 -0.0815
 1085PEP     CB39693  16.622   8.490   1.702 -0.4508  0.0168 -0.3691
 1085PEP     CB39694  16.835   8.914   1.579 -0.3552 -0.1449 -0.0626
 1085PEP     CB39695  17.244   9.144   1.435  0.1291 -0.2684 -0.3162
 1085PEP     CB39696  17.570   9.403   1.310  0.4045 -0.2628  0.3787
 1085PEP     CB39697  17.678   9.702   1.169  0.0863  0.4298  0.1935
 1085PEP     CB39698  17.386   9.930   0.958 -0.1539  0.0988 -0.5448
 1085PEP     CB39699  17.003  10.156   1.116  0.1038 -0.0522  0.2203
 1085PEP     CB39700  16.624  10.149   1.182  0.0799  0.1307 -0.0560
 1085PEP     CB39701  16.409  10.062   1.556  0.2970 -0.5026  0.2763
 1085PEP     CB39702  16.562   9.780   1.872  0.0039 -0.2111  0.0996
 1085PEP     CB39703  16.907   9.765   2.326 -0.2750 -0.2024  0.1002
 1085PEP     CB39704  16.812  10.024   2.665  0.0170  0.2408  0.1294
 1085PEP     CB39705  16.902  10.362   2.907  0.0956  0.0339 -0.0357
 1085PEP     CB39706  17.230  10.549   3.190 -0.2059  0.2625 -0.0528
 1085PEP     CB39707  17.494  10.419   3.576 -0.0637 -0.0617 -0.0205
 1085PEP     CB39708  17.323  10.393   3.982 -0.0722  0.0491 -0.1098
 1085PEP     CB39709  17.163  10.675   4.236  0.0155  0.1874 -0.3373
 1085PEP     CB39710  16.928  10.833   4.469  0.2092 -0.4169  0.1584
 1085PEP     CB39711  17.019  11.148   4.805 -0.1906  0.0502 -0.0068
 1085PEP     CB39712  17.392  11.304   4.850  0.0568 -0.0005 -0.2515
 1085PEP     CB39713  17.793  11.316   4.743 -0.2696  0.0365  0.1768
 1085PEP     CB39714  18.056  11.289   4.363 -0.1586 -0.1640  0.1545
 1085PEP     CB39715  18.047  11.429   3.974 -0.1852  0.0602 -0.1851
 1085PEP     CB39716  18.099  11.172   3.639  0.0304  0.1838 -0.1050
 1085PEP     CB39717  17.855  10.756   3.620 -0.1471 -0.3672  0.3822
 1085PEP     CB39718  17.809  10.533   4.026 -0.0636 -0.0423 -0.3350
 1085PEP     CB39719  17.998  10.599   4.407 -0.3384  0.2672 -0.2890
 1085PEP     CB39720  18.317  10.916   4.559  0.0467  0.1233 -0.0263
 1086PEP     CB39721  13.855  18.669  15.094  0.6144 -0.3297  0.4322
 1086PEP     CB39722  14.076  18.688  15.501  0.3663 -0.0448  0.1681
 1086PEP     CB39723  14.295  18.581  15.944 -0.0732 -0.2909 -0.1020
 1086PEP     CB39724  14.241  18.825  16.409  0.2401  0.5471 -0.0897
 1086PEP     CB39725  13.792  18.921  16.608 -0.2273  0.0081 -0.3488
 1086PEP     CB39726  13.477  19.221  16.523 -0.3164  0.2781  0.4987
 1086PEP     CB39727  13.486  19.520  16.188 -0.0825  0.3720  0.3253
 1086PEP     CB39728  13.869  19.541  15.912 -0.1714  0.3740 -0.1979
 1086PEP     CB39729  13.929  19.211  15.620  0.1475 -0.2452 -0.0970
 1086PEP     CB39730  13.774  19.097  15.294 -0.0713  0.3782 -0.3469
 1086PEP     CB39731  13.853  19.111  14.856 -0.0970 -0.1406  0.0637
 1086PEP     CB39732  13.961  19.497  14.587 -0.0858  0.5032  0.1907
 1086PEP     CB39733  14.202  19.941  14.743  0.1318  0.0252  0.3609
 1086PEP     CB39734  14.512  20.194  14.808 -0.0252 -0.1034 -0.0296
 1086PEP     CB39735  14.840  20.382  14.624 -0.0361 -0.0689  0.0144
 1086PEP     CB39736  15.266  20.183  14.610 -0.3176  0.0399 -0.2309
 1086PEP     CB39737  15.472  19.883  14.574 -0.2246  0.2377 -0.0123
 1086PEP     CB39738  15.612  19.510  14.717 -0.4273 -0.0826 -0.3024
 1086PEP     CB39739  15.556  19.372  15.205  0.0927 -0.3057 -0.1233
 1086PEP     CB39740  15.527  19.515  15.607 -0.4810  0.0597  0.2743
 1086PEP     CB39741  15.582  19.879  15.878 -0.3472  0.0919 -0.1481
 1086PEP     CB39742  15.664  20.311  15.797  0.0185 -0.0088  0.0730
 1086PEP     CB39743  15.891  20.594  15.811  0.0826  0.2130 -0.0699
 1086PEP     CB39744  16.179  20.907  15.700  0.2832 -0.3217 -0.2271
 1086PEP     CB39745  16.529  21.090  15.444 -0.0685 -0.3958  0.3801
 1086PEP     CB39746  16.740  21.027  15.001 -0.1111 -0.0121  0.0273
 1086PEP     CB39747  16.949  21.219  14.633  0.2161 -0.0406 -0.1330
 1086PEP     CB39748  17.116  21.649  14.584 -0.2911  0.2158 -0.1375
 1086PEP     CB39749  17.447  21.935  14.667 -0.1962  0.1849  0.0734
 1086PEP     CB39750  17.679  21.865  15.049 -0.0030 -0.0514  0.0099
 1086PEP     CB39751  17.894  21.438  15.256 -0.1640  0.2677  0.0015
 1086PEP     CB39752  17.974  21.021  15.308 -0.2012 -0.0226  0.2018
 1086PEP     CB39753  17.821  20.520  15.307  0.1371 -0.1326  0.1790
 1086PEP     CB39754  17.780  20.084  15.475  0.2456 -0.4242  0.1998
 1086PEP     CB39755  17.721  19.769  15.763  0.1498  0.0061 -0.0838
 1086PEP     CB39756  17.417  19.510  15.828  0.2099 -0.0128  0.0128
 1086PEP     CB39757  17.013  19.411  15.944  0.0230 -0.0244 -0.1326
 1086PEP     CB39758  16.545  19.264  16.071 -0.0574 -0.0208  0.0531
 1086PEP     CB39759  16.205  18.939  16.236 -0.3492 -0.1948  0.0491
 1086PEP     CB39760  15.983  18.626  15.940  0.1353 -0.1518  0.3358
 1087PEP     CB39761  16.540   3.804  13.068  0.0602  0.2752  0.1164
 1087PEP     CB39762  16.743   3.804  12.714 -0.1986  0.1568  0.2397
 1087PEP     CB39763  16.708   4.111  12.383  0.2734  0.1207 -0.4026
 1087PEP     CB39764  17.045   4.462  12.370  0.2453  0.1792  0.1729
 1087PEP     CB39765  17.306   4.597  12.746  0.2664  0.1590  0.2393
 1087PEP     CB39766  17.390   4.644  13.129 -0.1873 -0.1708 -0.0413
 1087PEP     CB39767  17.347   4.438  13.511 -0.3037  0.0436  0.0391
 1087PEP     CB39768  17.114   4.348  13.936  0.3767  0.1991  0.0027
 1087PEP     CB39769  16.697   4.213  14.055 -0.0482  0.0701  0.0239
 1087PEP     CB39770  16.487   3.785  14.024  0.3490  0.0333  0.0949
 1087PEP     CB39771  16.384   3.343  14.324  0.0431 -0.1279 -0.3134
 1087PEP     CB39772  16.087   3.214  14.662 -0.3131 -0.0665 -0.0550
 1087PEP     CB39773  15.710   2.981  14.769  0.1758 -0.2759 -0.0710
 1087PEP     CB39774  15.494   2.611  14.566  0.0385  0.0427  0.0404
 1087PEP     CB39775  15.128   2.369  14.467  0.0152 -0.0227  0.2999
 1087PEP     CB39776  15.089   2.024  14.149 -0.1070 -0.1024 -0.0876
 1087PEP     CB39777  15.256   2.206  13.790  0.2253  0.0724 -0.0388
 1087PEP     CB39778  15.066   2.596  13.576  0.0941  0.2903  0.0864
 1087PEP     CB39779  14.734   2.918  13.832 -0.3174  0.1747 -0.1657
 1087PEP     CB39780  14.466   2.972  14.189 -0.0087 -0.0733  0.1757
 1087PEP     CB39781  14.158   2.911  14.472  0.4350  0.0122  0.0619
 1087PEP     CB39782  14.139   2.956  14.880  0.1642  0.1378 -0.0363
 1087PEP     CB39783  14.374   3.137  15.164 -0.1941  0.2120 -0.2068
 1087PEP     CB39784  14.446   3.111  15.706 -0.3528 -0.0002 -0.0681
 1087PEP     CB39785  14.709   3.047  16.031  0.5456  0.1352 -0.1260
 1087PEP     CB39786  15.012   3.176  16.242  0.1066  0.1690  0.1070
 1087PEP     CB39787  15.453   3.273  16.084  0.1953 -0.2444 -0.2077
 1087PEP     CB39788  15.823   3.448  15.872 -0.0163 -0.0292  0.0708
 1087PEP     CB39789  16.197   3.374  15.909  0.1736 -0.4695  0.2123
 1087PEP     CB39790  16.422   3.111  16.214 -0.2616  0.6619 -0.0363
 1087PEP     CB39791  16.343   2.701  16.371 -0.2875  0.2870 -0.2034
 1087PEP     CB39792  15.895   2.624  16.636  0.0326  0.0867  0.2198
 1087PEP     CB39793  15.488   2.472  16.623  0.0458  0.5228 -0.3128
 1087PEP     CB39794  15.076   2.517  16.862  0.1883  0.1983 -0.3781
 1087PEP     CB39795  14.876   2.937  16.998 -0.2078  0.3023  0.1246
 1087PEP     CB39796  14.618   3.150  16.846  0.1523 -0.6359  0.2794
 1087PEP     CB39797  14.305   3.234  16.554 -0.0578  0.0880  0.3294
 1087PEP     CB39798  14.085   3.098  16.148 -0.0350 -0.2572  0.3205
 1087PEP     CB39799  13.989   2.931  15.727 -0.0808 -0.1953 -0.2545
 1087PEP     CB39800  13.841   2.819  15.286  0.0200 -0.0568 -0.0340
 1088PEP     CB39801   9.357  21.595  21.236 -0.0010  0.0602 -0.3217
 1088PEP     CB39802   9.560  21.476  21.662  0.0203  0.0038 -0.3045
 1088PEP     CB39803   9.718  21.755  22.038  0.0257  0.1314  0.1507
 1088PEP     CB39804   9.281  22.016  22.297  0.1682 -0.0630  0.0779
 1088PEP     CB39805   8.866  22.021  22.244 -0.1415  0.1151 -0.1431
 1088PEP     CB39806   8.611  21.683  22.089 -0.1152 -0.5641 -0.0768
 1088PEP     CB39807   8.497  21.341  22.394  0.1112 -0.3563 -0.0506
 1088PEP     CB39808   8.757  21.146  22.621  0.2898 -0.1929  0.2981
 1088PEP     CB39809   9.019  21.394  22.842 -0.4444  0.1380  0.1430
 1088PEP     CB39810   9.525  21.579  22.681 -0.1378  0.1868 -0.2244
 1088PEP     CB39811   9.717  21.922  22.540 -0.0557  0.0626 -0.3145
 1088PEP     CB39812   9.703  22.276  22.614  0.0337  0.0279 -0.0397
 1088PEP     CB39813   9.653  22.666  22.442 -0.2576  0.2290  0.0935
 1088PEP     CB39814   9.473  23.065  22.267  0.1514  0.2118  0.0238
 1088PEP     CB39815   9.407  23.248  21.889 -0.1289  0.0972 -0.1266
 1088PEP     CB39816   9.172  23.645  21.824 -0.0205  0.3281  0.1270
 1088PEP     CB39817   9.384  23.985  22.036 -0.1204 -0.1831  0.2375
 1088PEP     CB39818   9.595  24.154  22.441 -0.2147  0.0151  0.6252
 1088PEP     CB39819   9.998  24.322  22.561 -0.1266 -0.0116 -0.3476
 1088PEP     CB39820  10.175  24.572  22.254  0.1188 -0.3297 -0.0040
 1088PEP     CB39821   9.900  24.894  22.075  0.2151 -0.0524 -0.5096
 1088PEP     CB39822   9.378  25.178  22.071  0.3329  0.0937 -0.0424
 1088PEP     CB39823   9.100  25.419  22.081 -0.2234 -0.2884  0.0530
 1088PEP     CB39824   9.055  25.804  22.278 -0.0913  0.2966  0.1203
 1088PEP     CB39825   9.031  26.280  22.095 -0.0629  0.0190  0.2441
 1088PEP     CB39826   9.156  26.374  21.794 -0.1300  0.2419 -0.2526
 1088PEP     CB39827   9.328  26.120  21.437  0.4038 -0.1100  0.1592
 1088PEP     CB39828   9.551  25.697  21.508 -0.2150  0.4474 -0.2286
 1088PEP     CB39829   9.873  25.532  21.837 -0.0714  0.1014 -0.0206
 1088PEP     CB39830  10.182  25.647  22.262 -0.2736  0.0615  0.1644
 1088PEP     CB39831  10.674  25.651  22.350  0.2841 -0.4877  0.1363
 1088PEP     CB39832  11.017  25.618  22.165 -0.3435 -0.0358  0.0874
 1088PEP     CB39833  11.358  25.379  21.989  0.0081  0.1130  0.2037
 1088PEP     CB39834  11.711  25.513  21.682  0.0874  0.2439 -0.1403
 1088PEP     CB39835  11.825  25.337  21.364  0.0960  0.1913  0.1265
 1088PEP     CB39836  12.315  25.347  21.236  0.0848  0.1147  0.1040
 1088PEP     CB39837  12.624  25.439  21.572 -0.1228 -0.0821  0.1158
 1088PEP     CB39838  12.844  25.290  21.843  0.2488 -0.1593 -0.3359
 1088PEP     CB39839  13.189  25.088  21.966  0.0507 -0.1215 -0.1910
 1088PEP     CB39840  13.642  24.843  21.935  0.0203  0.1046 -0.3420
 1089PEP     CB39841   1.359  15.497  10.354 -0.3364 -0.1204 -0.2670
 1089PEP     CB39842   1.046  15.224  10.549  0.2375 -0.1094  0.1526
 1089PEP     CB39843   0.599  15.389  10.772  0.2729 -0.1253 -0.2075
 1089PEP     CB39844   0.625  15.784  11.040 -0.0595  0.3048 -0.0602
 1089PEP     CB39845   0.487  16.231  11.091  0.1875  0.2042  0.1941
 1089PEP     CB39846   0.511  16.623  10.898 -0.0092  0.2237 -0.0707
 1089PEP     CB39847   0.306  16.961  10.755 -0.2717 -0.1396  0.4159
 1089PEP     CB39848   0.152  17.288  10.548  0.0488 -0.2337  0.0613
 1089PEP     CB39849  -0.250  17.502  10.523 -0.3446  0.2243  0.0587
 1089PEP     CB39850  -0.583  17.813  10.451  0.1240  0.2238  0.2502
 1089PEP     CB39851  -0.891  18.040  10.706  0.4552  0.1095 -0.2992
 1089PEP     CB39852  -1.358  18.211  10.742 -0.4435 -0.0046  0.2685
 1089PEP     CB39853  -1.504  18.532  10.963 -0.0993 -0.4393 -0.1081
 1089PEP     CB39854  -1.366  18.697  11.312  0.1407 -0.0119  0.3868
 1089PEP     CB39855  -1.074  18.659  11.550 -0.4369  0.0908  0.0149
 1089PEP     CB39856  -0.893  18.438  11.922 -0.1598 -0.2216  0.1920
 1089PEP     CB39857  -1.007  18.452  12.354  0.1362 -0.1180  0.5361
 1089PEP     CB39858  -0.998  18.728  12.739 -0.2156  0.0350  0.1048
 1089PEP     CB39859  -1.246  18.824  13.095  0.3164 -0.2297 -0.0786
 1089PEP     CB39860  -1.580  19.162  13.299  0.2202  0.5315  0.1975
 1089PEP     CB39861  -1.943  19.567  13.394 -0.2082 -0.0646  0.0178
 1089PEP     CB39862  -2.231  19.691  13.148  0.0532  0.2033 -0.0062
 1089PEP     CB39863  -2.414  19.482  12.847 -0.2901  0.4099  0.1980
 1089PEP     CB39864  -2.641  19.258  12.654  0.1050 -0.0883 -0.1102
 1089PEP     CB39865  -2.498  18.777  12.529 -0.1398 -0.1632  0.3662
 1089PEP     CB39866  -2.247  18.484  12.738  0.4332  0.1969 -0.0743
 1089PEP     CB39867  -2.177  18.565  13.168  0.0114  0.1363 -0.0346
 1089PEP     CB39868  -1.997  18.964  13.395  0.2477 -0.2021  0.1540
 1089PEP     CB39869  -1.697  19.052  13.761  0.0137 -0.0354 -0.2010
 1089PEP     CB39870  -1.175  18.766  13.850 -0.0022 -0.0576 -0.0408
 1089PEP     CB39871  -1.037  18.350  13.948 -0.6028 -0.0733 -0.2465
 1089PEP     CB39872  -1.269  17.947  14.164 -0.2214  0.1316 -0.0147
 1089PEP     CB39873  -1.414  17.476  14.171 -0.0909  0.2121 -0.1011
 1089PEP     CB39874  -1.301  17.014  14.050  0.4613 -0.2713  0.3697
 1089PEP     CB39875  -1.268  16.615  14.289  0.4926 -0.0678  0.4056
 1089PEP     CB39876  -1.566  16.454  14.709 -0.1907  0.2387 -0.1726
 1089PEP     CB39877  -1.872  16.659  14.924 -0.3261  0.3509  0.0176
 1089PEP     CB39878  -2.007  17.085  14.773 -0.1089  0.0395 -0.1996
 1089PEP     CB39879  -1.882  17.440  14.611  0.1567  0.3440 -0.0306
 1089PEP     CB39880  -1.656  17.756  14.493  0.5198  0.2106 -0.1901
 1090PEP     CB39881  10.696   2.218   9.662  0.0850 -0.0635 -0.2374
 1090PEP     CB39882  10.680   2.021   9.335 -0.0538  0.1183  0.0283
 1090PEP     CB39883  10.549   1.743   8.955 -0.1185 -0.2142 -0.1038
 1090PEP     CB39884  10.442   1.809   8.543  0.0399  0.3108 -0.0648
 1090PEP     CB39885  10.112   2.122   8.355  0.3617 -0.0121 -0.2652
 1090PEP     CB39886   9.958   2.446   8.698  0.1504  0.2099 -0.0113
 1090PEP     CB39887  10.063   2.433   9.139  0.2538  0.4655  0.2452
 1090PEP     CB39888   9.946   2.588   9.634  0.2573  0.1524 -0.0414
 1090PEP     CB39889   9.722   2.497   9.958 -0.2715  0.0863 -0.2088
 1090PEP     CB39890   9.441   2.341  10.248 -0.0752 -0.1167  0.1562
 1090PEP     CB39891   9.004   2.087  10.351 -0.0365 -0.0340  0.0833
 1090PEP     CB39892   8.674   2.056  10.589  0.1734 -0.4106  0.0923
 1090PEP     CB39893   8.268   2.195  10.772 -0.3837 -0.1238 -0.4663
 1090PEP     CB39894   7.834   2.047  10.860 -0.2009 -0.1144  0.1649
 1090PEP     CB39895   7.496   1.787  10.668 -0.2748 -0.1852 -0.0758
 1090PEP     CB39896   7.588   1.668  10.334  0.2339 -0.7230  0.0216
 1090PEP     CB39897   7.913   1.468  10.072 -0.1770 -0.3335  0.0404
 1090PEP     CB39898   8.288   1.461   9.833  0.2470  0.0769  0.1744
 1090PEP     CB39899   8.671   1.209   9.553 -0.1257  0.1967  0.0208
 1090PEP     CB39900   8.924   0.811   9.618 -0.0493 -0.0820 -0.2791
 1090PEP     CB39901   9.053   0.331   9.674 -0.2036  0.0880 -0.1690
 1090PEP     CB39902   9.392   0.181   9.683 -0.2814 -0.0758  0.1152
 1090PEP     CB39903   9.735   0.354   9.851 -0.1060  0.3433 -0.0813
 1090PEP     CB39904  10.070   0.619   9.884 -0.0212 -0.1983  0.0466
 1090PEP     CB39905  10.437   0.610  10.005 -0.1043  0.1106 -0.2632
 1090PEP     CB39906  10.877   0.419  10.277 -0.3238  0.0098  0.0405
 1090PEP     CB39907  11.150   0.505  10.572  0.1384 -0.0857  0.1009
 1090PEP     CB39908  11.047   0.670  11.035  0.0451 -0.0801 -0.1442
 1090PEP     CB39909  10.818   0.482  11.413 -0.0233 -0.2681  0.0374
 1090PEP     CB39910  10.515   0.295  11.658 -0.1488 -0.3997  0.2893
 1090PEP     CB39911  10.283   0.372  12.037 -0.0616  0.0685  0.0584
 1090PEP     CB39912  10.045   0.655  12.249  0.5710 -0.2406 -0.1825
 1090PEP     CB39913   9.991   1.103  12.365 -0.4910 -0.4094 -0.0172
 1090PEP     CB39914   9.938   1.550  12.230  0.1408 -0.0878  0.1029
 1090PEP     CB39915   9.722   1.672  11.795 -0.3767 -0.2725 -0.0387
 1090PEP     CB39916   9.395   1.499  11.587 -0.1206 -0.0449 -0.3952
 1090PEP     CB39917   9.061   1.096  11.502 -0.1587  0.1614  0.2558
 1090PEP     CB39918   8.912   0.787  11.680  0.0772 -0.2158  0.0981
 1090PEP     CB39919   8.660   0.549  11.998  0.4523  0.2619  0.3541
 1090PEP     CB39920   8.585   0.155  12.157 -0.0404  0.3426 -0.0755
 1091PEP     CB39921   3.780   3.428  15.416  0.1230 -0.2010  0.1239
 1091PEP     CB39922   3.545   3.203  15.114 -0.0697 -0.1376  0.3592
 1091PEP     CB39923   3.406   2.845  14.955 -0.1639 -0.3974 -0.3193
 1091PEP     CB39924   2.981   2.671  14.846  0.0267  0.1292 -0.2547
 1091PEP     CB39925   2.542   2.700  14.882  0.0912  0.1293 -0.0032
 1091PEP     CB39926   2.085   2.632  15.084  0.1012  0.3777  0.3279
 1091PEP     CB39927   1.741   2.791  15.259 -0.1760 -0.4553 -0.2160
 1091PEP     CB39928   1.340   2.602  15.325 -0.0151 -0.0201 -0.0526
 1091PEP     CB39929   1.108   2.201  15.170 -0.1306 -0.0314 -0.3223
 1091PEP     CB39930   0.961   1.959  14.806 -0.1067  0.0477 -0.2935
 1091PEP     CB39931   0.771   2.059  14.433  0.3646 -0.0134 -0.1013
 1091PEP     CB39932   0.774   2.282  14.095 -0.1174 -0.1813  0.1336
 1091PEP     CB39933   1.077   2.578  13.885 -0.4343 -0.1331  0.1312
 1091PEP     CB39934   1.156   2.760  13.519 -0.1362 -0.0150 -0.2910
 1091PEP     CB39935   0.841   2.995  13.367  0.1111 -0.2706  0.2592
 1091PEP     CB39936   0.574   3.253  13.588  0.0338 -0.0331  0.2753
 1091PEP     CB39937   0.247   3.162  13.788 -0.1138 -0.0021  0.6371
 1091PEP     CB39938   0.084   2.691  13.877 -0.3311  0.1646  0.4473
 1091PEP     CB39939   0.128   2.312  13.731 -0.0648 -0.2676 -0.1797
 1091PEP     CB39940   0.337   1.968  13.533 -0.0284  0.0256  0.5394
 1091PEP     CB39941   0.581   1.893  13.321  0.3647  0.3353  0.0530
 1091PEP     CB39942   0.632   1.837  12.836  0.0889  0.3197 -0.2412
 1091PEP     CB39943   0.332   1.889  12.493  0.3885 -0.3138  0.2613
 1091PEP     CB39944  -0.051   2.042  12.441  0.6199 -0.2689  0.0006
 1091PEP     CB39945  -0.515   2.026  12.543 -0.1834  0.0795 -0.0621
 1091PEP     CB39946  -0.866   2.382  12.781  0.0560  0.1237  0.2677
 1091PEP     CB39947  -0.840   2.586  13.164 -0.2700  0.2635 -0.0830
 1091PEP     CB39948  -0.924   2.390  13.575  0.0646  0.1930  0.1031
 1091PEP     CB39949  -0.928   2.116  13.939  0.2621  0.3291  0.1294
 1091PEP     CB39950  -1.241   2.145  14.295 -0.0303 -0.0376  0.2148
 1091PEP     CB39951  -1.625   2.394  14.325  0.3663 -0.2038 -0.4421
 1091PEP     CB39952  -1.854   2.648  14.202 -0.0306 -0.0056  0.0650
 1091PEP     CB39953  -2.255   2.717  14.330 -0.2567 -0.2533 -0.0109
 1091PEP     CB39954  -2.666   2.547  14.418  0.1827 -0.0256 -0.1990
 1091PEP     CB39955  -3.053   2.838  14.475  0.0831 -0.0144  0.2565
 1091PEP     CB39956  -3.137   3.134  14.547  0.1235  0.0633 -0.0713
 1091PEP     CB39957  -3.482   3.414  14.643  0.1837 -0.1644 -0.1088
 1091PEP     CB39958  -3.918   3.392  14.452 -0.3114  0.5302  0.2142
 1091PEP     CB39959  -4.294   3.168  14.320 -0.1124  0.1343 -0.0255
 1091PEP     CB39960  -4.742   3.173  14.098  0.5388 -0.0833 -0.0588
 1092PEP     CB39961  12.192   2.263   0.472 -0.2657  0.0536 -0.3256
 1092PEP     CB39962  12.019   2.577   0.756 -0.1663 -0.0421 -0.3073
 1092PEP     CB39963  11.843   2.914   1.011  0.5448 -0.0698 -0.0069
 1092PEP     CB39964  11.631   2.936   1.461 -0.0787 -0.0547  0.0422
 1092PEP     CB39965  11.453   3.345   1.757 -0.1124 -0.2228  0.0641
 1092PEP     CB39966  11.146   3.612   1.517 -0.4515 -0.0733  0.1519
 1092PEP     CB39967  11.033   4.093   1.571 -0.1115  0.0507  0.2311
 1092PEP     CB39968  11.128   4.403   1.324 -0.2252 -0.1129  0.4215
 1092PEP     CB39969  11.296   4.340   0.927 -0.1819  0.1271  0.2086
 1092PEP     CB39970  11.457   4.332   0.480 -0.2168  0.0082  0.1382
 1092PEP     CB39971  11.547   4.006   0.234  0.4720 -0.1529 -0.1599
 1092PEP     CB39972  11.472   3.814  -0.148  0.0556 -0.1560  0.0553
 1092PEP     CB39973  11.554   3.855  -0.569 -0.0329  0.4556  0.0966
 1092PEP     CB39974  11.481   3.610  -0.984  0.0224 -0.2183 -0.1626
 1092PEP     CB39975  11.385   3.558  -1.287 -0.3779 -0.2761  0.3889
 1092PEP     CB39976  11.013   3.429  -1.507  0.1287  0.3110  0.4044
 1092PEP     CB39977  10.587   3.461  -1.321  0.0513 -0.2556 -0.1871
 1092PEP     CB39978  10.453   3.410  -0.901  0.1374  0.2012  0.0946
 1092PEP     CB39979  10.137   3.342  -0.636  0.1023  0.0696  0.1762
 1092PEP     CB39980   9.771   3.109  -0.565  0.0007  0.3827  0.0882
 1092PEP     CB39981   9.726   2.686  -0.517  0.2131 -0.0866  0.0238
 1092PEP     CB39982   9.520   2.536  -0.192  0.0629 -0.0994  0.3212
 1092PEP     CB39983   9.647   2.589   0.317 -0.1469 -0.0514 -0.4237
 1092PEP     CB39984  10.025   2.917   0.497  0.0596  0.1361  0.0572
 1092PEP     CB39985  10.498   3.101   0.363  0.2088 -0.3026 -0.3879
 1092PEP     CB39986  10.916   3.086   0.196  0.1217 -0.4041  0.0305
 1092PEP     CB39987  11.259   2.809   0.262 -0.2980  0.3377 -0.1023
 1092PEP     CB39988  11.647   2.587   0.391  0.2766 -0.1716 -0.1327
 1092PEP     CB39989  11.671   2.137   0.601 -0.0677  0.1609  0.0333
 1092PEP     CB39990  11.388   1.893   0.582  0.1111 -0.1883 -0.1192
 1092PEP     CB39991  10.957   1.968   0.725  0.1308 -0.0176 -0.1293
 1092PEP     CB39992  10.558   2.267   0.536 -0.1154  0.0575  0.1633
 1092PEP     CB39993  10.412   2.700   0.756 -0.0751  0.1474 -0.0095
 1092PEP     CB39994  10.335   2.818   1.156  0.0790  0.0740 -0.1846
 1092PEP     CB39995  10.476   2.686   1.606 -0.0358 -0.1538 -0.0523
 1092PEP     CB39996  10.863   2.856   1.816  0.1649 -0.0292  0.1731
 1092PEP     CB39997  11.320   2.791   1.820  0.3283  0.0170 -0.3283
 1092PEP     CB39998  11.678   2.691   2.108  0.0069  0.1583 -0.0169
 1092PEP     CB39999  12.024   2.327   2.251  0.4072 -0.0836  0.0802
 1092PEP     CB40000  12.564   2.370   2.295 -0.0433 -0.0287 -0.2083
 1093PEP     CB40001   5.832   9.509  15.437  0.1220 -0.2079  0.3244
 1093PEP     CB40002   5.670   9.413  15.884 -0.3714  0.1121  0.0877
 1093PEP     CB40003   5.744   9.410  16.317 -0.0957 -0.1697 -0.1042
 1093PEP     CB40004   5.728   9.048  16.604  0.4801  0.2343 -0.2671
 1093PEP     CB40005   6.104   8.795  16.594  0.3240  0.2146 -0.1974
 1093PEP     CB40006   6.435   9.034  16.558 -0.1841  0.0688 -0.0153
 1093PEP     CB40007   6.381   9.327  16.226  0.1096 -0.2171  0.1201
 1093PEP     CB40008   6.097   9.264  16.036  0.1859  0.1168  0.1979
 1093PEP     CB40009   5.744   8.926  16.116  0.1539  0.1176  0.1163
 1093PEP     CB40010   5.715   8.541  16.460 -0.0004 -0.0030 -0.1374
 1093PEP     CB40011   5.995   8.178  16.569 -0.0508 -0.0409 -0.4350
 1093PEP     CB40012   6.362   8.104  16.785  0.2153  0.0569  0.1443
 1093PEP     CB40013   6.801   8.166  16.573  0.3554  0.1962 -0.1342
 1093PEP     CB40014   7.120   8.239  16.262 -0.2677  0.2957  0.2044
 1093PEP     CB40015   7.243   8.310  15.832 -0.5199  0.0737  0.1560
 1093PEP     CB40016   7.287   8.412  15.426 -0.0046  0.0870  0.0353
 1093PEP     CB40017   7.343   8.740  15.205  0.0206  0.1543 -0.0942
 1093PEP     CB40018   7.314   9.291  15.077 -0.0419 -0.1345  0.2304
 1093PEP     CB40019   7.543   9.598  15.214 -0.1372  0.0380  0.3660
 1093PEP     CB40020   7.954   9.608  15.382 -0.0606 -0.1049  0.2019
 1093PEP     CB40021   8.343   9.353  15.324  0.1209 -0.1239 -0.3005
 1093PEP     CB40022   8.753   9.082  15.593 -0.0902  0.2777 -0.0995
 1093PEP     CB40023   8.727   9.126  16.128 -0.0670 -0.1902 -0.5869
 1093PEP     CB40024   8.519   9.459  16.331 -0.1348  0.1345 -0.0706
 1093PEP     CB40025   8.073   9.704  16.408  0.0531  0.1200 -0.1712
 1093PEP     CB40026   7.862   9.912  16.081  0.0214  0.0635 -0.0744
 1093PEP     CB40027   7.721   9.665  15.792 -0.4425  0.0705 -0.4004
 1093PEP     CB40028   7.934   9.256  15.765 -0.0423  0.2807 -0.1342
 1093PEP     CB40029   8.308   9.187  15.781 -0.2052 -0.1534 -0.3377
 1093PEP     CB40030   8.663   9.486  15.848  0.0652 -0.0932 -0.1149
 1093PEP     CB40031   9.008   9.531  16.162 -0.2344 -0.2659 -0.2175
 1093PEP     CB40032   9.087   9.157  16.498  0.2876 -0.2410  0.2906
 1093PEP     CB40033   9.160   8.787  16.309  0.0908  0.2719  0.0139
 1093PEP     CB40034   9.110   8.781  15.842 -0.0033 -0.3251  0.3194
 1093PEP     CB40035   9.361   9.137  15.688 -0.1335  0.1528  0.3500
 1093PEP     CB40036   9.677   9.420  15.753  0.1423 -0.0065 -0.0755
 1093PEP     CB40037   9.749   9.836  15.830  0.3250 -0.2133  0.1457
 1093PEP     CB40038   9.609  10.227  15.724 -0.2509 -0.0099 -0.0270
 1093PEP     CB40039   9.204  10.482  15.690 -0.1937  0.0079  0.1070
 1093PEP     CB40040   8.753  10.538  15.843  0.1598 -0.1120 -0.2678
 1094PEP     CB40041  12.789   3.299  16.004 -0.1718 -0.1756  0.0717
 1094PEP     CB40042  12.544   3.174  16.459 -0.1134 -0.0143  0.3306
 1094PEP     CB40043  12.394   3.139  16.845  0.0499 -0.1836  0.1083
 1094PEP     CB40044  12.396   3.383  17.130 -0.1698  0.4118 -0.2899
 1094PEP     CB40045  12.428   3.862  17.060 -0.0086 -0.3692 -0.2312
 1094PEP     CB40046  12.367   4.106  16.663  0.1606 -0.3955  0.1498
 1094PEP     CB40047  12.184   3.953  16.205 -0.1920 -0.0528  0.2174
 1094PEP     CB40048  12.117   3.822  15.814  0.1291  0.1031  0.0177
 1094PEP     CB40049  12.418   3.998  15.591 -0.0010  0.0301 -0.1476
 1094PEP     CB40050  12.727   4.268  15.770 -0.2082  0.2408  0.0360
 1094PEP     CB40051  12.918   4.583  15.865 -0.3104 -0.3183 -0.2737
 1094PEP     CB40052  13.092   4.811  16.148 -0.2031  0.2537 -0.1003
 1094PEP     CB40053  13.104   4.875  16.541  0.1423 -0.1834 -0.1227
 1094PEP     CB40054  12.812   5.152  16.912  0.1778  0.2299  0.3085
 1094PEP     CB40055  12.735   5.551  16.866 -0.2305  0.2662 -0.0211
 1094PEP     CB40056  12.546   5.823  16.519  0.0641  0.2644 -0.0337
 1094PEP     CB40057  12.268   5.751  16.110 -0.3832 -0.1865  0.0731
 1094PEP     CB40058  11.780   5.607  16.097 -0.0353 -0.0754 -0.4191
 1094PEP     CB40059  11.338   5.418  16.028 -0.3137  0.0647 -0.1488
 1094PEP     CB40060  11.034   5.184  16.221  0.4181 -0.0622  0.2033
 1094PEP     CB40061  10.797   4.824  16.254  0.1226  0.1057  0.0692
 1094PEP     CB40062  10.414   4.806  16.075 -0.1560  0.0238  0.0785
 1094PEP     CB40063  10.054   5.061  15.843 -0.2637  0.0498 -0.0057
 1094PEP     CB40064   9.593   5.057  15.909  0.4806 -0.0933 -0.1193
 1094PEP     CB40065   9.122   4.856  15.989  0.1525 -0.2131 -0.2820
 1094PEP     CB40066   9.023   4.552  16.264 -0.2482  0.1117 -0.1897
 1094PEP     CB40067   8.944   4.266  16.586  0.3405  0.1514  0.4526
 1094PEP     CB40068   8.828   4.132  16.931  0.3307  0.1520 -0.1090
 1094PEP     CB40069   8.377   4.213  17.215  0.1125  0.3359  0.0775
 1094PEP     CB40070   8.044   4.420  17.424  0.0257  0.2069 -0.3271
 1094PEP     CB40071   7.924   4.744  17.673  0.0838  0.3586  0.2309
 1094PEP     CB40072   7.472   4.900  17.728 -0.4965  0.4281  0.2936
 1094PEP     CB40073   7.318   5.160  17.614 -0.2243 -0.1953 -0.2200
 1094PEP     CB40074   7.484   5.494  17.366  0.3424 -0.1381  0.0341
 1094PEP     CB40075   7.814   5.738  17.270  0.2934  0.3420 -0.2559
 1094PEP     CB40076   8.095   5.986  17.098 -0.0844 -0.2416 -0.1665
 1094PEP     CB40077   8.418   6.278  17.272  0.0101  0.3382  0.2957
 1094PEP     CB40078   8.540   6.598  17.498  0.0900 -0.1296 -0.0325
 1094PEP     CB40079   8.558   7.021  17.749  0.0896  0.2219 -0.1272
 1094PEP     CB40080   8.797   7.407  17.806  0.2907  0.0583 -0.0148
 1095PEP     CB40081  10.161  20.562   8.234 -0.1228 -0.0342  0.2621
 1095PEP     CB40082   9.766  20.363   8.292  0.1715 -0.2717  0.1859
 1095PEP     CB40083   9.553  20.234   8.642  0.1855  0.0090  0.1058
 1095PEP     CB40084   9.366  20.176   9.050  0.1657 -0.0158 -0.0703
 1095PEP     CB40085   9.330  19.838   9.285  0.4093  0.2350 -0.1019
 1095PEP     CB40086   9.074  19.641   9.672 -0.3527 -0.6159  0.1146
 1095PEP     CB40087   8.736  19.776   9.931 -0.3993  0.3472  0.1620
 1095PEP     CB40088   8.302  19.748  10.133  0.1938 -0.1237 -0.0347
 1095PEP     CB40089   7.995  19.494  10.408  0.1435 -0.2591  0.2420
 1095PEP     CB40090   7.642  19.262  10.368 -0.0576  0.4491 -0.1215
 1095PEP     CB40091   7.224  19.188  10.264  0.0336 -0.2695  0.0258
 1095PEP     CB40092   6.806  19.408  10.304 -0.0969  0.2426 -0.2708
 1095PEP     CB40093   6.697  19.808  10.646 -0.0002 -0.3980 -0.0646
 1095PEP     CB40094   6.746  19.857  11.037  0.0727 -0.2173  0.0813
 1095PEP     CB40095   6.896  19.542  11.305  0.2795  0.1622 -0.1878
 1095PEP     CB40096   6.941  19.278  11.745 -0.0823 -0.0581  0.5923
 1095PEP     CB40097   7.158  19.329  12.093  0.0909 -0.1756  0.1426
 1095PEP     CB40098   7.522  19.379  12.422  0.2103 -0.1586  0.3989
 1095PEP     CB40099   7.949  19.332  12.259 -0.3014  0.2491  0.2536
 1095PEP     CB40100   8.012  19.562  11.882 -0.1057  0.1468  0.1144
 1095PEP     CB40101   7.756  19.615  11.493  0.0959 -0.1899 -0.0228
 1095PEP     CB40102   7.422  19.354  11.302  0.3774 -0.1807 -0.0740
 1095PEP     CB40103   7.270  19.012  11.222 -0.2562 -0.0036 -0.0367
 1095PEP     CB40104   7.375  18.607  11.064  0.1095 -0.1331 -0.0676
 1095PEP     CB40105   7.604  18.236  11.160 -0.0442 -0.2528 -0.1807
 1095PEP     CB40106   7.970  18.029  11.099 -0.0352 -0.1040 -0.2380
 1095PEP     CB40107   8.385  17.940  10.903 -0.1823  0.1729 -0.1721
 1095PEP     CB40108   8.812  17.609  10.922  0.2317  0.5412 -0.2120
 1095PEP     CB40109   8.938  17.124  10.792 -0.3735  0.4291 -0.2467
 1095PEP     CB40110   8.840  16.895  10.487 -0.0232 -0.2130  0.1074
 1095PEP     CB40111   8.896  16.907  10.027  0.0724  0.2716  0.1459
 1095PEP     CB40112   9.049  16.767   9.653 -0.2827  0.0841 -0.5523
 1095PEP     CB40113   8.894  16.584   9.281 -0.1639  0.5069 -0.1404
 1095PEP     CB40114   8.586  16.549   8.980  0.3416  0.2456  0.1014
 1095PEP     CB40115   8.209  16.709   8.808  0.2766  0.0179  0.0618
 1095PEP     CB40116   7.939  16.848   8.423 -0.0854 -0.1126  0.1268
 1095PEP     CB40117   7.961  16.810   8.079 -0.0469 -0.1442  0.3327
 1095PEP     CB40118   8.248  16.642   7.821  0.2029  0.0948 -0.0062
 1095PEP     CB40119   8.700  16.558   7.907  0.0727 -0.0837  0.2251
 1095PEP     CB40120   9.074  16.357   7.892 -0.2235 -0.2859 -0.0866
 1096PEP     CB40121   3.247   1.790  16.950  0.0560 -0.5233 -0.2654
 1096PEP     CB40122   2.889   1.925  17.223 -0.1870  0.0652  0.3382
 1096PEP     CB40123   2.508   1.929  17.431 -0.0230  0.1285 -0.2247
 1096PEP     CB40124   2.133   1.976  17.650  0.0284  0.2646  0.2421
 1096PEP     CB40125   2.176   2.143  18.143  0.1896  0.2321 -0.2418
 1096PEP     CB40126   2.442   2.037  18.537 -0.0103  0.1577 -0.0710
 1096PEP     CB40127   2.567   2.021  18.870 -0.2572 -0.3518  0.1780
 1096PEP     CB40128   2.874   2.045  19.111  0.0428  0.1165  0.3391
 1096PEP     CB40129   3.282   1.862  18.954 -0.1791  0.0956 -0.2536
 1096PEP     CB40130   3.408   1.848  18.606  0.3031  0.1262 -0.2490
 1096PEP     CB40131   3.263   1.789  18.249 -0.1076 -0.2092 -0.0524
 1096PEP     CB40132   3.278   1.473  17.887  0.2453  0.1184  0.4034
 1096PEP     CB40133   3.387   1.424  17.437  0.2456 -0.3415 -0.0611
 1096PEP     CB40134   3.709   1.560  17.249 -0.6430 -0.3487  0.0511
 1096PEP     CB40135   4.063   1.628  16.911  0.0669 -0.0487 -0.3479
 1096PEP     CB40136   4.274   1.433  16.658  0.0250 -0.2455  0.1245
 1096PEP     CB40137   4.378   1.147  16.294  0.2273 -0.1534 -0.0148
 1096PEP     CB40138   4.359   0.604  16.343  0.1495  0.1803 -0.2016
 1096PEP     CB40139   4.241   0.179  16.397  0.0043  0.1727 -0.1808
 1096PEP     CB40140   4.132  -0.222  16.311 -0.0506  0.1277 -0.0100
 1096PEP     CB40141   4.013  -0.598  16.124  0.1443  0.1145 -0.1232
 1096PEP     CB40142   3.658  -0.606  15.772 -0.1678 -0.0669  0.0405
 1096PEP     CB40143   3.540  -0.330  15.560  0.1287 -0.0906  0.3133
 1096PEP     CB40144   3.680   0.129  15.613 -0.2156  0.1256  0.1042
 1096PEP     CB40145   3.830   0.375  15.971 -0.0483  0.1051  0.0033
 1096PEP     CB40146   3.745   0.261  16.367 -0.0204 -0.0041 -0.1687
 1096PEP     CB40147   3.436   0.134  16.726  0.0327  0.2119 -0.1642
 1096PEP     CB40148   3.009   0.096  16.891  0.0552  0.0642  0.0212
 1096PEP     CB40149   2.723   0.392  16.984 -0.2621 -0.3885 -0.2357
 1096PEP     CB40150   2.886   0.673  17.250  0.5654  0.0966 -0.3446
 1096PEP     CB40151   2.737   1.115  17.519 -0.2244 -0.3705 -0.3825
 1096PEP     CB40152   2.464   1.319  17.688  0.4657 -0.0191 -0.2010
 1096PEP     CB40153   2.096   1.470  17.903  0.3429 -0.2838  0.2892
 1096PEP     CB40154   2.092   1.470  18.327 -0.0368  0.2707 -0.4564
 1096PEP     CB40155   2.209   1.621  18.717  0.3232 -0.0926  0.2185
 1096PEP     CB40156   2.099   1.520  19.080  0.0241 -0.4854 -0.0254
 1096PEP     CB40157   1.730   1.306  19.092 -0.1939  0.1909 -0.2578
 1096PEP     CB40158   1.378   1.480  18.937  0.0009 -0.0761  0.2984
 1096PEP     CB40159   0.891   1.583  18.862  0.3950  0.1472 -0.0199
 1096PEP     CB40160   0.477   1.550  18.715 -0.1688  0.1244 -0.0736
 1097PEP     CB40161  20.875  10.850  10.595 -0.2647  0.1062 -0.0841
 1097PEP     CB40162  20.589  11.076  10.375 -0.3140 -0.1792  0.0278
 1097PEP     CB40163  20.149  11.234  10.317 -0.1091  0.0809  0.0278
 1097PEP     CB40164  19.998  11.524  10.264  0.1910 -0.1646  0.1449
 1097PEP     CB40165  20.287  11.895  10.284  0.1089 -0.0144  0.3303
 1097PEP     CB40166  20.668  11.892  10.420 -0.0495  0.1227 -0.0928
 1097PEP     CB40167  20.902  11.487  10.590  0.1291 -0.4347  0.2242
 1097PEP     CB40168  20.936  11.279  10.924  0.2870 -0.3061  0.0670
 1097PEP     CB40169  21.088  10.845  11.157  0.1923 -0.3747 -0.0488
 1097PEP     CB40170  21.266  10.425  11.358  0.2701  0.4051  0.3125
 1097PEP     CB40171  21.358   9.998  11.434 -0.4892  0.1632  0.1773
 1097PEP     CB40172  21.282   9.532  11.498 -0.1072 -0.1133  0.2872
 1097PEP     CB40173  21.223   9.104  11.615  0.4302  0.0134 -0.0049
 1097PEP     CB40174  21.304   8.674  11.817 -0.1723 -0.1811  0.0071
 1097PEP     CB40175  21.608   8.400  12.021  0.0798  0.0083 -0.0479
 1097PEP     CB40176  21.944   8.351  12.196 -0.0283  0.3929 -0.0584
 1097PEP     CB40177  22.354   8.209  12.174  0.0465  0.1939  0.0768
 1097PEP     CB40178  22.784   8.291  12.177 -0.1617  0.2137 -0.2656
 1097PEP     CB40179  23.127   8.441  12.229 -0.2299  0.1088 -0.0369
 1097PEP     CB40180  23.541   8.618  12.200  0.0949 -0.2248 -0.0655
 1097PEP     CB40181  24.008   8.514  12.203  0.2827  0.2772  0.2485
 1097PEP     CB40182  24.436   8.697  12.282 -0.0651 -0.3193  0.0030
 1097PEP     CB40183  24.782   8.493  12.413  0.3557  0.1855 -0.1820
 1097PEP     CB40184  24.968   8.120  12.540  0.0202  0.1605  0.2579
 1097PEP     CB40185  25.047   7.850  12.864  0.3699 -0.0494  0.1962
 1097PEP     CB40186  24.909   7.517  13.095 -0.3830 -0.1159 -0.4035
 1097PEP     CB40187  24.957   7.190  13.333  0.0908 -0.3590  0.2068
 1097PEP     CB40188  24.979   6.766  13.255  0.2962 -0.2435 -0.4440
 1097PEP     CB40189  24.941   6.348  13.136  0.3986  0.0112  0.1068
 1097PEP     CB40190  25.108   5.942  13.122 -0.1740  0.0645 -0.1096
 1097PEP     CB40191  25.174   5.486  12.865  0.0550  0.0225 -0.2349
 1097PEP     CB40192  25.388   5.098  12.745  0.0805 -0.0662  0.2018
 1097PEP     CB40193  25.684   5.044  12.381 -0.3200 -0.3212 -0.0785
 1097PEP     CB40194  25.781   5.378  12.125 -0.1601 -0.2655 -0.2747
 1097PEP     CB40195  25.983   5.814  12.081 -0.1206  0.0906  0.0491
 1097PEP     CB40196  26.139   6.267  12.370  0.2479  0.1331 -0.1085
 1097PEP     CB40197  26.000   6.691  12.262  0.2806  0.3685  0.0138
 1097PEP     CB40198  25.917   6.928  11.820 -0.0847  0.4257 -0.2079
 1097PEP     CB40199  25.685   6.965  11.487  0.1378 -0.0103 -0.2586
 1097PEP     CB40200  25.354   6.982  11.206 -0.0508  0.0185  0.2537
 1098PEP     CB40201  17.764   5.449  14.966  0.0695 -0.2078 -0.3033
 1098PEP     CB40202  18.111   5.190  14.831 -0.0138 -0.2460 -0.3758
 1098PEP     CB40203  18.402   4.937  14.790  0.1930  0.3362 -0.1012
 1098PEP     CB40204  18.731   4.906  14.666 -0.0883 -0.2610  0.1386
 1098PEP     CB40205  19.131   4.978  14.803  0.1832  0.6834  0.0926
 1098PEP     CB40206  19.357   5.350  14.840 -0.0080  0.0655  0.3078
 1098PEP     CB40207  19.189   5.751  14.719  0.5793  0.4871 -0.2539
 1098PEP     CB40208  18.800   5.823  14.546  0.1896  0.4907 -0.1750
 1098PEP     CB40209  18.348   5.869  14.617 -0.0728 -0.3487  0.2544
 1098PEP     CB40210  18.084   6.279  14.525  0.1642  0.3568 -0.0434
 1098PEP     CB40211  17.955   6.606  14.193  0.0716  0.1711 -0.0442
 1098PEP     CB40212  17.794   6.849  13.862  0.3040  0.0235  0.2690
 1098PEP     CB40213  17.419   6.845  13.637 -0.0110  0.0184 -0.2254
 1098PEP     CB40214  17.070   7.118  13.735 -0.3322 -0.1286  0.0582
 1098PEP     CB40215  16.822   7.478  13.628  0.1093  0.2949 -0.2149
 1098PEP     CB40216  16.656   7.675  13.309  0.3323 -0.0178 -0.0103
 1098PEP     CB40217  16.549   7.393  12.920  0.1826  0.0055 -0.1895
 1098PEP     CB40218  16.482   7.053  12.574 -0.2146  0.0144 -0.1637
 1098PEP     CB40219  16.708   6.725  12.275 -0.1778  0.0960 -0.0955
 1098PEP     CB40220  16.794   6.597  11.895 -0.1851 -0.0148 -0.3380
 1098PEP     CB40221  16.792   6.688  11.445 -0.0348  0.1509 -0.1863
 1098PEP     CB40222  16.707   6.938  11.074 -0.0067 -0.1359  0.1208
 1098PEP     CB40223  16.657   7.150  10.657 -0.0913 -0.0751 -0.0880
 1098PEP     CB40224  16.473   7.413  10.376  0.4256 -0.3013  0.1008
 1098PEP     CB40225  16.229   7.731  10.259 -0.1138 -0.0617  0.4516
 1098PEP     CB40226  16.076   8.085  10.154  0.3041  0.3387 -0.2504
 1098PEP     CB40227  15.844   8.459  10.205  0.2618  0.1026  0.1303
 1098PEP     CB40228  15.818   8.929  10.309 -0.3467 -0.0572  0.2139
 1098PEP     CB40229  16.081   9.133  10.477  0.2767  0.3198 -0.2042
 1098PEP     CB40230  16.426   9.158  10.210  0.1550 -0.2101  0.2445
 1098PEP     CB40231  16.474   8.830   9.929 -0.0323  0.1491 -0.1707
 1098PEP     CB40232  16.140   8.643   9.814 -0.3668 -0.2780 -0.2682
 1098PEP     CB40233  15.721   8.700   9.833 -0.2398  0.3438  0.3065
 1098PEP     CB40234  15.373   8.812   9.937 -0.0157  0.4655 -0.2131
 1098PEP     CB40235  15.420   9.144  10.210  0.4425  0.2364 -0.0752
 1098PEP     CB40236  15.701   9.409  10.435 -0.3423 -0.2560  0.2980
 1098PEP     CB40237  15.983   9.783  10.565  0.3042 -0.3030 -0.0291
 1098PEP     CB40238  16.001  10.142  10.666 -0.1852  0.0077  0.3486
 1098PEP     CB40239  16.320  10.473  10.527 -0.1314 -0.2056 -0.0083
 1098PEP     CB40240  16.413  10.657  10.150 -0.0535  0.1869  0.0317
 1099PEP     CB40241  12.148   9.823   4.396  0.2282 -0.5716 -0.1713
 1099PEP     CB40242  12.262   9.741   4.830 -0.0337  0.1108 -0.3200
 1099PEP     CB40243  12.372   9.885   5.167 -0.0997  0.2935  0.4093
 1099PEP     CB40244  12.452  10.342   5.327 -0.0521 -0.2302 -0.2422
 1099PEP     CB40245  12.386  10.724   4.994 -0.0561 -0.2920 -0.1136
 1099PEP     CB40246  12.088  10.683   4.651  0.1910 -0.0018  0.0360
 1099PEP     CB40247  11.958  10.309   4.428  0.1337  0.1237  0.3249
 1099PEP     CB40248  11.918  10.022   4.017  0.3828  0.2547 -0.1321
 1099PEP     CB40249  11.658   9.752   3.759 -0.2507 -0.1581 -0.2744
 1099PEP     CB40250  11.364   9.688   3.550  0.2482 -0.1026  0.2804
 1099PEP     CB40251  11.175   9.620   3.131 -0.4164  0.4338  0.0295
 1099PEP     CB40252  10.813   9.654   2.879  0.3849 -0.2803 -0.0606
 1099PEP     CB40253  10.529   9.405   2.884  0.2183 -0.0688 -0.3295
 1099PEP     CB40254  10.307   9.003   2.814 -0.2985 -0.1551  0.0969
 1099PEP     CB40255  10.135   8.886   2.489 -0.1663 -0.0122 -0.0707
 1099PEP     CB40256   9.756   9.038   2.329  0.1925 -0.2443 -0.2035
 1099PEP     CB40257   9.410   8.987   2.026  0.1366  0.1658 -0.0180
 1099PEP     CB40258   9.056   8.830   1.779  0.0080  0.0250 -0.0840
 1099PEP     CB40259   8.702   8.852   1.438 -0.3875 -0.5526 -0.0915
 1099PEP     CB40260   8.562   8.823   0.939 -0.1854  0.2050 -0.0736
 1099PEP     CB40261   8.758   8.926   0.502  0.3199 -0.2944 -0.1113
 1099PEP     CB40262   9.099   9.055   0.213 -0.3176  0.1234 -0.0072
 1099PEP     CB40263   9.258   9.479   0.036  0.1867  0.0259  0.1284
 1099PEP     CB40264   9.187   9.865   0.064 -0.0037  0.1026 -0.0040
 1099PEP     CB40265   8.911  10.254  -0.052  0.3058 -0.0939  0.0680
 1099PEP     CB40266   8.539  10.501  -0.317 -0.5638  0.1423 -0.1392
 1099PEP     CB40267   8.116  10.472  -0.609 -0.0041  0.0003 -0.3360
 1099PEP     CB40268   7.806  10.491  -0.874 -0.2684  0.0987  0.2323
 1099PEP     CB40269   7.776  10.301  -1.302  0.0055  0.3418 -0.2224
 1099PEP     CB40270   7.610   9.834  -1.345 -0.1610 -0.5533  0.4102
 1099PEP     CB40271   7.484   9.422  -1.185  0.3248 -0.1959  0.1829
 1099PEP     CB40272   7.376   9.067  -0.939 -0.5249 -0.2950  0.4064
 1099PEP     CB40273   7.288   9.030  -0.370  0.2013  0.0573  0.3229
 1099PEP     CB40274   7.381   8.855   0.068 -0.0769 -0.0182  0.2686
 1099PEP     CB40275   7.676   8.721   0.366 -0.3280  0.0944  0.1266
 1099PEP     CB40276   7.919   8.643   0.775  0.4704  0.0076  0.2265
 1099PEP     CB40277   7.762   8.589   1.211  0.0300 -0.0425  0.0902
 1099PEP     CB40278   7.492   8.901   1.495 -0.0340 -0.0416  0.1078
 1099PEP     CB40279   7.444   9.374   1.534  0.4177  0.0304 -0.0015
 1099PEP     CB40280   7.203   9.706   1.436  0.0407 -0.0775  0.1486
 1100PEP     CB40281  14.085  21.102   5.655  0.0799  0.1696  0.0573
 1100PEP     CB40282  13.962  20.713   5.489 -0.3696  0.0849 -0.0438
 1100PEP     CB40283  13.557  20.540   5.292  0.2973  0.1382 -0.1450
 1100PEP     CB40284  13.224  20.848   5.238 -0.1571 -0.0454  0.1460
 1100PEP     CB40285  13.275  21.301   5.398  0.0063  0.0669 -0.1970
 1100PEP     CB40286  13.193  21.445   5.843 -0.0963  0.0205 -0.0482
 1100PEP     CB40287  12.855  21.427   6.155 -0.0463 -0.0938 -0.0015
 1100PEP     CB40288  12.752  21.036   6.330 -0.1298  0.5191  0.0647
 1100PEP     CB40289  12.752  20.654   6.130  0.1796  0.0479  0.0040
 1100PEP     CB40290  12.928  20.293   5.993  0.2762  0.4298 -0.4760
 1100PEP     CB40291  12.843  19.862   5.877  0.0704  0.0574  0.2720
 1100PEP     CB40292  13.150  19.499   5.793  0.3018  0.1768  0.0159
 1100PEP     CB40293  13.254  19.141   5.506  0.3907 -0.2657  0.3231
 1100PEP     CB40294  13.246  18.777   5.392  0.5154  0.3847  0.1424
 1100PEP     CB40295  13.293  18.391   5.233 -0.2066 -0.2398 -0.1527
 1100PEP     CB40296  13.094  17.964   5.353  0.0854  0.0450 -0.1190
 1100PEP     CB40297  12.871  17.570   5.605  0.0078  0.0104  0.2150
 1100PEP     CB40298  12.670  17.465   5.995 -0.3334 -0.4055  0.0074
 1100PEP     CB40299  12.356  17.327   6.258  0.5448 -0.0735 -0.0767
 1100PEP     CB40300  12.155  16.985   6.433  0.2920 -0.0795  0.1399
 1100PEP     CB40301  12.076  16.581   6.689 -0.0638 -0.4038 -0.3224
 1100PEP     CB40302  11.993  16.342   7.044 -0.1695 -0.4341 -0.0325
 1100PEP     CB40303  12.025  16.368   7.455  0.0816 -0.2528 -0.2257
 1100PEP     CB40304  12.295  16.619   7.725 -0.1577  0.2922  0.5440
 1100PEP     CB40305  12.416  17.073   7.568  0.4030 -0.0246 -0.2689
 1100PEP     CB40306  12.744  17.420   7.333  0.3466  0.0113  0.3730
 1100PEP     CB40307  13.198  17.285   6.966 -0.2564 -0.5848  0.2632
 1100PEP     CB40308  13.581  17.321   6.731 -0.2434  0.1842  0.1298
 1100PEP     CB40309  14.033  17.269   6.582 -0.2156 -0.4281 -0.0568
 1100PEP     CB40310  14.517  17.336   6.601  0.2834 -0.0224  0.2126
 1100PEP     CB40311  14.773  17.309   6.273  0.2403  0.1638  0.4523
 1100PEP     CB40312  14.977  16.924   5.866 -0.0389 -0.1759  0.1110
 1100PEP     CB40313  15.262  16.737   5.600 -0.5379  0.5835  0.0683
 1100PEP     CB40314  15.749  16.546   5.492  0.1853 -0.1476 -0.2113
 1100PEP     CB40315  16.187  16.347   5.337 -0.4345 -0.1881 -0.4138
 1100PEP     CB40316  16.554  16.352   5.540 -0.1742 -0.2825 -0.2023
 1100PEP     CB40317  16.993  16.544   5.551 -0.0977 -0.0241  0.0105
 1100PEP     CB40318  16.991  16.990   5.589 -0.0297  0.0425 -0.0444
 1100PEP     CB40319  16.618  17.212   5.689 -0.1574  0.1580  0.1047
 1100PEP     CB40320  16.204  17.308   5.754  0.1273  0.1518  0.0732
 1101PEP     CB40321  20.708  19.757  20.362  0.2296 -0.0383  0.2162
 1101PEP     CB40322  20.311  19.878  20.518  0.1584 -0.0031 -0.0673
 1101PEP     CB40323  19.870  19.994  20.687  0.1855  0.1887  0.0032
 1101PEP     CB40324  19.509  20.255  20.430 -0.0254  0.2797 -0.1156
 1101PEP     CB40325  19.211  20.549  20.145  0.4085  0.0234  0.0748
 1101PEP     CB40326  18.936  20.682  19.796  0.2423 -0.0691  0.0451
 1101PEP     CB40327  18.575  20.705  19.630 -0.3282  0.0993 -0.1353
 1101PEP     CB40328  18.458  20.585  19.150 -0.2130  0.1128  0.1926
 1101PEP     CB40329  18.756  20.643  18.829  0.0788 -0.0074  0.0363
 1101PEP     CB40330  19.040  21.072  18.932 -0.2630  0.2961  0.0086
 1101PEP     CB40331  18.762  21.504  19.039  0.4435 -0.3296 -0.2146
 1101PEP     CB40332  18.274  21.586  19.008  0.5169  0.3175  0.2361
 1101PEP     CB40333  17.861  21.339  19.154 -0.0276 -0.1167 -0.0942
 1101PEP     CB40334  17.446  21.392  19.395  0.0915  0.0196 -0.3136
 1101PEP     CB40335  17.116  21.537  19.266  0.0102 -0.2202 -0.2155
 1101PEP     CB40336  16.772  21.706  19.386  0.0651 -0.1660 -0.1320
 1101PEP     CB40337  16.444  21.503  19.679  0.3608  0.1059  0.1058
 1101PEP     CB40338  16.252  21.047  19.668 -0.0852 -0.0350 -0.2916
 1101PEP     CB40339  16.170  20.646  19.650 -0.2349  0.0531  0.3108
 1101PEP     CB40340  16.284  20.189  19.547 -0.3689 -0.1896 -0.0674
 1101PEP     CB40341  16.033  19.846  19.748  0.1582  0.0481  0.4488
 1101PEP     CB40342  15.738  19.699  19.986 -0.0084  0.2091  0.0130
 1101PEP     CB40343  15.466  19.648  20.403  0.1918 -0.0337  0.3719
 1101PEP     CB40344  15.395  19.731  20.835  0.4006  0.2653 -0.1248
 1101PEP     CB40345  15.646  19.721  21.241  0.2285 -0.3842 -0.0131
 1101PEP     CB40346  16.128  19.831  21.363  0.0168  0.3600 -0.1217
 1101PEP     CB40347  16.399  20.183  21.337  0.0310 -0.1317 -0.1049
 1101PEP     CB40348  16.351  20.599  21.172  0.4390 -0.0018  0.0400
 1101PEP     CB40349  16.249  21.032  21.257 -0.1904 -0.2205  0.7590
 1101PEP     CB40350  16.081  21.394  21.489  0.0519  0.1590 -0.0763
 1101PEP     CB40351  16.102  21.869  21.682 -0.3249 -0.0697  0.2545
 1101PEP     CB40352  16.043  21.957  22.113 -0.0517  0.2304 -0.0281
 1101PEP     CB40353  16.096  22.271  22.424  0.3340 -0.1824 -0.1615
 1101PEP     CB40354  15.918  22.441  22.790  0.0884 -0.3557 -0.1006
 1101PEP     CB40355  15.721  22.322  23.118  0.0145  0.0129  0.2542
 1101PEP     CB40356  15.301  22.168  23.375 -0.1332  0.1019 -0.1125
 1101PEP     CB40357  14.956  22.078  23.670  0.3816 -0.3987 -0.1216
 1101PEP     CB40358  14.486  22.014  23.702  0.0889  0.2077  0.1812
 1101PEP     CB40359  14.092  21.856  23.446 -0.0961 -0.0049 -0.1579
 1101PEP     CB40360  13.712  21.642  23.174  0.1985  0.1338 -0.0088
 1102PEP     CB40361  19.739  19.484   4.700 -0.3667 -0.2582 -0.0759
 1102PEP     CB40362  19.860  19.374   4.352  0.0989  0.0256 -0.0489
 1102PEP     CB40363  20.171  19.541   3.993  0.1843 -0.0547  0.1512
 1102PEP     CB40364  20.469  19.580   3.823  0.0925  0.0758  0.3819
 1102PEP     CB40365  20.757  19.935   3.915 -0.0943  0.1783  0.2341
 1102PEP     CB40366  20.561  20.329   3.995 -0.0264 -0.1393  0.0679
 1102PEP     CB40367  20.122  20.604   3.803 -0.0750  0.0909 -0.2015
 1102PEP     CB40368  19.854  20.731   3.415 -0.2160  0.0679  0.0745
 1102PEP     CB40369  19.574  20.579   3.032 -0.2105  0.1643 -0.0631
 1102PEP     CB40370  19.457  20.669   2.617  0.1847  0.1851 -0.1003
 1102PEP     CB40371  19.430  20.872   2.304  0.1610  0.0350 -0.3615
 1102PEP     CB40372  19.372  21.003   1.765 -0.2067  0.0880  0.2521
 1102PEP     CB40373  19.717  21.081   1.491 -0.2010 -0.1385  0.1142
 1102PEP     CB40374  20.161  21.178   1.528 -0.1779  0.1809 -0.2315
 1102PEP     CB40375  20.404  21.362   1.323 -0.3872  0.1889  0.0654
 1102PEP     CB40376  20.395  21.797   1.281  0.2595 -0.3017 -0.0044
 1102PEP     CB40377  20.222  22.130   1.391  0.2251 -0.3662  0.0727
 1102PEP     CB40378  20.035  22.308   1.786  0.0728 -0.2112 -0.0512
 1102PEP     CB40379  19.691  22.066   2.006  0.0728 -0.2355  0.2390
 1102PEP     CB40380  19.304  21.826   2.075 -0.0533  0.2633  0.2020
 1102PEP     CB40381  19.010  21.484   1.941  0.3347 -0.1622  0.1202
 1102PEP     CB40382  18.770  21.208   1.792  0.0834  0.0490 -0.0706
 1102PEP     CB40383  18.572  20.965   1.518  0.2520 -0.0672  0.2332
 1102PEP     CB40384  18.394  20.845   1.156  0.1017  0.2101  0.1572
 1102PEP     CB40385  17.895  20.777   1.129 -0.0730 -0.0279 -0.1863
 1102PEP     CB40386  17.429  20.567   1.060 -0.4109  0.2835  0.1778
 1102PEP     CB40387  17.208  20.130   1.133  0.4108 -0.0788 -0.0089
 1102PEP     CB40388  17.244  19.753   1.251 -0.0608 -0.0597 -0.0163
 1102PEP     CB40389  17.473  19.383   1.214 -0.0740  0.0851 -0.2045
 1102PEP     CB40390  17.759  19.281   0.894 -0.0443  0.0271  0.0083
 1102PEP     CB40391  17.694  19.421   0.421 -0.4165 -0.3378  0.1893
 1102PEP     CB40392  17.439  19.615   0.245  0.2048 -0.0690  0.0606
 1102PEP     CB40393  17.058  19.758   0.432  0.3592  0.2883 -0.3438
 1102PEP     CB40394  16.916  19.646   0.904  0.0686  0.4233  0.1165
 1102PEP     CB40395  16.915  19.368   1.305  0.4485 -0.3137  0.1276
 1102PEP     CB40396  17.121  19.242   1.627  0.0561  0.0101  0.2385
 1102PEP     CB40397  17.255  18.977   1.991 -0.0004  0.3173 -0.3624
 1102PEP     CB40398  17.547  18.612   2.102 -0.1645  0.0581  0.0185
 1102PEP     CB40399  17.802  18.569   2.462  0.4879  0.0714 -0.3517
 1102PEP     CB40400  18.202  18.406   2.371  0.0300 -0.1506  0.2205
 1103PEP     CB40401   1.120  19.601  21.449  0.1300 -0.4459 -0.2839
 1103PEP     CB40402   1.112  20.018  21.609  0.3170  0.1315  0.0241
 1103PEP     CB40403   1.050  20.348  21.905  0.0747  0.0673  0.1505
 1103PEP     CB40404   1.139  20.777  21.876 -0.0734  0.0608 -0.5261
 1103PEP     CB40405   1.445  21.054  21.821 -0.1684 -0.4096 -0.2339
 1103PEP     CB40406   1.840  20.990  21.618 -0.2346  0.1886  0.2877
 1103PEP     CB40407   2.130  20.741  21.387 -0.2753  0.1260  0.0804
 1103PEP     CB40408   2.475  20.576  21.178  0.3157 -0.2247 -0.2089
 1103PEP     CB40409   2.672  20.541  20.848  0.0715  0.0506  0.3979
 1103PEP     CB40410   2.960  20.813  20.585  0.5099  0.3007 -0.3533
 1103PEP     CB40411   3.215  21.046  20.349 -0.0346  0.0428 -0.0560
 1103PEP     CB40412   3.380  21.438  20.196  0.0957  0.0755 -0.3028
 1103PEP     CB40413   3.434  21.918  20.107 -0.1319  0.1679  0.2327
 1103PEP     CB40414   3.600  22.366  20.246 -0.1111 -0.8052  0.1716
 1103PEP     CB40415   3.578  22.780  20.468 -0.1053  0.0579  0.0232
 1103PEP     CB40416   3.212  23.038  20.542 -0.3256 -0.2544 -0.0967
 1103PEP     CB40417   2.852  22.949  20.401 -0.4328 -0.0383  0.2001
 1103PEP     CB40418   2.572  22.616  20.337  0.0928 -0.5769  0.1627
 1103PEP     CB40419   2.149  22.493  20.245 -0.1372 -0.0101 -0.4224
 1103PEP     CB40420   1.738  22.432  20.343 -0.1898 -0.1513 -0.0460
 1103PEP     CB40421   1.521  22.228  20.708 -0.0936  0.5683  0.0132
 1103PEP     CB40422   1.382  21.825  20.964  0.1754 -0.0135 -0.3163
 1103PEP     CB40423   1.250  21.499  21.275 -0.1816 -0.0289  0.4652
 1103PEP     CB40424   1.357  21.045  21.254  0.2540 -0.1873  0.2989
 1103PEP     CB40425   1.709  20.898  21.092  0.2814 -0.2380  0.2761
 1103PEP     CB40426   1.808  21.054  20.579  0.0258  0.1219  0.3310
 1103PEP     CB40427   1.765  21.217  20.221  0.5423  0.0447 -0.1375
 1103PEP     CB40428   1.490  21.453  19.977  0.1475  0.0182  0.1347
 1103PEP     CB40429   1.226  21.494  19.556 -0.0648  0.0267 -0.1105
 1103PEP     CB40430   0.894  21.554  19.339 -0.1110  0.3060  0.0373
 1103PEP     CB40431   0.513  21.262  19.279  0.1262  0.0228 -0.4659
 1103PEP     CB40432   0.238  21.180  19.055  0.2268 -0.0569  0.3413
 1103PEP     CB40433   0.094  21.225  18.673 -0.0872  0.4636 -0.8051
 1103PEP     CB40434  -0.177  21.462  18.461 -0.1030  0.0269  0.4047
 1103PEP     CB40435  -0.250  21.943  18.502 -0.1710  0.2382  0.0922
 1103PEP     CB40436  -0.133  22.179  18.868 -0.0121  0.2564  0.2514
 1103PEP     CB40437   0.195  22.496  19.060  0.2570 -0.0371  0.1733
 1103PEP     CB40438   0.515  22.653  18.855  0.1167  0.8544 -0.2711
 1103PEP     CB40439   0.713  22.831  18.394  0.4072 -0.2559  0.1212
 1103PEP     CB40440   1.018  23.145  18.159 -0.3666  0.0931  0.1149
 1104PEP     CB40441  18.782   8.107  16.736  0.0551 -0.1203 -0.1151
 1104PEP     CB40442  18.951   7.684  16.660  0.6555 -0.1510 -0.1764
 1104PEP     CB40443  19.155   7.412  16.910 -0.1291  0.0252 -0.2336
 1104PEP     CB40444  19.307   7.576  17.303 -0.2844  0.3314  0.1850
 1104PEP     CB40445  19.686   7.700  17.388  0.0516  0.0417  0.2747
 1104PEP     CB40446  20.048   7.769  17.194 -0.1579  0.2459 -0.2710
 1104PEP     CB40447  20.309   7.445  17.026  0.0022 -0.0156 -0.0266
 1104PEP     CB40448  20.764   7.209  16.873 -0.0936 -0.0243 -0.1118
 1104PEP     CB40449  21.187   7.270  16.797 -0.1179  0.1835 -0.2334
 1104PEP     CB40450  21.318   7.270  16.354 -0.0768 -0.0673 -0.1100
 1104PEP     CB40451  21.420   6.870  16.126 -0.0462 -0.1147 -0.0515
 1104PEP     CB40452  21.264   6.432  16.292  0.0622  0.2110  0.2062
 1104PEP     CB40453  20.926   6.214  16.381  0.1658 -0.0287  0.1856
 1104PEP     CB40454  20.552   6.081  16.185  0.4519 -0.1493  0.0666
 1104PEP     CB40455  20.488   6.234  15.695 -0.0711  0.0772 -0.2879
 1104PEP     CB40456  20.399   6.224  15.289  0.1111  0.1303 -0.0251
 1104PEP     CB40457  19.987   6.499  14.990 -0.1068 -0.3798 -0.0612
 1104PEP     CB40458  19.656   6.671  14.788  0.0705 -0.4141 -0.6153
 1104PEP     CB40459  19.673   7.105  14.692  0.0443  0.0175  0.0768
 1104PEP     CB40460  19.954   7.483  14.769 -0.4647  0.1930  0.2560
 1104PEP     CB40461  20.164   7.835  14.719 -0.0831  0.0858 -0.0134
 1104PEP     CB40462  20.400   7.895  14.351  0.4051 -0.2133 -0.1728
 1104PEP     CB40463  20.796   7.664  14.177 -0.0737  0.5792  0.0060
 1104PEP     CB40464  21.107   7.531  13.887 -0.1827  0.3388 -0.2013
 1104PEP     CB40465  21.483   7.375  13.766 -0.0198  0.1003  0.0778
 1104PEP     CB40466  21.841   7.081  13.854 -0.1825 -0.2343  0.0548
 1104PEP     CB40467  21.948   6.744  13.770 -0.0780 -0.2330 -0.1858
 1104PEP     CB40468  22.237   6.367  13.640 -0.2998  0.1497  0.0980
 1104PEP     CB40469  22.384   5.997  13.912  0.1848  0.0914  0.7231
 1104PEP     CB40470  22.456   6.010  14.350  0.1067  0.1117 -0.1547
 1104PEP     CB40471  22.237   6.254  14.693  0.0283 -0.0609  0.3654
 1104PEP     CB40472  21.972   6.641  14.661  0.0520 -0.2850  0.0362
 1104PEP     CB40473  21.852   7.050  14.385 -0.1000 -0.0736 -0.2086
 1104PEP     CB40474  21.746   7.492  14.184 -0.2149 -0.2171  0.0709
 1104PEP     CB40475  21.962   7.784  13.902  0.0352 -0.3380 -0.1933
 1104PEP     CB40476  22.168   7.804  13.600  0.3265  0.1691  0.3343
 1104PEP     CB40477  22.541   7.808  13.328  0.2197 -0.3131  0.8947
 1104PEP     CB40478  22.628   7.797  12.784  0.1526 -0.0143  0.0469
 1104PEP     CB40479  22.730   7.818  12.334 -0.0695  0.0937 -0.4232
 1104PEP     CB40480  22.623   7.821  11.948 -0.0919  0.1767 -0.4249
 1105PEP     CB40481   4.323  19.549  18.564  0.1660  0.0020 -0.1127
 1105PEP     CB40482   4.508  19.871  18.229 -0.0479  0.0114  0.0166
 1105PEP     CB40483   4.807  20.029  17.977  0.1245 -0.1166 -0.2849
 1105PEP     CB40484   5.123  19.893  17.612  0.2295  0.1621  0.1788
 1105PEP     CB40485   5.214  19.645  17.392  0.1835  0.4009  0.0737
 1105PEP     CB40486   5.328  19.632  16.910  0.0169 -0.3810 -0.0238
 1105PEP     CB40487   5.165  19.789  16.551 -0.1677  0.3043  0.0966
 1105PEP     CB40488   5.018  19.946  16.256  0.0070  0.0634 -0.3016
 1105PEP     CB40489   4.858  19.892  15.867  0.0693  0.2469 -0.2614
 1105PEP     CB40490   4.980  19.925  15.473  0.3592  0.1184  0.4282
 1105PEP     CB40491   5.213  19.961  15.068  0.0193  0.2388  0.0951
 1105PEP     CB40492   5.214  19.879  14.520 -0.2957 -0.4965  0.1639
 1105PEP     CB40493   4.976  20.059  14.157 -0.0582 -0.0884 -0.1540
 1105PEP     CB40494   4.697  19.976  13.876 -0.0267 -0.0056  0.0168
 1105PEP     CB40495   4.456  19.917  13.435 -0.0976  0.3501  0.0719
 1105PEP     CB40496   4.351  20.018  13.001 -0.3518 -0.1341  0.3973
 1105PEP     CB40497   4.305  20.248  12.622  0.0430  0.0757  0.0772
 1105PEP     CB40498   4.126  20.302  12.251  0.1447  0.0466  0.2260
 1105PEP     CB40499   3.933  19.896  12.112  0.0397 -0.0224 -0.0183
 1105PEP     CB40500   4.059  19.419  12.201 -0.3844 -0.1144 -0.1404
 1105PEP     CB40501   4.291  19.126  12.479 -0.1580  0.1255 -0.1567
 1105PEP     CB40502   4.430  18.671  12.705 -0.0347 -0.2044  0.2887
 1105PEP     CB40503   4.614  18.202  12.736  0.4447 -0.1388 -0.2966
 1105PEP     CB40504   4.729  17.951  13.050 -0.2010  0.1583  0.2464
 1105PEP     CB40505   4.951  17.636  13.321 -0.0887  0.2299 -0.3801
 1105PEP     CB40506   5.300  17.400  13.638 -0.3647 -0.1682  0.1230
 1105PEP     CB40507   5.292  17.163  14.026  0.0044  0.0688  0.0723
 1105PEP     CB40508   5.293  16.781  14.289 -0.5136 -0.0322  0.0822
 1105PEP     CB40509   5.180  16.414  14.269 -0.1561  0.3739 -0.1255
 1105PEP     CB40510   5.319  15.947  14.349  0.2806 -0.2107  0.2273
 1105PEP     CB40511   5.431  15.480  14.506 -0.0952  0.6267 -0.0903
 1105PEP     CB40512   5.716  15.206  14.566  0.3125  0.0518  0.4733
 1105PEP     CB40513   5.840  14.899  14.811  0.2134  0.5396  0.1336
 1105PEP     CB40514   5.800  14.478  15.086  0.1927 -0.2559  0.0911
 1105PEP     CB40515   5.575  14.105  15.187 -0.1835 -0.1358  0.4706
 1105PEP     CB40516   5.312  13.681  15.225 -0.0937 -0.0732 -0.2198
 1105PEP     CB40517   5.310  13.370  15.001 -0.3822 -0.3027 -0.4778
 1105PEP     CB40518   5.301  13.032  14.662 -0.1820 -0.4146  0.3572
 1105PEP     CB40519   5.192  12.538  14.661  0.0544  0.1598  0.0773
 1105PEP     CB40520   5.061  12.319  14.916 -0.4347 -0.3327 -0.0644
 1106PEP     CB40521   4.398   6.610   1.281 -0.7205  0.0648  0.4516
 1106PEP     CB40522   4.859   6.754   1.225 -0.1569 -0.0930 -0.0266
 1106PEP     CB40523   5.054   6.970   0.770 -0.0529 -0.1590 -0.1696
 1106PEP     CB40524   4.904   7.120   0.400 -0.0462  0.0930  0.0623
 1106PEP     CB40525   4.947   7.332   0.005  0.2255  0.0084 -0.1564
 1106PEP     CB40526   5.041   7.113  -0.336  0.2362 -0.4406  0.0464
 1106PEP     CB40527   4.701   6.717  -0.509 -0.1523  0.1891  0.3963
 1106PEP     CB40528   4.234   6.698  -0.577  0.0426  0.1789 -0.0144
 1106PEP     CB40529   3.861   6.874  -0.814  0.2846  0.0489  0.1230
 1106PEP     CB40530   3.526   6.904  -1.082  0.2109 -0.1395  0.3161
 1106PEP     CB40531   3.143   6.808  -1.391 -0.2421  0.0263 -0.2153
 1106PEP     CB40532   2.884   6.660  -1.790  0.1293 -0.0328  0.3568
 1106PEP     CB40533   2.904   6.789  -2.220  0.1468 -0.1322 -0.0085
 1106PEP     CB40534   3.199   6.971  -2.506 -0.0160 -0.2419  0.1422
 1106PEP     CB40535   3.545   7.007  -2.584  0.0051  0.1422 -0.1263
 1106PEP     CB40536   3.962   7.072  -2.641 -0.0887  0.3899  0.5622
 1106PEP     CB40537   4.280   6.842  -2.533 -0.0319 -0.1337 -0.1453
 1106PEP     CB40538   4.325   6.351  -2.343 -0.1276  0.2572  0.2109
 1106PEP     CB40539   4.159   6.170  -1.959 -0.0961  0.0658  0.2262
 1106PEP     CB40540   3.713   6.072  -1.901  0.0600 -0.4075 -0.3219
 1106PEP     CB40541   3.369   6.038  -2.311  0.1068  0.4915 -0.2864
 1106PEP     CB40542   3.401   6.061  -2.758 -0.1667  0.0958 -0.3043
 1106PEP     CB40543   3.667   6.008  -3.079 -0.1432 -0.2864 -0.0702
 1106PEP     CB40544   4.028   5.719  -3.257 -0.0768 -0.3784  0.0359
 1106PEP     CB40545   4.103   5.593  -3.655 -0.1266 -0.0920 -0.0975
 1106PEP     CB40546   3.926   5.467  -4.104 -0.2496  0.2276  0.0421
 1106PEP     CB40547   3.798   5.091  -4.215 -0.2080 -0.2207  0.1511
 1106PEP     CB40548   3.840   4.876  -4.652  0.0833  0.1769  0.2816
 1106PEP     CB40549   3.632   5.039  -5.075 -0.2392 -0.1541  0.0638
 1106PEP     CB40550   3.627   5.468  -5.121 -0.4263  0.1269 -0.3041
 1106PEP     CB40551   4.011   5.760  -5.077 -0.1175 -0.0217 -0.1122
 1106PEP     CB40552   4.167   6.166  -5.191  0.1025  0.0264  0.3626
 1106PEP     CB40553   4.644   6.487  -5.224  0.5350  0.0566 -0.2262
 1106PEP     CB40554   4.835   6.544  -4.820  0.2725  0.2315 -0.0006
 1106PEP     CB40555   4.752   6.255  -4.396 -0.2255  0.1850 -0.0708
 1106PEP     CB40556   4.474   6.005  -4.222  0.1882 -0.1986  0.0812
 1106PEP     CB40557   4.109   5.931  -3.970  0.2732 -0.4175  0.0845
 1106PEP     CB40558   3.980   6.286  -3.625  0.1219  0.0753 -0.2922
 1106PEP     CB40559   3.710   6.433  -3.360 -0.0946  0.3183  0.0241
 1106PEP     CB40560   3.344   6.469  -3.101 -0.3921 -0.0565  0.0009
 1107PEP     CB40561  10.248  21.784   2.170  0.0257  0.0983 -0.1146
 1107PEP     CB40562   9.805  21.888   1.972  0.2695 -0.1763  0.1471
 1107PEP     CB40563   9.467  21.870   1.668 -0.1350 -0.0751 -0.2796
 1107PEP     CB40564   9.389  21.562   1.341 -0.4205 -0.2525  0.1011
 1107PEP     CB40565   9.651  21.295   1.200 -0.1481 -0.3146 -0.5144
 1107PEP     CB40566  10.005  21.469   0.940 -0.0626  0.1434  0.5736
 1107PEP     CB40567  10.172  21.889   0.835  0.0893  0.1948 -0.0775
 1107PEP     CB40568  10.195  22.328   0.724 -0.0469 -0.3697 -0.1969
 1107PEP     CB40569  10.184  22.589   0.434 -0.1497 -0.2757  0.1382
 1107PEP     CB40570  10.066  22.790   0.111 -0.3369 -0.0964 -0.1889
 1107PEP     CB40571   9.936  23.048  -0.290 -0.1774  0.3523  0.1555
 1107PEP     CB40572  10.068  23.196  -0.659 -0.3487  0.6044 -0.0845
 1107PEP     CB40573  10.226  23.360  -1.096 -0.2889  0.2246 -0.1847
 1107PEP     CB40574  10.330  23.248  -1.521  0.2744 -0.1902 -0.1977
 1107PEP     CB40575  10.329  23.214  -2.023 -0.2834  0.0034 -0.0929
 1107PEP     CB40576  10.247  23.328  -2.481 -0.1988 -0.1675  0.0175
 1107PEP     CB40577   9.941  23.675  -2.646 -0.1161 -0.0770 -0.0884
 1107PEP     CB40578   9.715  24.133  -2.589 -0.1959 -0.3001  0.2439
 1107PEP     CB40579   9.630  24.372  -2.356 -0.1594 -0.0673 -0.0876
 1107PEP     CB40580   9.912  24.336  -1.996 -0.5119  0.0965 -0.1597
 1107PEP     CB40581  10.368  24.398  -1.965  0.4694 -0.3208 -0.0313
 1107PEP     CB40582  10.767  24.655  -2.105  0.0752 -0.2275 -0.3189
 1107PEP     CB40583  11.148  24.825  -2.456  0.2088  0.4480 -0.1931
 1107PEP     CB40584  11.351  25.179  -2.579 -0.0928 -0.1917 -0.2246
 1107PEP     CB40585  11.376  25.642  -2.672 -0.1619  0.2027  0.2200
 1107PEP     CB40586  11.160  26.058  -2.902 -0.2585 -0.0201  0.2466
 1107PEP     CB40587  10.823  26.396  -2.979  0.1804 -0.0796 -0.1619
 1107PEP     CB40588  10.379  26.225  -3.045 -0.0170 -0.1260 -0.1118
 1107PEP     CB40589  10.071  26.198  -2.829 -0.0840 -0.1280  0.2735
 1107PEP     CB40590   9.692  26.122  -2.599 -0.0121 -0.5000  0.2189
 1107PEP     CB40591   9.378  25.826  -2.490  0.0410 -0.1537 -0.2852
 1107PEP     CB40592   9.479  25.489  -2.350  0.3459  0.3789 -0.1215
 1107PEP     CB40593   9.742  25.317  -2.613  0.1191  0.1263  0.1328
 1107PEP     CB40594   9.686  25.175  -3.129  0.3189 -0.0458 -0.3509
 1107PEP     CB40595   9.611  25.063  -3.571 -0.0642 -0.1606 -0.0276
 1107PEP     CB40596   9.587  24.627  -3.751 -0.0392  0.1251  0.3796
 1107PEP     CB40597   9.888  24.204  -3.681 -0.1696 -0.1053 -0.2324
 1107PEP     CB40598  10.158  23.822  -3.766  0.0452 -0.2307  0.4734
 1107PEP     CB40599  10.263  23.395  -3.665 -0.2699  0.0341 -0.2036
 1107PEP     CB40600  10.494  23.061  -3.360 -0.0796  0.0510  0.1332
 1108PEP     CB40601  14.872   5.285   8.945  0.2428  0.0383 -0.0339
 1108PEP     CB40602  14.412   5.205   8.974  0.2783 -0.0974 -0.0246
 1108PEP     CB40603  14.052   5.335   8.876 -0.2514 -0.0835  0.0663
 1108PEP     CB40604  13.677   5.460   8.713 -0.1229  0.0063 -0.0077
 1108PEP     CB40605  13.231   5.299   8.734  0.2851  0.0748  0.0349
 1108PEP     CB40606  12.838   5.473   8.598  0.0041  0.0371  0.1446
 1108PEP     CB40607  12.844   5.975   8.685  0.0912  0.0376  0.1969
 1108PEP     CB40608  13.251   6.226   8.877  0.0657  0.1602  0.0587
 1108PEP     CB40609  13.577   6.071   9.118 -0.4456 -0.4131  0.2485
 1108PEP     CB40610  13.729   5.636   9.236  0.2445  0.5885 -0.2270
 1108PEP     CB40611  13.430   5.302   9.154 -0.4321  0.1730  0.6230
 1108PEP     CB40612  12.996   5.262   9.289  0.0857  0.2290  0.6179
 1108PEP     CB40613  12.614   5.468   9.407 -0.2330 -0.1593  0.0259
 1108PEP     CB40614  12.100   5.402   9.406 -0.5531  0.0265 -0.1349
 1108PEP     CB40615  11.720   5.087   9.328 -0.2004 -0.1181 -0.0744
 1108PEP     CB40616  11.474   4.746   9.379 -0.1344  0.0142 -0.2258
 1108PEP     CB40617  11.217   4.399   9.425 -0.2113  0.0680  0.0396
 1108PEP     CB40618  10.986   4.070   9.192  0.0213 -0.0406 -0.1920
 1108PEP     CB40619  10.666   4.150   8.905  0.0181  0.1601  0.4123
 1108PEP     CB40620  10.631   4.248   8.421 -0.4962  0.0792  0.1135
 1108PEP     CB40621  10.827   4.559   8.231 -0.1020 -0.0375 -0.1473
 1108PEP     CB40622  11.017   4.972   8.073  0.2464 -0.4174 -0.2443
 1108PEP     CB40623  11.373   5.266   8.030  0.0341  0.1751 -0.2474
 1108PEP     CB40624  11.519   5.675   7.931  0.3467  0.1179 -0.1121
 1108PEP     CB40625  11.690   6.114   7.946  0.1496  0.1447 -0.2093
 1108PEP     CB40626  12.050   6.197   7.922  0.3241 -0.5803  0.0036
 1108PEP     CB40627  12.305   5.840   7.690 -0.0468 -0.1481  0.0323
 1108PEP     CB40628  12.195   5.531   7.452 -0.0699  0.0092  0.3647
 1108PEP     CB40629  12.047   5.173   7.308  0.0665 -0.0567  0.0410
 1108PEP     CB40630  11.917   4.825   7.292  0.1060  0.2798 -0.3260
 1108PEP     CB40631  12.117   4.547   7.319  0.1601 -0.2461  0.2385
 1108PEP     CB40632  12.595   4.449   7.404 -0.2337 -0.6374 -0.3542
 1108PEP     CB40633  13.074   4.450   7.378 -0.1493  0.3635 -0.1035
 1108PEP     CB40634  13.532   4.385   7.372 -0.0143  0.1405  0.4267
 1108PEP     CB40635  13.933   4.094   7.310 -0.4185 -0.0897 -0.0050
 1108PEP     CB40636  14.275   3.860   7.273 -0.3949 -0.1341 -0.1061
 1108PEP     CB40637  14.524   3.568   6.825  0.0882  0.2713  0.0229
 1108PEP     CB40638  14.540   3.600   6.422  0.1420  0.0436  0.2325
 1108PEP     CB40639  14.199   3.746   6.228  0.0943 -0.1305 -0.1786
 1108PEP     CB40640  13.796   3.998   6.404  0.1516  0.0418  0.0889
 1109PEP     CB40641   3.640  21.468   7.870 -0.1180  0.2582  0.1333
 1109PEP     CB40642   3.610  21.530   8.304  0.3671 -0.2208  0.0327
 1109PEP     CB40643   3.912  21.620   8.693 -0.1911 -0.0748  0.4551
 1109PEP     CB40644   4.350  21.428   8.877  0.2599  0.1452 -0.2206
 1109PEP     CB40645   4.483  21.424   9.280  0.0525  0.2072 -0.2545
 1109PEP     CB40646   4.506  21.710   9.603  0.1599  0.1672  0.0494
 1109PEP     CB40647   4.775  22.125   9.713 -0.2596  0.4503 -0.0108
 1109PEP     CB40648   4.906  22.547   9.922  0.0298  0.5054  0.0275
 1109PEP     CB40649   4.968  23.071   9.915  0.0372  0.0661 -0.2723
 1109PEP     CB40650   4.661  23.380   9.914  0.0816 -0.0232  0.1496
 1109PEP     CB40651   4.339  23.611  10.149 -0.2752  0.0754  0.2164
 1109PEP     CB40652   4.134  23.464  10.537  0.0230  0.1805  0.2938
 1109PEP     CB40653   3.714  23.542  10.841 -0.2194  0.1885 -0.0397
 1109PEP     CB40654   3.315  23.508  11.048  0.2266  0.2171  0.1606
 1109PEP     CB40655   2.932  23.261  11.037  0.3528  0.3689 -0.4044
 1109PEP     CB40656   2.785  22.929  10.971 -0.3157 -0.0773 -0.1851
 1109PEP     CB40657   2.696  22.553  10.689 -0.2778  0.0032 -0.1717
 1109PEP     CB40658   2.864  22.316  10.317  0.2424 -0.0013  0.1166
 1109PEP     CB40659   2.914  22.305   9.842  0.0839  0.0868  0.4313
 1109PEP     CB40660   2.743  22.335   9.444  0.5321  0.1063 -0.0313
 1109PEP     CB40661   2.501  22.299   8.985  0.3533 -0.2073 -0.0558
 1109PEP     CB40662   2.351  22.047   8.655  0.0054 -0.3404  0.0975
 1109PEP     CB40663   1.978  21.986   8.418 -0.3011 -0.0777 -0.0644
 1109PEP     CB40664   1.500  22.011   8.357 -0.4731  0.0570 -0.2916
 1109PEP     CB40665   1.311  22.241   8.020 -0.2835  0.0024 -0.0303
 1109PEP     CB40666   1.026  22.526   7.769 -0.1081 -0.0884  0.2229
 1109PEP     CB40667   0.744  22.904   7.833  0.1816 -0.3232 -0.1070
 1109PEP     CB40668   0.578  23.312   8.079 -0.2409  0.1076  0.0130
 1109PEP     CB40669   0.530  23.722   7.984  0.0064 -0.1801  0.0552
 1109PEP     CB40670   0.414  24.131   7.809 -0.0970 -0.1034  0.0854
 1109PEP     CB40671   0.717  24.371   7.531  0.0525 -0.2901 -0.2949
 1109PEP     CB40672   1.166  24.391   7.658  0.1335 -0.4774 -0.2649
 1109PEP     CB40673   1.345  24.247   8.055 -0.2110  0.0757  0.1415
 1109PEP     CB40674   1.067  24.115   8.356  0.1062 -0.1181 -0.1036
 1109PEP     CB40675   0.629  24.033   8.402 -0.0925 -0.2760  0.0480
 1109PEP     CB40676   0.300  24.320   8.256  0.0793  0.1948  0.2625
 1109PEP     CB40677   0.052  24.674   8.166 -0.4324  0.1426  0.2863
 1109PEP     CB40678   0.061  25.041   7.942 -0.2646 -0.2485 -0.3386
 1109PEP     CB40679  -0.284  25.142   7.564 -0.2029 -0.7014  0.1907
 1109PEP     CB40680  -0.592  25.282   7.300 -0.4178 -0.1045  0.0141
 1110PEP     CB40681  19.831   9.292  18.393 -0.2114 -0.0135  0.0681
 1110PEP     CB40682  19.509   9.633  18.096  0.0174 -0.1860  0.1252
 1110PEP     CB40683  19.435   9.941  17.703 -0.1323  0.3951 -0.2907
 1110PEP     CB40684  19.595   9.841  17.269 -0.0760  0.2767 -0.0040
 1110PEP     CB40685  19.957   9.620  17.093  0.3967 -0.3145 -0.1019
 1110PEP     CB40686  20.363   9.824  17.292  0.0380 -0.2286  0.1086
 1110PEP     CB40687  20.468   9.939  17.688  0.1535  0.0343 -0.1692
 1110PEP     CB40688  20.752  10.186  17.782 -0.2457 -0.3222  0.0860
 1110PEP     CB40689  21.183  10.368  17.960 -0.0826 -0.0128  0.1146
 1110PEP     CB40690  21.330  10.837  18.132  0.0018  0.1430  0.0068
 1110PEP     CB40691  21.181  11.307  18.282 -0.0385  0.2363 -0.2673
 1110PEP     CB40692  20.983  11.753  18.038  0.2083  0.0319 -0.3551
 1110PEP     CB40693  20.628  12.013  17.903 -0.0234  0.4104  0.2015
 1110PEP     CB40694  20.385  12.323  18.194 -0.1380 -0.0084  0.2876
 1110PEP     CB40695  20.553  12.522  18.588  0.6035 -0.3300  0.1479
 1110PEP     CB40696  20.694  12.154  18.898  0.1829  0.2154 -0.1086
 1110PEP     CB40697  20.667  11.724  18.925  0.1410  0.1574  0.0081
 1110PEP     CB40698  20.424  11.345  18.967 -0.1450  0.0955  0.0751
 1110PEP     CB40699  20.095  11.206  19.114  0.2357 -0.4411  0.2231
 1110PEP     CB40700  19.759  10.967  19.258  0.0670  0.2341 -0.0636
 1110PEP     CB40701  19.598  10.590  19.057 -0.1454  0.1631 -0.2350
 1110PEP     CB40702  19.841  10.394  18.810  0.0293  0.1842 -0.0182
 1110PEP     CB40703  20.199  10.547  18.673  0.4283  0.6209 -0.1021
 1110PEP     CB40704  20.601  10.622  18.765  0.0509 -0.3405 -0.0902
 1110PEP     CB40705  20.780  10.835  19.178 -0.0318 -0.4243 -0.2457
 1110PEP     CB40706  21.134  10.969  19.341 -0.0968 -0.0073  0.4185
 1110PEP     CB40707  21.255  11.304  19.558 -0.0426  0.1176 -0.2452
 1110PEP     CB40708  21.008  11.328  19.935  0.0713  0.4653  0.3752
 1110PEP     CB40709  20.887  11.103  20.281 -0.1162  0.2258  0.1552
 1110PEP     CB40710  20.397  11.057  20.428  0.3116 -0.1607 -0.0135
 1110PEP     CB40711  19.904  10.994  20.407 -0.4266  0.4864  0.3289
 1110PEP     CB40712  19.531  10.713  20.419 -0.5800  0.2594 -0.1413
 1110PEP     CB40713  19.321  11.043  20.570 -0.3994 -0.0829  0.0987
 1110PEP     CB40714  19.504  11.351  20.764 -0.0021 -0.1275  0.3875
 1110PEP     CB40715  19.677  11.559  21.138  0.0653 -0.3589 -0.1738
 1110PEP     CB40716  19.889  11.808  21.397  0.0285  0.1809  0.2651
 1110PEP     CB40717  19.871  11.903  21.830  0.2383 -0.2948  0.2739
 1110PEP     CB40718  19.924  11.764  22.248 -0.3130  0.0213  0.2930
 1110PEP     CB40719  20.003  11.776  22.671 -0.1443  0.0527  0.5066
 1110PEP     CB40720  20.136  11.929  22.962  0.2283 -0.0471  0.3420
 1111PEP     CB40721  16.055   8.007  18.020  0.0919 -0.0106  0.0762
 1111PEP     CB40722  15.795   7.817  17.675 -0.0446 -0.2495 -0.1390
 1111PEP     CB40723  15.429   7.532  17.588  0.2413 -0.0086 -0.2608
 1111PEP     CB40724  15.254   7.151  17.722 -0.0752 -0.1973 -0.3443
 1111PEP     CB40725  15.001   6.818  17.626  0.2046  0.1714 -0.0368
 1111PEP     CB40726  15.101   6.376  17.617 -0.3949  0.2252  0.1030
 1111PEP     CB40727  15.270   6.065  17.879  0.4401 -0.2793  0.0678
 1111PEP     CB40728  15.550   5.805  18.174  0.1446  0.4676  0.3994
 1111PEP     CB40729  15.915   5.414  18.260 -0.1070  0.2598 -0.0068
 1111PEP     CB40730  16.246   5.117  18.005  0.0535 -0.1042 -0.0296
 1111PEP     CB40731  16.308   4.916  17.551 -0.2389  0.0002 -0.1180
 1111PEP     CB40732  16.649   4.875  17.226 -0.1804 -0.0263 -0.0264
 1111PEP     CB40733  17.076   4.870  17.321  0.2841  0.0313 -0.0229
 1111PEP     CB40734  17.555   4.708  17.224 -0.3813  0.1846 -0.3084
 1111PEP     CB40735  17.963   4.461  16.904 -0.0672  0.2674 -0.5239
 1111PEP     CB40736  18.331   4.137  16.724  0.0476  0.1512 -0.2638
 1111PEP     CB40737  18.550   3.807  16.637 -0.3723  0.0653 -0.2855
 1111PEP     CB40738  18.497   3.366  16.531 -0.4056  0.0042  0.0955
 1111PEP     CB40739  18.302   2.955  16.448  0.0193  0.0790 -0.4673
 1111PEP     CB40740  17.926   2.678  16.364  0.1676 -0.2118 -0.0285
 1111PEP     CB40741  17.588   2.534  16.352  0.4455  0.0673 -0.3276
 1111PEP     CB40742  17.125   2.569  16.345 -0.1526 -0.6951  0.4311
 1111PEP     CB40743  16.709   2.405  16.278 -0.0396  0.1250  0.0364
 1111PEP     CB40744  16.418   2.102  16.146  0.2465  0.2269 -0.2291
 1111PEP     CB40745  16.297   1.645  16.257  0.2684 -0.0495 -0.0494
 1111PEP     CB40746  16.147   1.440  16.579  0.1164 -0.1529 -0.1482
 1111PEP     CB40747  15.915   1.634  16.818  0.2623 -0.0929 -0.0644
 1111PEP     CB40748  15.676   2.018  16.807  0.3309  0.3068 -0.1937
 1111PEP     CB40749  15.754   2.423  17.113 -0.3671 -0.2441  0.3277
 1111PEP     CB40750  15.709   2.683  17.512 -0.0782 -0.1350 -0.0439
 1111PEP     CB40751  15.621   3.130  17.811 -0.0124  0.0897  0.1646
 1111PEP     CB40752  15.623   3.441  18.157 -0.2280  0.0812 -0.2577
 1111PEP     CB40753  15.520   3.694  18.523  0.3219  0.5982  0.6237
 1111PEP     CB40754  15.096   3.936  18.488 -0.0800 -0.0663  0.2012
 1111PEP     CB40755  14.735   3.949  18.291  0.2484 -0.2947  0.1923
 1111PEP     CB40756  14.594   3.636  17.998 -0.1440  0.3603 -0.1057
 1111PEP     CB40757  14.698   3.388  17.645 -0.1175 -0.0296 -0.1486
 1111PEP     CB40758  15.072   3.141  17.429  0.1193 -0.0497  0.1810
 1111PEP     CB40759  15.305   2.802  17.322  0.1275  0.1710 -0.2359
 1111PEP     CB40760  15.327   2.420  17.330  0.2947 -0.0024 -0.0035
 1112PEP     CB40761  13.658  20.847   3.503 -0.1752  0.0659  0.0739
 1112PEP     CB40762  13.583  20.674   3.870  0.1494 -0.2467 -0.1436
 1112PEP     CB40763  13.349  20.607   4.216 -0.3787  0.3216 -0.0112
 1112PEP     CB40764  12.977  20.701   4.469  0.4131 -0.1579  0.0535
 1112PEP     CB40765  12.898  20.932   4.875 -0.1214 -0.2381  0.0083
 1112PEP     CB40766  12.751  21.081   5.298 -0.3107  0.1448  0.1835
 1112PEP     CB40767  12.418  21.256   5.589 -0.1587 -0.0254  0.3269
 1112PEP     CB40768  12.028  21.288   5.832  0.2341 -0.1132 -0.1060
 1112PEP     CB40769  11.835  21.393   6.263  0.0422  0.0549 -0.1203
 1112PEP     CB40770  12.005  21.547   6.667 -0.0005 -0.2294  0.0719
 1112PEP     CB40771  11.890  21.703   7.086  0.1245  0.2075 -0.1887
 1112PEP     CB40772  11.533  21.575   7.234  0.0952  0.3068 -0.1151
 1112PEP     CB40773  11.375  21.299   6.904  0.1810  0.4315 -0.0306
 1112PEP     CB40774  11.630  21.035   6.571  0.1886  0.0755 -0.0435
 1112PEP     CB40775  12.093  20.949   6.485 -0.3159 -0.0382 -0.1544
 1112PEP     CB40776  12.363  20.673   6.445 -0.1421 -0.1364 -0.0649
 1112PEP     CB40777  12.472  20.175   6.349 -0.0640  0.2589  0.1081
 1112PEP     CB40778  12.461  19.764   6.364 -0.3569 -0.2179 -0.2570
 1112PEP     CB40779  12.614  19.454   6.115  0.2041 -0.2388 -0.0107
 1112PEP     CB40780  12.745  19.243   5.809  0.1496 -0.0628 -0.1824
 1112PEP     CB40781  12.749  18.881   5.468 -0.1232 -0.0877 -0.1158
 1112PEP     CB40782  12.812  18.644   5.118  0.0540  0.0220 -0.0825
 1112PEP     CB40783  12.816  18.218   5.000  0.0871  0.1338  0.2375
 1112PEP     CB40784  12.584  17.825   5.109  0.4017 -0.1419  0.1028
 1112PEP     CB40785  12.559  17.365   5.061  0.1585 -0.4685  0.0847
 1112PEP     CB40786  12.954  17.113   4.965  0.0997 -0.0666  0.2578
 1112PEP     CB40787  13.426  17.208   5.065 -0.1877 -0.2620 -0.2042
 1112PEP     CB40788  13.903  17.107   5.158  0.3681 -0.1991  0.2052
 1112PEP     CB40789  14.315  17.180   5.381 -0.1257 -0.1339  0.1036
 1112PEP     CB40790  14.377  17.259   5.763  0.4183 -0.3266  0.0942
 1112PEP     CB40791  14.285  16.915   5.992 -0.0283 -0.3380 -0.3546
 1112PEP     CB40792  14.040  16.522   5.850  0.1314 -0.1630 -0.1538
 1112PEP     CB40793  13.882  16.048   5.974 -0.0853 -0.1657 -0.2002
 1112PEP     CB40794  13.717  15.813   6.255 -0.0914 -0.1896  0.1236
 1112PEP     CB40795  13.436  15.468   6.346 -0.1858 -0.1268  0.1533
 1112PEP     CB40796  13.430  15.040   6.501 -0.4857  0.1713 -0.0220
 1112PEP     CB40797  13.572  14.852   6.940  0.6792  0.3028  0.0523
 1112PEP     CB40798  13.936  14.834   7.154  0.1474  0.1296  0.0080
 1112PEP     CB40799  14.328  14.654   7.000  0.0872  0.3781  0.0008
 1112PEP     CB40800  14.606  14.459   6.633  0.0192  0.0821  0.2871
 1113PEP     CB40801   5.302  11.147  13.023 -0.1767  0.1857  0.3113
 1113PEP     CB40802   5.288  10.762  13.128  0.3347  0.0148  0.2998
 1113PEP     CB40803   5.253  10.291  12.925 -0.0354  0.2959 -0.1252
 1113PEP     CB40804   5.344   9.934  12.744  0.2142  0.0264 -0.2685
 1113PEP     CB40805   5.167   9.628  12.397  0.3437  0.2173 -0.0325
 1113PEP     CB40806   5.078   9.366  12.078  0.3392 -0.0317  0.2006
 1113PEP     CB40807   4.843   9.016  11.777 -0.1942 -0.3842 -0.1528
 1113PEP     CB40808   4.735   8.640  11.653 -0.3455  0.0516 -0.0116
 1113PEP     CB40809   4.700   8.468  11.196 -0.1252  0.3344  0.0597
 1113PEP     CB40810   4.669   8.765  10.786 -0.6345  0.0066  0.0611
 1113PEP     CB40811   4.362   9.060  10.642 -0.0412 -0.3321  0.0811
 1113PEP     CB40812   4.094   9.405  10.436 -0.0274  0.4441  0.1707
 1113PEP     CB40813   3.836   9.825  10.545 -0.3257 -0.1100 -0.3837
 1113PEP     CB40814   3.740  10.159  10.344  0.0426  0.3221 -0.0592
 1113PEP     CB40815   3.438  10.326  10.094 -0.1257  0.0432 -0.0714
 1113PEP     CB40816   2.964  10.240  10.277  0.0582  0.2116  0.1004
 1113PEP     CB40817   2.903   9.867  10.548  0.1904 -0.0084  0.0993
 1113PEP     CB40818   2.888   9.654  10.852 -0.1465  0.1403  0.0375
 1113PEP     CB40819   3.133   9.479  11.277 -0.1543 -0.4175  0.1840
 1113PEP     CB40820   3.143   9.665  11.748  0.2643 -0.1864  0.2981
 1113PEP     CB40821   2.940   9.815  12.051 -0.3367 -0.0214 -0.0205
 1113PEP     CB40822   3.107   9.872  12.460  0.2327  0.3441  0.2447
 1113PEP     CB40823   3.395   9.658  12.681 -0.3094 -0.3023 -0.0309
 1113PEP     CB40824   3.659   9.247  12.652  0.1371 -0.1424 -0.0205
 1113PEP     CB40825   4.104   9.133  12.845 -0.1732  0.1985 -0.0170
 1113PEP     CB40826   4.497   9.265  12.763 -0.0495 -0.0424  0.4068
 1113PEP     CB40827   4.652   9.320  12.403 -0.2266 -0.5192  0.4203
 1113PEP     CB40828   4.674   9.467  11.895  0.2979 -0.3796 -0.3436
 1113PEP     CB40829   4.352   9.652  11.655  0.1172 -0.0152  0.2259
 1113PEP     CB40830   4.085   9.925  11.540  0.1850  0.1230  0.0561
 1113PEP     CB40831   3.915  10.289  11.740 -0.2351 -0.0153 -0.3091
 1113PEP     CB40832   3.765  10.678  11.857 -0.2005  0.1463  0.0606
 1113PEP     CB40833   3.224  10.771  11.947 -0.3192 -0.1322  0.0552
 1113PEP     CB40834   3.023  10.350  12.014 -0.5503 -0.3082 -0.3909
 1113PEP     CB40835   3.095  10.199  11.565  0.1686  0.3803  0.1069
 1113PEP     CB40836   3.348  10.493  11.316 -0.0249  0.2043 -0.2906
 1113PEP     CB40837   3.531  10.921  11.402  0.1526 -0.1044  0.2704
 1113PEP     CB40838   3.522  11.222  11.601 -0.0427 -0.1738  0.2665
 1113PEP     CB40839   3.483  11.638  11.444  0.0180 -0.2325 -0.0959
 1113PEP     CB40840   3.195  11.770  11.104  0.0354 -0.0940 -0.2436
 1114PEP     CB40841   8.858  18.617  15.426  0.1817 -0.5289  0.3225
 1114PEP     CB40842   8.903  18.817  15.843 -0.3053  0.2871  0.0310
 1114PEP     CB40843   8.786  18.925  16.175 -0.3025 -0.1907 -0.3885
 1114PEP     CB40844   8.530  19.148  16.517  0.0373 -0.1328 -0.3162
 1114PEP     CB40845   8.170  19.162  16.809 -0.2197 -0.3044 -0.3165
 1114PEP     CB40846   7.889  18.779  16.904 -0.2121  0.1296 -0.2145
 1114PEP     CB40847   7.939  18.439  16.667  0.0078  0.4575  0.1617
 1114PEP     CB40848   8.043  18.051  16.605  0.4305  0.1684 -0.0740
 1114PEP     CB40849   8.339  17.706  16.857  0.1119  0.2226 -0.1285
 1114PEP     CB40850   8.210  17.364  17.181 -0.1220 -0.1647  0.1677
 1114PEP     CB40851   8.340  17.215  17.583 -0.2344 -0.1826 -0.0522
 1114PEP     CB40852   8.867  17.368  17.684  0.4277  0.1590 -0.1899
 1114PEP     CB40853   8.969  17.767  17.719  0.2400  0.1238  0.1345
 1114PEP     CB40854   8.685  18.105  17.530 -0.1064  0.0611 -0.0926
 1114PEP     CB40855   8.415  18.458  17.452  0.4119  0.1540 -0.2404
 1114PEP     CB40856   8.174  18.865  17.356  0.3162  0.0260 -0.3218
 1114PEP     CB40857   7.786  19.190  17.270 -0.0364  0.1110  0.0534
 1114PEP     CB40858   7.374  19.068  17.329 -0.1108 -0.1924 -0.1318
 1114PEP     CB40859   7.329  18.549  17.322  0.1458  0.0776  0.3662
 1114PEP     CB40860   7.476  18.132  17.545 -0.1865 -0.2886 -0.0868
 1114PEP     CB40861   7.427  17.937  17.900  0.1437  0.1065 -0.1460
 1114PEP     CB40862   7.422  18.025  18.347 -0.0943 -0.1801  0.0863
 1114PEP     CB40863   7.208  18.463  18.370 -0.3459  0.1457  0.2022
 1114PEP     CB40864   6.785  18.549  18.115 -0.2259 -0.0363 -0.3589
 1114PEP     CB40865   6.431  18.294  17.964 -0.0444  0.2875 -0.1521
 1114PEP     CB40866   6.036  18.050  18.091 -0.0313  0.0735  0.0810
 1114PEP     CB40867   5.618  17.955  18.219  0.1595  0.1141  0.1368
 1114PEP     CB40868   5.467  18.011  18.612 -0.0308 -0.3676  0.0669
 1114PEP     CB40869   5.539  17.662  18.936  0.3014 -0.2587 -0.3919
 1114PEP     CB40870   5.446  17.264  18.863  0.2206 -0.0747  0.1899
 1114PEP     CB40871   5.538  16.872  19.074  0.0884  0.3037  0.2689
 1114PEP     CB40872   5.775  16.753  19.407 -0.0635 -0.3774  0.1844
 1114PEP     CB40873   5.957  16.969  19.591  0.2175 -0.1280  0.0258
 1114PEP     CB40874   5.939  17.437  19.681  0.0004  0.1397  0.1073
 1114PEP     CB40875   5.766  17.764  19.523  0.1716  0.0330  0.3476
 1114PEP     CB40876   5.733  18.062  19.220 -0.0211  0.1258 -0.1751
 1114PEP     CB40877   5.699  18.388  18.906 -0.2924  0.4460  0.3555
 1114PEP     CB40878   5.568  18.821  18.775 -0.3080 -0.0787 -0.0916
 1114PEP     CB40879   5.375  19.201  18.922 -0.1232 -0.0063  0.1960
 1114PEP     CB40880   4.964  19.384  19.024 -0.0698 -0.4003 -0.1195
 1115PEP     CB40881  18.099  18.739  20.319 -0.0072  0.1809 -0.0504
 1115PEP     CB40882  18.073  18.460  20.623 -0.2825  0.0975 -0.1686
 1115PEP     CB40883  18.196  18.613  21.087 -0.0419 -0.2756  0.0260
 1115PEP     CB40884  18.352  18.593  21.477 -0.2550 -0.1405  0.3701
 1115PEP     CB40885  18.792  18.444  21.567 -0.1219 -0.1855  0.3210
 1115PEP     CB40886  18.998  18.140  21.411  0.2596 -0.0278 -0.3206
 1115PEP     CB40887  18.842  17.649  21.175 -0.0007  0.4307  0.1803
 1115PEP     CB40888  18.947  17.231  21.021  0.3580  0.0033 -0.0843
 1115PEP     CB40889  18.845  16.895  20.835 -0.5533 -0.0236 -0.3250
 1115PEP     CB40890  19.184  16.463  20.648  0.2088  0.1689  0.1690
 1115PEP     CB40891  19.354  16.125  20.438 -0.0905  0.1589  0.3574
 1115PEP     CB40892  19.697  16.024  20.221  0.1290 -0.1320 -0.3153
 1115PEP     CB40893  20.073  15.746  20.255  0.0956 -0.0031  0.1056
 1115PEP     CB40894  20.350  15.415  20.108  0.0087  0.1784 -0.0477
 1115PEP     CB40895  20.505  15.363  19.772 -0.2185 -0.3846 -0.3313
 1115PEP     CB40896  20.571  15.712  19.533  0.1684 -0.2347  0.2954
 1115PEP     CB40897  20.709  16.095  19.747 -0.0286  0.1043 -0.4050
 1115PEP     CB40898  20.913  16.235  20.098  0.1855 -0.1421 -0.3818
 1115PEP     CB40899  21.113  16.261  20.427  0.0711  0.0987  0.0594
 1115PEP     CB40900  20.969  16.174  20.850  0.0131 -0.1750  0.1798
 1115PEP     CB40901  20.632  16.138  21.150 -0.4597  0.0202  0.1221
 1115PEP     CB40902  20.409  16.288  21.416 -0.3962 -0.0042  0.2613
 1115PEP     CB40903  20.123  16.431  21.790 -0.4822  0.1211 -0.1321
 1115PEP     CB40904  19.736  16.265  22.019  0.1779 -0.5710  0.1039
 1115PEP     CB40905  19.384  15.992  22.084 -0.2502 -0.2426 -0.0420
 1115PEP     CB40906  19.073  15.741  22.001 -0.3157 -0.0672  0.0578
 1115PEP     CB40907  18.517  15.705  21.988 -0.0780 -0.1688 -0.0023
 1115PEP     CB40908  18.160  15.377  22.074  0.3490  0.0102 -0.3463
 1115PEP     CB40909  17.749  15.235  22.378 -0.2806  0.2891  0.0423
 1115PEP     CB40910  17.371  15.273  22.505  0.0903  0.0210 -0.3730
 1115PEP     CB40911  16.938  15.233  22.691 -0.3156 -0.1178  0.0977
 1115PEP     CB40912  16.644  15.481  23.005 -0.2860  0.2429 -0.4148
 1115PEP     CB40913  16.661  15.806  23.293 -0.2264 -0.2583 -0.0544
 1115PEP     CB40914  16.950  15.977  23.491  0.1682  0.1390  0.0492
 1115PEP     CB40915  17.188  16.178  23.761 -0.1328 -0.0854 -0.0443
 1115PEP     CB40916  17.386  16.627  24.017  0.5171  0.0901 -0.0214
 1115PEP     CB40917  17.414  16.939  24.359  0.2173 -0.1388 -0.0329
 1115PEP     CB40918  17.699  17.201  24.495 -0.1350  0.3576 -0.1093
 1115PEP     CB40919  18.104  17.166  24.371 -0.1370  0.4776  0.2304
 1115PEP     CB40920  18.191  17.459  23.997 -0.0182  0.0041  0.2148
 1116PEP     CB40921  12.556   8.246   4.741  0.0177 -0.1685 -0.5249
 1116PEP     CB40922  12.655   8.001   4.348  0.0315  0.0148  0.0796
 1116PEP     CB40923  12.459   7.743   4.095  0.0997  0.3323  0.0921
 1116PEP     CB40924  12.215   7.664   3.741  0.2470  0.6075 -0.1248
 1116PEP     CB40925  11.946   7.496   3.414  0.3938 -0.2514 -0.1150
 1116PEP     CB40926  11.780   7.512   3.134  0.1747 -0.2382  0.2123
 1116PEP     CB40927  11.562   7.359   2.782  0.2917 -0.1021 -0.1758
 1116PEP     CB40928  11.632   6.961   2.570 -0.3171  0.5446  0.1885
 1116PEP     CB40929  11.802   6.699   2.811 -0.3537  0.3013 -0.2474
 1116PEP     CB40930  11.829   6.870   3.143 -0.2446  0.0955 -0.0468
 1116PEP     CB40931  11.488   6.896   3.399  0.2065 -0.1779  0.0312
 1116PEP     CB40932  11.175   7.092   3.169  0.1018  0.2588 -0.3215
 1116PEP     CB40933  11.126   7.043   2.774  0.1489 -0.1051  0.3689
 1116PEP     CB40934  11.227   7.108   2.383 -0.2086 -0.2369  0.2151
 1116PEP     CB40935  11.517   7.373   2.204  0.2678  0.3163  0.2811
 1116PEP     CB40936  11.904   7.685   2.394  0.0951 -0.3928 -0.2527
 1116PEP     CB40937  11.983   7.903   2.768 -0.0148  0.3437  0.1055
 1116PEP     CB40938  11.732   8.066   3.134 -0.5316  0.0356 -0.6634
 1116PEP     CB40939  11.534   7.856   3.514  0.4622 -0.2668  0.1700
 1116PEP     CB40940  11.212   7.568   3.463 -0.3699  0.0931  0.4817
 1116PEP     CB40941  10.930   7.580   3.084  0.1553  0.0213 -0.3198
 1116PEP     CB40942  10.879   7.841   2.735 -0.0956  0.0277 -0.0716
 1116PEP     CB40943  10.582   8.191   2.622 -0.0715  0.2147 -0.4479
 1116PEP     CB40944  10.182   8.292   2.776 -0.1157 -0.1370  0.0170
 1116PEP     CB40945   9.900   8.574   2.952  0.1089 -0.1656  0.1170
 1116PEP     CB40946   9.732   8.977   2.834  0.0684 -0.0238  0.1366
 1116PEP     CB40947   9.798   9.366   2.722 -0.2123  0.3270 -0.2899
 1116PEP     CB40948   9.820   9.625   2.387  0.3318 -0.1157 -0.1962
 1116PEP     CB40949   9.888  10.105   2.404 -0.1969  0.0458 -0.0901
 1116PEP     CB40950   9.539  10.355   2.213 -0.4243  0.3416 -0.0902
 1116PEP     CB40951   9.083  10.326   2.306 -0.0787  0.2748  0.4109
 1116PEP     CB40952   8.655  10.223   2.518  0.0414 -0.0708 -0.3285
 1116PEP     CB40953   8.321  10.321   2.709  0.4579  0.1547  0.0596
 1116PEP     CB40954   8.025  10.657   2.977 -0.2078  0.3481 -0.0255
 1116PEP     CB40955   8.064  10.620   3.444 -0.0278 -0.1072 -0.5377
 1116PEP     CB40956   8.187  10.479   3.871  0.3275 -0.0201 -0.3553
 1116PEP     CB40957   8.283  10.630   4.266  0.2828  0.0751  0.2138
 1116PEP     CB40958   8.199  10.919   4.669  0.0020 -0.0867  0.1523
 1116PEP     CB40959   8.385  11.294   4.742  0.1272  0.3832 -0.2274
 1116PEP     CB40960   8.321  11.665   4.520  0.0760 -0.0010  0.0427
 1117PEP     CB40961  17.751   5.023   1.280  0.2972  0.5421  0.3451
 1117PEP     CB40962  18.019   4.729   1.278 -0.1816  0.0537 -0.1040
 1117PEP     CB40963  18.023   4.234   1.295  0.1458 -0.5293 -0.3075
 1117PEP     CB40964  18.024   3.913   1.543 -0.3020  0.1932 -0.0670
 1117PEP     CB40965  17.687   3.816   1.779 -0.1241  0.1471 -0.2444
 1117PEP     CB40966  17.295   3.887   1.909 -0.0113  0.2407 -0.4924
 1117PEP     CB40967  16.873   4.041   1.937 -0.1494  0.1482  0.1854
 1117PEP     CB40968  16.780   4.493   1.891 -0.1634  0.4490  0.2015
 1117PEP     CB40969  16.943   4.890   1.880  0.1021  0.2387 -0.0811
 1117PEP     CB40970  16.898   5.282   1.695  0.0745 -0.2285 -0.1890
 1117PEP     CB40971  16.676   5.604   1.409 -0.2295 -0.2082 -0.0231
 1117PEP     CB40972  16.426   5.777   0.992  0.0695  0.1964  0.1849
 1117PEP     CB40973  16.081   5.599   0.838  0.0444  0.5637 -0.0118
 1117PEP     CB40974  15.799   5.526   0.449  0.1779  0.2038  0.0464
 1117PEP     CB40975  15.792   5.698   0.145 -0.0611  0.3502 -0.1009
 1117PEP     CB40976  15.804   6.150  -0.022  0.1156 -0.1888  0.1053
 1117PEP     CB40977  16.160   6.491  -0.017  0.2428  0.0153  0.0806
 1117PEP     CB40978  16.504   6.599   0.187  0.2881  0.1949 -0.1196
 1117PEP     CB40979  16.700   6.939   0.373  0.3655 -0.0085  0.0522
 1117PEP     CB40980  16.988   7.288   0.535  0.0771 -0.0015 -0.5049
 1117PEP     CB40981  16.923   7.733   0.697  0.0824 -0.1235  0.0967
 1117PEP     CB40982  16.836   8.145   0.998  0.2723 -0.0780  0.1168
 1117PEP     CB40983  17.026   8.370   1.336  0.0038 -0.0116  0.4254
 1117PEP     CB40984  17.407   8.726   1.572 -0.2105 -0.0008 -0.0031
 1117PEP     CB40985  17.804   8.912   1.668 -0.1638  0.0222  0.2293
 1117PEP     CB40986  18.118   9.117   1.881 -0.2681 -0.4579 -0.0170
 1117PEP     CB40987  18.252   9.419   2.204 -0.2644 -0.3755 -0.1498
 1117PEP     CB40988  18.065   9.685   2.569 -0.2201  0.3181  0.2933
 1117PEP     CB40989  17.855   9.978   2.813  0.1695 -0.2817  0.0950
 1117PEP     CB40990  17.821  10.301   3.210 -0.0024 -0.0895 -0.1344
 1117PEP     CB40991  18.135  10.650   3.215  0.0253  0.1275 -0.3181
 1117PEP     CB40992  18.179  11.018   2.807  0.2426  0.1582  0.1287
 1117PEP     CB40993  17.968  10.929   2.424 -0.2830 -0.0643  0.3631
 1117PEP     CB40994  17.579  11.127   2.295 -0.0169 -0.0241 -0.1443
 1117PEP     CB40995  17.332  11.260   2.593 -0.1679 -0.0057  0.2154
 1117PEP     CB40996  16.980  11.106   2.922 -0.2007  0.1205 -0.3100
 1117PEP     CB40997  16.607  10.920   2.858  0.0857  0.0381  0.1490
 1117PEP     CB40998  16.132  10.885   2.875 -0.1423 -0.0895  0.1095
 1117PEP     CB40999  15.704  10.939   2.629 -0.0659  0.1588 -0.3045
 1117PEP     CB41000  15.440  11.252   2.502 -0.3164  0.3204  0.4295
 1118PEP     CB41001  16.868   4.549  20.212  0.3906 -0.0504 -0.4527
 1118PEP     CB41002  16.413   4.527  20.402 -0.1270  0.2117 -0.0588
 1118PEP     CB41003  16.300   4.304  20.811 -0.4005 -0.0609 -0.1534
 1118PEP     CB41004  16.478   3.841  20.863  0.1784  0.0445  0.3213
 1118PEP     CB41005  16.431   3.450  21.138  0.2905  0.0855 -0.0764
 1118PEP     CB41006  16.307   3.030  21.187 -0.0569 -0.1643  0.0640
 1118PEP     CB41007  16.032   2.815  21.433  0.1290 -0.1970  0.0414
 1118PEP     CB41008  15.739   3.161  21.547 -0.1498 -0.0537  0.1047
 1118PEP     CB41009  15.429   3.314  21.216  0.1350  0.0420 -0.3526
 1118PEP     CB41010  15.343   3.111  20.782 -0.1683 -0.1274 -0.2746
 1118PEP     CB41011  15.425   2.736  20.536  0.2079  0.2995 -0.0484
 1118PEP     CB41012  15.923   2.628  20.304 -0.2760  0.2033  0.1979
 1118PEP     CB41013  16.252   3.038  20.379 -0.1741 -0.0568  0.3327
 1118PEP     CB41014  16.182   3.367  20.785  0.0135  0.2980  0.1638
 1118PEP     CB41015  15.888   3.272  21.056  0.1976  0.1225 -0.1338
 1118PEP     CB41016  15.799   2.819  21.036  0.1364  0.2757  0.0383
 1118PEP     CB41017  15.725   2.407  20.718  0.0674  0.1953  0.1083
 1118PEP     CB41018  16.121   2.262  20.542 -0.2619 -0.1569 -0.0924
 1118PEP     CB41019  16.579   2.224  20.779  0.0340  0.0479  0.0428
 1118PEP     CB41020  16.727   2.469  21.020 -0.2632  0.2685 -0.1895
 1118PEP     CB41021  16.566   2.665  21.385  0.0814 -0.0644 -0.1076
 1118PEP     CB41022  16.481   2.500  21.782  0.2934 -0.3776  0.1778
 1118PEP     CB41023  16.620   2.362  22.210  0.1112  0.5713  0.2036
 1118PEP     CB41024  16.716   2.380  22.586  0.2596  0.0366 -0.0151
 1118PEP     CB41025  16.843   2.663  22.873 -0.2741  0.1083 -0.1032
 1118PEP     CB41026  16.768   2.993  23.092  0.1345 -0.1916  0.2382
 1118PEP     CB41027  16.662   3.397  23.313 -0.1645 -0.0772  0.1883
 1118PEP     CB41028  16.584   3.776  23.581 -0.0555 -0.0850  0.0015
 1118PEP     CB41029  16.413   3.841  23.903  0.0868 -0.2108  0.4534
 1118PEP     CB41030  16.101   3.618  24.082  0.0334 -0.0886  0.2214
 1118PEP     CB41031  15.985   3.329  24.172  0.1015  0.1876 -0.3732
 1118PEP     CB41032  15.991   2.939  23.948 -0.3363 -0.1306 -0.2011
 1118PEP     CB41033  16.144   2.737  23.575 -0.0130  0.1970 -0.0242
 1118PEP     CB41034  16.091   2.536  23.081  0.0731 -0.1482 -0.2051
 1118PEP     CB41035  16.183   2.278  22.628 -0.1081 -0.5713  0.2624
 1118PEP     CB41036  16.109   2.062  22.248 -0.0717  0.1631 -0.0586
 1118PEP     CB41037  15.749   2.074  21.988  0.0199  0.1240  0.0650
 1118PEP     CB41038  15.349   2.230  22.065 -0.0911  0.1881 -0.0197
 1118PEP     CB41039  15.101   2.543  21.918  0.1026 -0.1823  0.1251
 1118PEP     CB41040  14.763   2.962  22.071  0.0097 -0.2974  0.0860
 1119PEP     CB41041  18.147   1.379  16.109 -0.0265 -0.0979 -0.1607
 1119PEP     CB41042  18.185   1.712  16.304 -0.0413 -0.1738  0.3812
 1119PEP     CB41043  18.232   2.190  16.498 -0.1148 -0.1398 -0.2751
 1119PEP     CB41044  18.559   2.475  16.557 -0.3981  0.1026 -0.1939
 1119PEP     CB41045  18.927   2.706  16.520  0.1878 -0.0862 -0.1590
 1119PEP     CB41046  18.911   3.079  16.435 -0.0105  0.3140  0.1656
 1119PEP     CB41047  19.135   3.236  16.041  0.1985  0.2292 -0.0111
 1119PEP     CB41048  19.320   3.048  15.746 -0.4788  0.1005 -0.2390
 1119PEP     CB41049  19.549   2.709  15.794 -0.1601  0.1679 -0.2160
 1119PEP     CB41050  19.698   2.420  16.048 -0.2684  0.1529 -0.0292
 1119PEP     CB41051  19.842   2.378  16.531 -0.0991 -0.4533 -0.3026
 1119PEP     CB41052  19.992   2.602  16.883  0.1175 -0.3417  0.0672
 1119PEP     CB41053  19.753   2.774  17.196  0.5136  0.0566 -0.0025
 1119PEP     CB41054  19.338   2.782  17.248 -0.2602 -0.2805 -0.0661
 1119PEP     CB41055  19.075   2.514  16.997 -0.3177 -0.4273  0.0516
 1119PEP     CB41056  19.442   2.304  16.776  0.2039  0.1730 -0.0230
 1119PEP     CB41057  19.756   2.291  17.146 -0.0142 -0.2137 -0.0309
 1119PEP     CB41058  19.516   2.425  17.494  0.2287  0.1531 -0.1128
 1119PEP     CB41059  19.139   2.225  17.426 -0.1258  0.1073  0.2102
 1119PEP     CB41060  19.004   2.032  16.961  0.0961 -0.2458 -0.1288
 1119PEP     CB41061  18.605   1.947  16.721  0.2172 -0.1603 -0.3499
 1119PEP     CB41062  18.189   1.691  16.823  0.2870  0.1720  0.2187
 1119PEP     CB41063  17.869   1.379  16.976  0.0145 -0.1602  0.0582
 1119PEP     CB41064  17.709   1.355  17.429  0.1064 -0.2176  0.3844
 1119PEP     CB41065  17.764   1.390  17.935 -0.1480  0.1542 -0.0562
 1119PEP     CB41066  17.620   1.422  18.399 -0.1123  0.0454  0.1941
 1119PEP     CB41067  17.869   1.488  18.767  0.4616  0.3183 -0.2153
 1119PEP     CB41068  18.327   1.502  19.043  0.1591  0.2851 -0.3323
 1119PEP     CB41069  18.521   1.096  19.166  0.1594 -0.3471 -0.4508
 1119PEP     CB41070  18.852   0.902  18.940 -0.6639  0.2704  0.2327
 1119PEP     CB41071  19.004   0.680  18.650 -0.0757 -0.1700 -0.1181
 1119PEP     CB41072  19.268   0.368  18.518 -0.0713  0.0392  0.0116
 1119PEP     CB41073  19.710   0.155  18.693  0.1073 -0.0235 -0.3547
 1119PEP     CB41074  19.902  -0.257  18.820  0.4357 -0.1904  0.0907
 1119PEP     CB41075  19.823  -0.761  18.782 -0.0278  0.0095  0.1466
 1119PEP     CB41076  19.580  -1.109  18.840 -0.0087 -0.0610 -0.0419
 1119PEP     CB41077  19.376  -1.453  18.840  0.2753 -0.1646 -0.1277
 1119PEP     CB41078  19.481  -1.939  18.685  0.1745 -0.1737 -0.0117
 1119PEP     CB41079  19.455  -2.177  18.311 -0.0066 -0.1439  0.1782
 1119PEP     CB41080  19.631  -2.081  17.959 -0.1750 -0.0155  0.1181
 1120PEP     CB41081  14.078  16.890   8.054  0.2103 -0.0108 -0.2315
 1120PEP     CB41082  14.256  17.333   8.011 -0.2383 -0.2646 -0.2720
 1120PEP     CB41083  13.965  17.672   7.984  0.0865 -0.1464  0.1563
 1120PEP     CB41084  13.569  17.806   8.213 -0.0660  0.2988  0.0423
 1120PEP     CB41085  13.452  18.063   8.515  0.4468 -0.3018 -0.4977
 1120PEP     CB41086  13.281  18.518   8.647  0.3721  0.0100 -0.1302
 1120PEP     CB41087  13.310  18.832   8.884 -0.2844  0.2204  0.4836
 1120PEP     CB41088  13.203  19.066   9.203 -0.1249  0.1854  0.0363
 1120PEP     CB41089  12.971  19.413   9.344  0.0510 -0.0935 -0.2489
 1120PEP     CB41090  12.789  19.751   9.300 -0.0761 -0.2377  0.0449
 1120PEP     CB41091  12.872  20.086   9.581  0.3466 -0.0161  0.3968
 1120PEP     CB41092  13.004  20.380   9.446  0.1774 -0.2510  0.1014
 1120PEP     CB41093  13.349  20.418   9.115  0.3246  0.1138  0.2148
 1120PEP     CB41094  13.240  20.318   8.627 -0.0406 -0.0103  0.3671
 1120PEP     CB41095  12.825  20.321   8.437 -0.1067 -0.1649  0.0541
 1120PEP     CB41096  12.452  20.167   8.281  0.2685  0.0505  0.3141
 1120PEP     CB41097  12.202  19.876   8.076  0.0845  0.1016 -0.1477
 1120PEP     CB41098  11.947  19.469   8.142 -0.4092 -0.0511 -0.0399
 1120PEP     CB41099  11.782  19.393   8.545  0.0567  0.0119  0.0332
 1120PEP     CB41100  11.478  19.596   8.643  0.5967 -0.0993 -0.0931
 1120PEP     CB41101  11.012  19.619   8.530  0.0267  0.0261  0.0811
 1120PEP     CB41102  10.628  19.741   8.434  0.3292  0.2361 -0.0658
 1120PEP     CB41103  10.419  19.586   8.055 -0.2184  0.0395  0.4590
 1120PEP     CB41104  10.299  19.394   7.616  0.5337 -0.2764  0.2193
 1120PEP     CB41105  10.225  19.178   7.191  0.1392  0.3419 -0.1736
 1120PEP     CB41106   9.989  18.977   6.920  0.1190  0.2865  0.0067
 1120PEP     CB41107   9.589  18.727   7.071 -0.3446 -0.2060 -0.1092
 1120PEP     CB41108   9.340  18.767   7.468  0.0841  0.0966 -0.0350
 1120PEP     CB41109   9.549  18.936   7.885 -0.2732 -0.1273 -0.4534
 1120PEP     CB41110   9.839  18.879   8.321 -0.3165 -0.0900  0.1859
 1120PEP     CB41111   9.914  18.680   8.708  0.0882 -0.0677  0.2590
 1120PEP     CB41112   9.816  18.455   9.014  0.2493  0.0933  0.0455
 1120PEP     CB41113   9.485  18.268   9.270  0.0580  0.0569 -0.2419
 1120PEP     CB41114   9.062  18.093   9.266  0.3732  0.2465  0.4887
 1120PEP     CB41115   8.621  17.981   9.396 -0.4377 -0.3245 -0.0708
 1120PEP     CB41116   8.134  17.987   9.257 -0.1646  0.2232  0.3328
 1120PEP     CB41117   7.881  18.187   8.935 -0.0764  0.2874 -0.3363
 1120PEP     CB41118   7.459  18.276   8.723  0.3243  0.1564  0.0311
 1120PEP     CB41119   7.346  18.216   8.326 -0.2421  0.2058  0.1663
 1120PEP     CB41120   7.493  18.114   7.936 -0.4914 -0.0502  0.1757
 1121PEP     CB41121  19.108  17.386   6.833  0.0878  0.0289 -0.0757
 1121PEP     CB41122  18.869  17.408   6.451 -0.2418  0.0492 -0.1088
 1121PEP     CB41123  18.650  17.323   6.106 -0.1155  0.2378 -0.2197
 1121PEP     CB41124  18.506  17.111   5.715  0.3660 -0.0557  0.6061
 1121PEP     CB41125  18.450  16.641   5.578 -0.0828 -0.2112 -0.2260
 1121PEP     CB41126  18.484  16.253   5.464  0.2100  0.1407 -0.1056
 1121PEP     CB41127  18.659  16.080   5.134 -0.4359  0.1560 -0.1068
 1121PEP     CB41128  18.641  16.015   4.695 -0.2179 -0.0929 -0.1874
 1121PEP     CB41129  18.678  16.254   4.306  0.0702  0.0515 -0.1279
 1121PEP     CB41130  18.504  16.440   3.948 -0.0315 -0.1255  0.1084
 1121PEP     CB41131  18.302  16.873   3.848  0.0974 -0.0216 -0.0303
 1121PEP     CB41132  18.041  17.079   3.587  0.0801 -0.0458 -0.1911
 1121PEP     CB41133  17.827  16.877   3.334 -0.0066 -0.2031 -0.3628
 1121PEP     CB41134  18.047  16.538   3.151  0.0270  0.0406 -0.0034
 1121PEP     CB41135  18.125  16.067   3.316  0.3598 -0.1573 -0.0361
 1121PEP     CB41136  18.458  16.019   3.551 -0.4135  0.1177  0.0950
 1121PEP     CB41137  18.766  15.858   3.789 -0.0283  0.2346 -0.2275
 1121PEP     CB41138  18.991  15.766   4.196  0.5438 -0.3488  0.2749
 1121PEP     CB41139  18.933  15.540   4.607  0.5045  0.1134  0.0728
 1121PEP     CB41140  18.656  15.546   4.900  0.0899 -0.1786 -0.1186
 1121PEP     CB41141  18.581  15.603   5.391  0.4189  0.2040  0.1027
 1121PEP     CB41142  18.482  15.436   5.797 -0.0835 -0.0543 -0.0624
 1121PEP     CB41143  18.520  15.251   6.108  0.2552 -0.0722 -0.1296
 1121PEP     CB41144  18.403  15.220   6.499 -0.5170 -0.0966 -0.0103
 1121PEP     CB41145  18.149  14.913   6.797  0.0418  0.4302  0.1637
 1121PEP     CB41146  18.049  14.475   6.967 -0.1889  0.0547 -0.0364
 1121PEP     CB41147  17.916  14.097   6.980 -0.1918 -0.0062 -0.3746
 1121PEP     CB41148  18.127  13.777   7.040  0.0104  0.0805 -0.0257
 1121PEP     CB41149  18.589  13.834   6.994 -0.3885 -0.1163  0.1060
 1121PEP     CB41150  18.972  14.000   6.755  0.1281  0.0635  0.1310
 1121PEP     CB41151  19.080  14.309   6.432  0.5676  0.1875 -0.0618
 1121PEP     CB41152  19.146  14.231   5.977 -0.0663  0.0267  0.0720
 1121PEP     CB41153  19.498  13.894   5.923 -0.1046 -0.2486 -0.2920
 1121PEP     CB41154  19.799  13.684   6.185 -0.1285 -0.0452 -0.2054
 1121PEP     CB41155  19.969  13.630   6.525 -0.4087  0.2217  0.0709
 1121PEP     CB41156  19.890  13.726   6.987 -0.2065  0.0280 -0.3209
 1121PEP     CB41157  19.755  13.925   7.411  0.2574  0.0819 -0.2076
 1121PEP     CB41158  19.660  13.637   7.865  0.0609 -0.0804  0.4215
 1121PEP     CB41159  19.385  13.534   8.291 -0.0833 -0.0952  0.0101
 1121PEP     CB41160  19.109  13.516   8.658 -0.0484  0.0529  0.1887
 1122PEP     CB41161  18.579   2.594  21.016 -0.2166 -0.4225 -0.1077
 1122PEP     CB41162  18.887   2.524  20.792  0.2900 -0.2028 -0.0398
 1122PEP     CB41163  19.093   2.251  20.486 -0.3639 -0.1025 -0.1310
 1122PEP     CB41164  19.355   2.009  20.293 -0.1635  0.0468  0.1174
 1122PEP     CB41165  19.770   1.929  20.286 -0.4415  0.1311 -0.0661
 1122PEP     CB41166  20.286   1.970  20.336  0.3008  0.0848 -0.1668
 1122PEP     CB41167  20.547   2.241  20.590 -0.1488  0.0522  0.0139
 1122PEP     CB41168  20.594   2.699  20.536 -0.1824  0.3767 -0.0390
 1122PEP     CB41169  20.480   2.898  20.102  0.1630  0.3309 -0.0819
 1122PEP     CB41170  20.166   3.039  19.789  0.2531  0.0226 -0.3415
 1122PEP     CB41171  19.865   2.908  19.503  0.0861  0.0630 -0.1505
 1122PEP     CB41172  19.646   2.481  19.420  0.4494  0.2856  0.1675
 1122PEP     CB41173  19.338   2.303  19.360 -0.0990 -0.3130  0.0768
 1122PEP     CB41174  18.985   2.117  19.393 -0.2187  0.0438 -0.0852
 1122PEP     CB41175  18.602   1.925  19.409 -0.0206  0.1205 -0.4830
 1122PEP     CB41176  18.194   1.757  19.433 -0.1385  0.1902  0.2443
 1122PEP     CB41177  17.758   1.796  19.716 -0.4671 -0.0757 -0.2073
 1122PEP     CB41178  17.327   1.537  19.831  0.1222 -0.0510  0.0913
 1122PEP     CB41179  17.080   1.201  19.934  0.1129 -0.0064  0.0951
 1122PEP     CB41180  16.701   1.005  20.118  0.3993  0.1890  0.1255
 1122PEP     CB41181  16.506   0.662  20.303  0.0115 -0.0731  0.0395
 1122PEP     CB41182  16.277   0.334  20.276 -0.0409 -0.1930  0.0145
 1122PEP     CB41183  15.976   0.017  20.230  0.1778 -0.3523 -0.0318
 1122PEP     CB41184  15.646  -0.161  20.002 -0.0476 -0.0082 -0.3975
 1122PEP     CB41185  15.356  -0.330  19.758 -0.3532 -0.2615  0.0083
 1122PEP     CB41186  14.978  -0.263  19.496 -0.0926  0.2553 -0.3629
 1122PEP     CB41187  14.672  -0.518  19.266 -0.3692  0.3280  0.1314
 1122PEP     CB41188  14.595  -0.901  19.113 -0.5614 -0.0903 -0.0634
 1122PEP     CB41189  14.724  -1.322  19.085  0.2297  0.1031  0.0980
 1122PEP     CB41190  14.817  -1.750  19.123 -0.0197  0.0024 -0.0127
 1122PEP     CB41191  14.955  -2.141  19.315 -0.1483  0.5263 -0.2383
 1122PEP     CB41192  15.198  -2.413  19.168 -0.0247  0.1821  0.4114
 1122PEP     CB41193  15.191  -2.571  18.835  0.3754 -0.1694 -0.0688
 1122PEP     CB41194  15.231  -2.695  18.364 -0.0501  0.0141 -0.0020
 1122PEP     CB41195  15.083  -2.637  17.981 -0.2499 -0.1621 -0.0946
 1122PEP     CB41196  15.197  -2.485  17.533 -0.0802  0.3797  0.2007
 1122PEP     CB41197  15.321  -2.577  17.097 -0.1863  0.2240  0.0238
 1122PEP     CB41198  15.220  -2.435  16.734  0.0280 -0.0661 -0.0437
 1122PEP     CB41199  14.991  -2.191  16.424 -0.0248 -0.1818  0.3339
 1122PEP     CB41200  15.027  -2.019  15.992  0.4008  0.2719  0.0823
 1123PEP     CB41201  18.535  20.595  17.531  0.3428  0.5078  0.2116
 1123PEP     CB41202  18.385  20.241  17.413 -0.4997 -0.0241  0.0686
 1123PEP     CB41203  18.350  19.988  17.011 -0.3619  0.0978 -0.4222
 1123PEP     CB41204  18.530  19.566  16.883 -0.2640  0.2529  0.0910
 1123PEP     CB41205  18.832  19.375  16.632 -0.0471  0.2000 -0.2084
 1123PEP     CB41206  19.197  19.169  16.364  0.2569  0.4485  0.0625
 1123PEP     CB41207  19.390  18.803  16.280 -0.3496  0.0062 -0.1392
 1123PEP     CB41208  19.607  18.473  16.480 -0.1784  0.3319 -0.1416
 1123PEP     CB41209  19.558  18.269  16.894  0.1999 -0.2257  0.1829
 1123PEP     CB41210  19.374  18.329  17.281 -0.2538 -0.3290 -0.1322
 1123PEP     CB41211  18.961  18.363  17.481  0.0077  0.1240  0.5590
 1123PEP     CB41212  18.611  18.155  17.198  0.1971  0.1411  0.0566
 1123PEP     CB41213  18.592  18.046  16.756  0.0571 -0.1955 -0.0166
 1123PEP     CB41214  18.563  17.718  16.498  0.2075 -0.0895  0.3091
 1123PEP     CB41215  18.550  17.382  16.214 -0.2388  0.2453 -0.3269
 1123PEP     CB41216  18.544  16.974  16.274 -0.5713 -0.2312 -0.0337
 1123PEP     CB41217  18.447  16.589  16.068 -0.1430  0.2518  0.1371
 1123PEP     CB41218  18.164  16.378  15.714 -0.0771  0.0523  0.0905
 1123PEP     CB41219  17.965  16.555  15.318 -0.1480  0.0583 -0.1232
 1123PEP     CB41220  18.135  16.721  14.885  0.3426 -0.1751 -0.0426
 1123PEP     CB41221  18.097  16.889  14.491 -0.2496  0.0151  0.0752
 1123PEP     CB41222  17.802  16.780  14.208  0.0533  0.3318 -0.4719
 1123PEP     CB41223  17.660  16.855  13.766 -0.1067  0.0736  0.1695
 1123PEP     CB41224  17.928  16.942  13.344  0.2378  0.1937 -0.2284
 1123PEP     CB41225  18.293  17.162  13.299  0.1610 -0.0460  0.0425
 1123PEP     CB41226  18.425  17.420  13.553  0.1261 -0.0196 -0.1371
 1123PEP     CB41227  18.758  17.448  13.840  0.2698  0.1573 -0.0432
 1123PEP     CB41228  19.117  17.288  13.708 -0.2891  0.0565  0.1829
 1123PEP     CB41229  19.224  16.976  13.481  0.2433 -0.2280 -0.2106
 1123PEP     CB41230  19.426  16.768  13.065  0.0894  0.0998 -0.0869
 1123PEP     CB41231  19.696  16.593  12.708  0.1521  0.0933 -0.2076
 1123PEP     CB41232  20.044  16.549  12.487 -0.0912 -0.3345 -0.2356
 1123PEP     CB41233  20.450  16.530  12.455  0.2547 -0.5655  0.0004
 1123PEP     CB41234  20.679  16.269  12.671 -0.0497 -0.4043 -0.0627
 1123PEP     CB41235  20.583  16.019  13.030  0.2874  0.2629  0.0876
 1123PEP     CB41236  20.475  15.643  13.152  0.2768  0.0342  0.0070
 1123PEP     CB41237  20.202  15.278  13.133 -0.0846  0.3025 -0.3098
 1123PEP     CB41238  19.782  15.371  13.153  0.2728 -0.3361  0.1118
 1123PEP     CB41239  19.532  15.717  13.312  0.1591 -0.2835 -0.2947
 1123PEP     CB41240  19.500  15.820  13.650  0.2099  0.1261  0.0904
 1124PEP     CB41241   1.204   2.881  19.352  0.3623 -0.0075  0.1449
 1124PEP     CB41242   1.464   3.236  19.498  0.0879 -0.0130 -0.1756
 1124PEP     CB41243   1.513   3.636  19.413  0.1952  0.1184 -0.3686
 1124PEP     CB41244   1.655   3.871  19.079 -0.0537 -0.2356 -0.0408
 1124PEP     CB41245   1.718   4.032  18.604 -0.1379  0.2430  0.0652
 1124PEP     CB41246   1.679   4.467  18.510 -0.0569  0.1497  0.1085
 1124PEP     CB41247   1.389   4.613  18.147 -0.1123 -0.2765  0.1279
 1124PEP     CB41248   1.295   4.294  17.717  0.0475  0.2003 -0.0851
 1124PEP     CB41249   1.111   3.865  17.757  0.0963  0.2996 -0.1152
 1124PEP     CB41250   1.270   3.556  18.020  0.2459  0.3777  0.3570
 1124PEP     CB41251   1.360   3.123  18.262  0.3754  0.1368 -0.6254
 1124PEP     CB41252   1.553   2.908  18.539 -0.2089 -0.0087 -0.0683
 1124PEP     CB41253   1.927   2.701  18.553 -0.2950  0.1858 -0.3153
 1124PEP     CB41254   2.432   2.541  18.593 -0.1553  0.1112 -0.1351
 1124PEP     CB41255   2.737   2.554  18.123  0.0969  0.1852  0.0710
 1124PEP     CB41256   2.551   2.403  17.695  0.4344  0.2788  0.2708
 1124PEP     CB41257   2.235   2.630  17.394  0.1008 -0.0608 -0.2432
 1124PEP     CB41258   2.060   2.745  16.934 -0.2275 -0.0406  0.1392
 1124PEP     CB41259   1.842   3.029  16.673  0.1327 -0.0921  0.0884
 1124PEP     CB41260   1.478   3.379  16.681 -0.1189  0.3165  0.4916
 1124PEP     CB41261   1.386   3.909  16.722  0.1678  0.0139  0.1749
 1124PEP     CB41262   1.167   4.259  16.602 -0.3231  0.0070 -0.0727
 1124PEP     CB41263   1.075   4.646  16.746  0.2396 -0.3897 -0.0714
 1124PEP     CB41264   0.958   5.114  16.592  0.4309  0.3955  0.1231
 1124PEP     CB41265   0.728   5.369  16.240  0.0161  0.2366  0.0600
 1124PEP     CB41266   0.682   5.361  15.802  0.1670 -0.2219 -0.2354
 1124PEP     CB41267   0.622   5.083  15.444  0.1164 -0.0157 -0.2497
 1124PEP     CB41268   0.819   4.709  15.332 -0.2833 -0.1556 -0.1657
 1124PEP     CB41269   0.761   4.298  15.168  0.7680 -0.0462  0.0261
 1124PEP     CB41270   0.691   3.879  15.250 -0.0401 -0.0515 -0.1447
 1124PEP     CB41271   0.633   3.523  15.100 -0.1118 -0.0463  0.1185
 1124PEP     CB41272   0.649   3.042  14.959 -0.1521  0.2577 -0.1972
 1124PEP     CB41273   0.305   2.796  14.763 -0.1775 -0.0813 -0.1175
 1124PEP     CB41274  -0.089   3.028  14.740  0.2882 -0.1394 -0.1470
 1124PEP     CB41275  -0.385   3.338  14.678 -0.2253  0.0818  0.1024
 1124PEP     CB41276  -0.860   3.462  14.752  0.5402 -0.5022  0.1312
 1124PEP     CB41277  -1.158   3.678  14.994  0.4387  0.0296 -0.1492
 1124PEP     CB41278  -1.327   4.018  15.103  0.1610  0.1397  0.1215
 1124PEP     CB41279  -1.627   4.410  15.054 -0.1132  0.3161  0.2356
 1124PEP     CB41280  -1.864   4.772  14.894 -0.1816 -0.2682 -0.0647
 1125PEP     CB41281  17.215   1.485  13.295  0.3220  0.2405 -0.0724
 1125PEP     CB41282  16.943   1.799  13.122  0.1389  0.0177 -0.0105
 1125PEP     CB41283  16.731   1.994  12.712  0.0114 -0.0915 -0.1253
 1125PEP     CB41284  16.846   2.083  12.298 -0.2426  0.4796 -0.3357
 1125PEP     CB41285  16.798   2.390  12.054  0.5255  0.3054  0.2548
 1125PEP     CB41286  16.895   2.819  11.934  0.1267  0.4355  0.2071
 1125PEP     CB41287  16.914   3.330  11.767 -0.1935  0.1170  0.0828
 1125PEP     CB41288  16.875   3.762  11.782  0.3744 -0.1971 -0.0798
 1125PEP     CB41289  16.999   4.248  11.931  0.2142 -0.0968  0.0992
 1125PEP     CB41290  17.364   4.477  11.960  0.0546 -0.1354 -0.3466
 1125PEP     CB41291  17.815   4.253  12.058 -0.3454  0.0125 -0.2643
 1125PEP     CB41292  17.897   3.795  12.244 -0.2089  0.0165 -0.0572
 1125PEP     CB41293  17.814   3.376  12.369 -0.0982  0.0444  0.1573
 1125PEP     CB41294  17.763   2.975  12.485  0.1447  0.0071  0.0314
 1125PEP     CB41295  17.620   2.636  12.680 -0.0100  0.0448 -0.1693
 1125PEP     CB41296  17.653   2.193  12.571 -0.2053 -0.1665  0.3475
 1125PEP     CB41297  17.938   1.853  12.714  0.1643 -0.1275  0.5138
 1125PEP     CB41298  18.342   1.897  12.876 -0.1715 -0.2657 -0.1741
 1125PEP     CB41299  18.799   1.815  12.673  0.2831  0.7262 -0.0404
 1125PEP     CB41300  19.153   1.626  12.676  0.0120 -0.7654 -0.1019
 1125PEP     CB41301  19.528   1.618  12.894 -0.0922  0.1009  0.0729
 1125PEP     CB41302  19.967   1.577  13.002  0.1643  0.1432 -0.4628
 1125PEP     CB41303  20.360   1.427  12.869 -0.0319  0.1158  0.2540
 1125PEP     CB41304  20.636   1.053  12.900  0.0930 -0.1290 -0.4158
 1125PEP     CB41305  20.533   0.644  12.822  0.0888 -0.0696  0.3769
 1125PEP     CB41306  20.169   0.562  12.895  0.3604  0.1420  0.1543
 1125PEP     CB41307  19.876   0.544  13.292 -0.1611  0.1476  0.2058
 1125PEP     CB41308  20.019   0.571  13.695  0.2628 -0.2634 -0.2169
 1125PEP     CB41309  20.264   0.890  13.850 -0.1292  0.1108 -0.4224
 1125PEP     CB41310  20.625   1.249  13.866 -0.4747 -0.4867  0.2031
 1125PEP     CB41311  20.988   1.349  14.055 -0.0765 -0.2302  0.1765
 1125PEP     CB41312  21.316   1.081  14.243 -0.3519  0.1596 -0.1813
 1125PEP     CB41313  21.600   0.970  14.559  0.1601  0.1086  0.1065
 1125PEP     CB41314  21.961   0.763  14.588  0.5207  0.4042 -0.1285
 1125PEP     CB41315  22.239   0.475  14.761 -0.0209  0.0236 -0.2558
 1125PEP     CB41316  22.621   0.089  14.766  0.6469  0.0557 -0.0393
 1125PEP     CB41317  22.777  -0.334  14.834 -0.0362  0.0016  0.0538
 1125PEP     CB41318  23.068  -0.622  14.627  0.1114 -0.0820  0.2740
 1125PEP     CB41319  23.404  -0.688  14.358 -0.0295  0.1279 -0.4425
 1125PEP     CB41320  23.616  -0.834  13.943 -0.2045  0.2545 -0.2315
 1126PEP     CB41321  16.024  13.069   5.540  0.1754 -0.0122 -0.2245
 1126PEP     CB41322  15.999  13.525   5.651  0.1549 -0.2515 -0.0484
 1126PEP     CB41323  16.156  13.965   5.533  0.3878 -0.0499 -0.1066
 1126PEP     CB41324  16.288  14.260   5.182  0.4182 -0.3882  0.1721
 1126PEP     CB41325  16.285  13.984   4.750 -0.1247  0.4095 -0.0841
 1126PEP     CB41326  16.090  13.535   4.692 -0.2674 -0.0101 -0.2872
 1126PEP     CB41327  15.899  13.169   4.460  0.1360  0.6023 -0.2054
 1126PEP     CB41328  15.909  12.675   4.556  0.1363  0.0564 -0.0716
 1126PEP     CB41329  15.965  12.510   4.916  0.2446  0.1115  0.1727
 1126PEP     CB41330  15.815  12.493   5.319 -0.1681 -0.1292  0.2225
 1126PEP     CB41331  15.499  12.703   5.573  0.0146 -0.0867 -0.2783
 1126PEP     CB41332  15.161  12.656   5.828 -0.0502 -0.2257  0.0202
 1126PEP     CB41333  14.703  12.602   6.027 -0.0726  0.0191 -0.1140
 1126PEP     CB41334  14.470  12.406   6.348 -0.1261  0.1442 -0.1656
 1126PEP     CB41335  14.354  12.334   6.802  0.0217 -0.0640 -0.1296
 1126PEP     CB41336  13.967  12.220   7.019 -0.4628 -0.0111 -0.6370
 1126PEP     CB41337  13.705  11.927   7.311  0.1023  0.1885  0.0392
 1126PEP     CB41338  13.358  11.860   7.581  0.3519  0.3401  0.0094
 1126PEP     CB41339  12.936  11.846   7.525 -0.1656 -0.3066 -0.3425
 1126PEP     CB41340  12.665  11.918   7.809 -0.0327  0.2903 -0.4033
 1126PEP     CB41341  12.331  11.773   8.049  0.2180 -0.6210  0.0709
 1126PEP     CB41342  12.006  11.577   8.331 -0.0477 -0.3903  0.1028
 1126PEP     CB41343  11.536  11.659   8.253 -0.0725  0.0680 -0.1359
 1126PEP     CB41344  11.177  11.870   8.005 -0.2539 -0.4430 -0.0130
 1126PEP     CB41345  10.805  12.162   7.873  0.1396  0.1630 -0.1057
 1126PEP     CB41346  10.850  12.551   7.613 -0.0037  0.1783 -0.4094
 1126PEP     CB41347  11.127  12.606   7.192 -0.0516 -0.2402  0.0816
 1126PEP     CB41348  11.401  12.260   7.046  0.1647  0.0310 -0.1729
 1126PEP     CB41349  11.471  11.773   7.295 -0.0134  0.0224 -0.3929
 1126PEP     CB41350  11.609  11.349   7.059  0.0586  0.2477 -0.1150
 1126PEP     CB41351  11.742  11.016   6.906 -0.0686 -0.0710 -0.1851
 1126PEP     CB41352  11.486  10.730   6.740 -0.1708  0.1332 -0.2475
 1126PEP     CB41353  10.996  10.772   6.793  0.0362  0.0040 -0.2592
 1126PEP     CB41354  10.819  11.153   6.879 -0.1238  0.2865 -0.2280
 1126PEP     CB41355  10.643  11.501   6.944 -0.0158  0.1383 -0.0109
 1126PEP     CB41356  10.663  11.771   7.292  0.2281 -0.0631  0.3458
 1126PEP     CB41357  11.060  11.881   7.545 -0.0072 -0.1498 -0.4595
 1126PEP     CB41358  11.317  12.154   7.609  0.0863 -0.0135  0.0389
 1126PEP     CB41359  11.792  12.288   7.419 -0.1553  0.0877 -0.2231
 1126PEP     CB41360  12.212  12.512   7.271  0.0767 -0.1567 -0.2776
 1127PEP     CB41361   6.321  10.849  15.708  0.4086  0.1894 -0.1193
 1127PEP     CB41362   6.058  10.983  15.333 -0.1522 -0.1156  0.4475
 1127PEP     CB41363   5.792  11.367  15.194 -0.1548  0.1095  0.0839
 1127PEP     CB41364   5.531  11.423  14.811  0.1051 -0.3621  0.3092
 1127PEP     CB41365   5.359  11.562  14.449 -0.4273 -0.0515 -0.3067
 1127PEP     CB41366   5.118  11.433  14.128  0.1267  0.1786  0.0046
 1127PEP     CB41367   4.905  11.629  13.737 -0.0492 -0.0389 -0.2966
 1127PEP     CB41368   4.725  12.092  13.754 -0.0567  0.4707  0.0402
 1127PEP     CB41369   4.867  12.597  13.913  0.0761  0.0918 -0.0854
 1127PEP     CB41370   5.232  12.834  13.943 -0.2429 -0.0688 -0.2703
 1127PEP     CB41371   5.592  12.872  14.045 -0.1126  0.1444  0.1313
 1127PEP     CB41372   5.714  12.625  14.266  0.1264  0.0754  0.1392
 1127PEP     CB41373   5.578  12.224  14.450  0.1065  0.0042  0.1400
 1127PEP     CB41374   5.335  12.005  14.718 -0.1326  0.1615  0.1696
 1127PEP     CB41375   5.061  11.770  15.021 -0.3267 -0.2598  0.1138
 1127PEP     CB41376   4.641  11.543  15.147  0.2856  0.3735 -0.0873
 1127PEP     CB41377   4.228  11.402  15.000 -0.1108  0.0726  0.3917
 1127PEP     CB41378   3.951  11.433  14.670  0.0439  0.0534 -0.5419
 1127PEP     CB41379   3.604  11.424  14.474  0.0910 -0.0495 -0.1050
 1127PEP     CB41380   3.198  11.387  14.251 -0.1185 -0.1819  0.4588
 1127PEP     CB41381   2.781  11.480  14.065  0.4506  0.0303  0.2255
 1127PEP     CB41382   2.520  11.770  13.838 -0.1254 -0.1346 -0.3546
 1127PEP     CB41383   2.637  12.030  13.435 -0.2080  0.2183 -0.2258
 1127PEP     CB41384   2.334  12.099  12.973 -0.1331 -0.2024 -0.0838
 1127PEP     CB41385   1.919  11.946  12.913 -0.1935 -0.3075 -0.1496
 1127PEP     CB41386   1.492  11.860  12.756 -0.4939 -0.1187 -0.2977
 1127PEP     CB41387   1.131  11.634  12.570  0.3225 -0.2507  0.0171
 1127PEP     CB41388   0.892  11.259  12.673  0.1214 -0.1419  0.0063
 1127PEP     CB41389   0.617  10.909  12.734  0.0298  0.0604  0.2460
 1127PEP     CB41390   0.490  10.562  12.526 -0.5188 -0.0542  0.0281
 1127PEP     CB41391   0.506  10.351  12.185 -0.2864  0.2871  0.0250
 1127PEP     CB41392   0.202  10.451  11.784 -0.1626  0.4159 -0.0750
 1127PEP     CB41393  -0.009  10.822  11.455 -0.2428 -0.2791  0.3678
 1127PEP     CB41394   0.107  10.966  10.980  0.0076 -0.0743  0.3658
 1127PEP     CB41395   0.128  11.362  10.625 -0.1223  0.2529 -0.0777
 1127PEP     CB41396   0.083  11.491  10.277  0.1460  0.2693  0.0160
 1127PEP     CB41397   0.288  11.427   9.835  0.1492  0.1951  0.3117
 1127PEP     CB41398   0.643  11.355   9.627  0.1632  0.0384  0.0971
 1127PEP     CB41399   0.916  11.505   9.305  0.1415  0.0458 -0.0089
 1127PEP     CB41400   1.286  11.462   8.996 -0.0296  0.0618 -0.0977
 1128PEP     CB41401  20.674   5.059   1.009  0.0429 -0.1067  0.0273
 1128PEP     CB41402  20.357   4.725   1.009  0.2939 -0.0858 -0.1024
 1128PEP     CB41403  20.147   4.738   1.441  0.0972  0.1101  0.0483
 1128PEP     CB41404  20.033   4.706   1.868 -0.4776 -0.1122  0.1705
 1128PEP     CB41405  19.801   4.933   2.144 -0.1110  0.1993  0.2191
 1128PEP     CB41406  19.825   5.347   2.334 -0.1807 -0.1701  0.0846
 1128PEP     CB41407  20.249   5.518   2.557 -0.0804  0.0001  0.2487
 1128PEP     CB41408  20.481   5.332   2.883 -0.0201  0.3646  0.3860
 1128PEP     CB41409  20.373   5.297   3.366  0.0548 -0.0857 -0.0995
 1128PEP     CB41410  20.316   5.535   3.711  0.3035 -0.1356  0.0400
 1128PEP     CB41411  20.039   5.605   4.161  0.3410  0.0650  0.3357
 1128PEP     CB41412  19.909   5.734   4.592  0.1830 -0.1315 -0.0117
 1128PEP     CB41413  19.607   5.939   4.793  0.0739 -0.2022 -0.0170
 1128PEP     CB41414  19.087   6.079   4.826  0.3390 -0.1075 -0.4944
 1128PEP     CB41415  18.824   6.150   4.581 -0.0086 -0.4563  0.3905
 1128PEP     CB41416  18.867   6.053   4.121  0.2744 -0.0213 -0.0263
 1128PEP     CB41417  19.144   5.869   3.840 -0.0136  0.1599 -0.1398
 1128PEP     CB41418  19.625   5.783   3.771  0.1547  0.3369 -0.1738
 1128PEP     CB41419  20.011   5.782   3.483 -0.4753 -0.1470  0.2229
 1128PEP     CB41420  20.419   5.872   3.303 -0.0083  0.6526 -0.0490
 1128PEP     CB41421  20.719   5.701   3.344 -0.3436  0.1095 -0.2233
 1128PEP     CB41422  20.933   5.580   3.687 -0.0972 -0.2459  0.1117
 1128PEP     CB41423  21.227   5.386   3.932 -0.0715 -0.0882 -0.2582
 1128PEP     CB41424  21.269   5.205   4.347 -0.2555  0.0200 -0.0367
 1128PEP     CB41425  21.397   5.489   4.742  0.2270  0.0589  0.0642
 1128PEP     CB41426  21.313   5.998   4.827 -0.0942  0.0490 -0.0851
 1128PEP     CB41427  21.365   6.309   4.517  0.0792  0.6908  0.1386
 1128PEP     CB41428  21.481   6.113   4.098 -0.0796 -0.1297  0.2411
 1128PEP     CB41429  21.802   6.058   3.835  0.3662 -0.0397 -0.0840
 1128PEP     CB41430  22.019   6.189   3.527 -0.1593  0.0382 -0.2562
 1128PEP     CB41431  22.546   6.310   3.494  0.1012 -0.1943 -0.1237
 1128PEP     CB41432  22.686   6.743   3.560 -0.3073 -0.0757 -0.1970
 1128PEP     CB41433  23.036   7.026   3.636 -0.4218  0.0839  0.2748
 1128PEP     CB41434  23.267   7.137   3.994  0.4051  0.0989  0.4794
 1128PEP     CB41435  23.122   7.187   4.454 -0.0456  0.0406  0.1306
 1128PEP     CB41436  22.739   7.095   4.522 -0.0678 -0.5052 -0.0244
 1128PEP     CB41437  22.628   6.756   4.760 -0.0083 -0.3202  0.1194
 1128PEP     CB41438  22.549   6.340   4.779  0.0780  0.2655 -0.0143
 1128PEP     CB41439  22.258   6.139   5.156  0.1364 -0.0539  0.0451
 1128PEP     CB41440  22.037   5.891   5.485  0.4048 -0.4019  0.0036
 1129PEP     CB41441  18.056   2.352   6.599  0.1683  0.3586  0.2058
 1129PEP     CB41442  17.966   2.182   6.920 -0.1603 -0.1902 -0.1672
 1129PEP     CB41443  17.701   1.947   7.224  0.0236 -0.2848  0.3242
 1129PEP     CB41444  17.532   1.662   7.522 -0.1977 -0.0445 -0.3533
 1129PEP     CB41445  17.440   1.676   7.925 -0.3273 -0.0349 -0.1473
 1129PEP     CB41446  17.508   1.971   8.221 -0.1904 -0.5213 -0.2041
 1129PEP     CB41447  17.341   2.424   8.288 -0.0204  0.3396  0.1553
 1129PEP     CB41448  17.248   2.872   8.108 -0.1893  0.2232 -0.0593
 1129PEP     CB41449  16.984   3.079   7.845 -0.0355 -0.0710 -0.2362
 1129PEP     CB41450  16.885   3.176   7.460  0.1325 -0.1502  0.0402
 1129PEP     CB41451  16.687   3.437   7.093 -0.0758  0.0272  0.1488
 1129PEP     CB41452  16.609   3.694   6.778  0.0696 -0.0740  0.0806
 1129PEP     CB41453  16.370   3.769   6.460 -0.1847 -0.0692 -0.0171
 1129PEP     CB41454  15.969   4.075   6.453 -0.0603  0.0464  0.2411
 1129PEP     CB41455  15.788   4.200   6.878 -0.1955  0.2202 -0.2589
 1129PEP     CB41456  15.827   3.971   7.301  0.1012  0.2428  0.0936
 1129PEP     CB41457  15.944   3.882   7.706  0.3104  0.0247  0.1217
 1129PEP     CB41458  16.263   3.683   7.744  0.0994 -0.1027 -0.3965
 1129PEP     CB41459  16.352   3.344   7.604  0.2184 -0.2823 -0.1616
 1129PEP     CB41460  16.274   3.040   7.255  0.0935 -0.0157 -0.3686
 1129PEP     CB41461  16.168   2.935   6.855 -0.4069  0.1275 -0.2379
 1129PEP     CB41462  15.981   2.707   6.565 -0.4512 -0.0149 -0.1494
 1129PEP     CB41463  16.209   2.405   6.294 -0.0609 -0.3915  0.0039
 1129PEP     CB41464  16.699   2.393   6.156 -0.0017  0.0492  0.2705
 1129PEP     CB41465  17.150   2.495   6.273  0.0444  0.3868  0.3071
 1129PEP     CB41466  17.541   2.752   6.486 -0.4322 -0.1907 -0.2933
 1129PEP     CB41467  17.492   2.924   6.935 -0.1236 -0.2821  0.1128
 1129PEP     CB41468  17.242   2.890   7.289  0.1557 -0.3111 -0.3343
 1129PEP     CB41469  17.272   2.663   7.655  0.2774  0.3137  0.0803
 1129PEP     CB41470  16.972   2.473   7.933  0.3216 -0.0490  0.0288
 1129PEP     CB41471  16.604   2.417   8.175  0.2666 -0.2375  0.1338
 1129PEP     CB41472  16.422   2.741   8.522 -0.0459 -0.1234 -0.6845
 1129PEP     CB41473  16.283   3.173   8.550  0.3208  0.1944  0.0538
 1129PEP     CB41474  16.157   3.593   8.618  0.2218  0.2198 -0.0597
 1129PEP     CB41475  16.115   4.013   8.554  0.1684 -0.0233 -0.1480
 1129PEP     CB41476  16.025   4.208   8.185  0.0524  0.0501 -0.3391
 1129PEP     CB41477  15.783   4.399   7.883  0.0199 -0.2472 -0.0062
 1129PEP     CB41478  15.840   4.589   7.473 -0.0669  0.2074 -0.2784
 1129PEP     CB41479  16.002   4.650   7.091  0.2967  0.0349  0.0603
 1129PEP     CB41480  16.362   4.782   6.873 -0.2247 -0.1488  0.2813
 1130PEP     CB41481  13.979   0.458  14.690  0.0988  0.3475 -0.2047
 1130PEP     CB41482  14.123   0.120  14.435  0.0317  0.3535  0.2955
 1130PEP     CB41483  14.274  -0.299  14.415 -0.1666 -0.1152  0.1321
 1130PEP     CB41484  14.407  -0.779  14.185 -0.3199 -0.1770 -0.1459
 1130PEP     CB41485  14.197  -1.228  14.150 -0.0001 -0.2468  0.1638
 1130PEP     CB41486  13.970  -1.466  14.492  0.4515 -0.0162  0.5189
 1130PEP     CB41487  13.608  -1.315  14.575 -0.0052 -0.0280  0.1345
 1130PEP     CB41488  13.314  -1.069  14.401  0.4135 -0.0939 -0.3011
 1130PEP     CB41489  13.237  -1.064  13.922  0.2154 -0.3110 -0.2533
 1130PEP     CB41490  13.438  -0.833  13.634 -0.0943 -0.1149 -0.0313
 1130PEP     CB41491  13.740  -0.499  13.672  0.1357  0.2288 -0.4009
 1130PEP     CB41492  14.212  -0.207  13.774  0.0539 -0.0966  0.1431
 1130PEP     CB41493  14.587  -0.325  14.039  0.2225  0.1132  0.4796
 1130PEP     CB41494  14.850  -0.713  13.963  0.2696  0.1001  0.3107
 1130PEP     CB41495  14.653  -1.161  13.747 -0.0814 -0.6730 -0.0680
 1130PEP     CB41496  14.254  -1.343  13.513 -0.0119 -0.0850 -0.0786
 1130PEP     CB41497  14.154  -1.380  13.037  0.0783  0.1503 -0.0284
 1130PEP     CB41498  14.326  -1.360  12.688 -0.1241 -0.1154  0.2248
 1130PEP     CB41499  14.432  -1.573  12.285  0.2249  0.5127  0.2491
 1130PEP     CB41500  14.099  -1.620  12.042 -0.0145 -0.2183 -0.2896
 1130PEP     CB41501  13.697  -1.607  12.138  0.4086  0.1219  0.5619
 1130PEP     CB41502  13.371  -1.606  12.493 -0.0262 -0.1327  0.2404
 1130PEP     CB41503  12.975  -1.570  12.580 -0.4784  0.0611 -0.0639
 1130PEP     CB41504  12.592  -1.407  12.601 -0.4854 -0.4348 -0.1715
 1130PEP     CB41505  12.294  -1.259  12.254 -0.5353  0.0968 -0.1666
 1130PEP     CB41506  12.069  -1.455  11.860 -0.5265 -0.3349  0.2158
 1130PEP     CB41507  11.779  -1.687  11.480 -0.0680 -0.1236  0.1560
 1130PEP     CB41508  11.910  -2.214  11.450 -0.1348 -0.0414  0.3717
 1130PEP     CB41509  12.330  -2.364  11.330  0.2149 -0.0653  0.0221
 1130PEP     CB41510  12.712  -2.144  11.395  0.0604  0.4721 -0.5063
 1130PEP     CB41511  12.932  -1.758  11.494  0.1252 -0.5136  0.2485
 1130PEP     CB41512  13.181  -1.402  11.418  0.1863  0.2302  0.0540
 1130PEP     CB41513  13.078  -0.975  11.176  0.0870  0.0044 -0.4352
 1130PEP     CB41514  13.118  -0.546  11.246 -0.0752  0.0310 -0.0673
 1130PEP     CB41515  13.194  -0.158  11.380 -0.3269  0.3064 -0.2516
 1130PEP     CB41516  13.132   0.193  11.498  0.0832  0.2211  0.1128
 1130PEP     CB41517  12.899   0.576  11.699 -0.0875  0.1593  0.1623
 1130PEP     CB41518  12.710   0.934  11.713  0.0472  0.1968  0.2517
 1130PEP     CB41519  12.357   1.093  11.369  0.1907 -0.0252 -0.3673
 1130PEP     CB41520  12.406   1.176  10.863 -0.0894  0.0050  0.4476
 1131PEP     CB41521  12.808  12.058   0.462 -0.0175 -0.2560 -0.0944
 1131PEP     CB41522  12.820  11.555   0.572 -0.1415  0.5417  0.2074
 1131PEP     CB41523  12.598  11.307   0.591  0.1809  0.0473  0.2035
 1131PEP     CB41524  12.272  11.286   0.859 -0.0125  0.2540 -0.0209
 1131PEP     CB41525  11.836  11.431   0.752  0.1055 -0.0161 -0.0856
 1131PEP     CB41526  11.792  11.802   0.309 -0.1095 -0.2005  0.0321
 1131PEP     CB41527  12.020  11.776  -0.149  0.0509  0.3275  0.1585
 1131PEP     CB41528  11.907  11.350  -0.353 -0.0049 -0.1311  0.0094
 1131PEP     CB41529  11.642  11.029  -0.171  0.0241 -0.0271  0.6183
 1131PEP     CB41530  11.481  11.109   0.267  0.3742 -0.0988 -0.2946
 1131PEP     CB41531  11.268  11.243   0.600  0.1308 -0.0043  0.0780
 1131PEP     CB41532  11.081  11.103   1.062  0.2308 -0.2592 -0.0158
 1131PEP     CB41533  11.032  11.336   1.407  0.2875  0.1748 -0.0308
 1131PEP     CB41534  11.358  11.617   1.482  0.2591  0.2434  0.1135
 1131PEP     CB41535  11.687  11.755   1.249 -0.1314  0.1405 -0.0006
 1131PEP     CB41536  12.090  11.835   0.988  0.1225  0.0964  0.0842
 1131PEP     CB41537  12.549  11.666   1.102 -0.0568 -0.0459 -0.0542
 1131PEP     CB41538  12.859  11.322   1.017  0.0687 -0.0987 -0.1624
 1131PEP     CB41539  12.943  10.917   0.973 -0.1168  0.2264  0.1272
 1131PEP     CB41540  12.676  10.574   0.994 -0.1780 -0.0553  0.1552
 1131PEP     CB41541  12.485  10.230   1.125 -0.1521  0.4730 -0.0356
 1131PEP     CB41542  12.348   9.810   1.208 -0.0236  0.4640 -0.0260
 1131PEP     CB41543  12.292   9.411   1.099 -0.3211 -0.1454 -0.3844
 1131PEP     CB41544  12.144   9.040   0.887 -0.1728 -0.3090 -0.0089
 1131PEP     CB41545  12.079   8.830   0.464 -0.0895  0.0088  0.2350
 1131PEP     CB41546  11.885   8.618   0.233 -0.0317  0.2121  0.1436
 1131PEP     CB41547  11.758   8.612  -0.074  0.0544 -0.0139  0.1788
 1131PEP     CB41548  11.820   8.890  -0.469  0.3775 -0.2804  0.1290
 1131PEP     CB41549  12.123   9.164  -0.654 -0.1685 -0.0800 -0.5550
 1131PEP     CB41550  12.223   9.214  -1.077  0.0097 -0.0147  0.0358
 1131PEP     CB41551  12.396   9.087  -1.450  0.0086 -0.2968 -0.2494
 1131PEP     CB41552  12.485   9.301  -1.813  0.0963 -0.1271  0.2312
 1131PEP     CB41553  12.349   9.706  -1.977 -0.3058  0.1533 -0.4062
 1131PEP     CB41554  12.096   9.899  -2.194  0.2585 -0.4385  0.0609
 1131PEP     CB41555  11.762  10.211  -2.227  0.2078 -0.0044 -0.3626
 1131PEP     CB41556  11.329  10.230  -2.390  0.0255  0.0282  0.0663
 1131PEP     CB41557  11.047  10.069  -2.499 -0.0263 -0.4053  0.3114
 1131PEP     CB41558  10.828   9.779  -2.707 -0.2034 -0.1526  0.3143
 1131PEP     CB41559  10.771   9.506  -2.958  0.1433 -0.2175  0.2641
 1131PEP     CB41560  10.450   9.405  -3.334  0.2154  0.0867 -0.1551
 1132PEP     CB41561  19.288   5.448   8.903  0.1459  0.4929 -0.0393
 1132PEP     CB41562  19.370   5.899   9.144 -0.0078  0.3148 -0.1292
 1132PEP     CB41563  19.571   6.061   9.467 -0.2025 -0.0447 -0.3040
 1132PEP     CB41564  19.706   5.761   9.779  0.2320  0.4655  0.3248
 1132PEP     CB41565  19.678   5.455  10.231  0.0996  0.5684  0.3440
 1132PEP     CB41566  19.828   5.207  10.698 -0.3452 -0.0432 -0.1146
 1132PEP     CB41567  19.758   5.321  11.147  0.0672 -0.2538  0.1985
 1132PEP     CB41568  19.439   5.640  11.220 -0.3604 -0.2199  0.1159
 1132PEP     CB41569  19.031   5.600  11.019 -0.0568  0.7109 -0.2493
 1132PEP     CB41570  18.899   5.216  10.927 -0.3487  0.2428  0.2672
 1132PEP     CB41571  19.131   4.831  10.783 -0.4009  0.2250 -0.2373
 1132PEP     CB41572  19.206   4.569  10.506 -0.0194  0.0048  0.1529
 1132PEP     CB41573  19.327   4.373  10.212 -0.2139  0.1931  0.1336
 1132PEP     CB41574  19.339   4.019   9.960  0.0259  0.1619  0.2772
 1132PEP     CB41575  19.077   3.831   9.700 -0.0986  0.0597 -0.0374
 1132PEP     CB41576  18.713   3.865   9.510  0.0300 -0.1193  0.0881
 1132PEP     CB41577  18.319   4.033   9.747  0.0439  0.1521  0.1827
 1132PEP     CB41578  18.326   4.221  10.172  0.0104 -0.1208  0.0791
 1132PEP     CB41579  18.706   4.537  10.392  0.0279 -0.1226  0.0148
 1132PEP     CB41580  18.755   4.971  10.375  0.1649 -0.4176 -0.0474
 1132PEP     CB41581  18.357   5.267  10.376 -0.1859  0.3000 -0.1442
 1132PEP     CB41582  18.235   5.364   9.946 -0.2316 -0.1301 -0.4448
 1132PEP     CB41583  17.922   5.330   9.514  0.0960  0.3334  0.1752
 1132PEP     CB41584  17.615   5.186   9.194  0.2485  0.2449 -0.5311
 1132PEP     CB41585  17.388   5.414   8.861 -0.1802  0.0024  0.1933
 1132PEP     CB41586  16.980   5.639   8.951  0.1200  0.2339  0.2742
 1132PEP     CB41587  16.855   5.938   9.080 -0.0277  0.2706  0.1087
 1132PEP     CB41588  17.068   6.305   9.043 -0.0419 -0.3824  0.2564
 1132PEP     CB41589  17.389   6.339   8.787  0.1653  0.1467 -0.0753
 1132PEP     CB41590  17.527   6.217   8.404 -0.3547  0.1658 -0.0190
 1132PEP     CB41591  17.325   6.058   8.053 -0.0572 -0.2249 -0.0196
 1132PEP     CB41592  17.071   5.950   7.560 -0.1918 -0.1150 -0.0917
 1132PEP     CB41593  17.145   5.849   7.211  0.2269 -0.2523 -0.1249
 1132PEP     CB41594  17.263   5.555   6.959  0.0546  0.1841 -0.0106
 1132PEP     CB41595  16.989   5.191   6.976  0.1758  0.3093  0.0471
 1132PEP     CB41596  16.957   4.856   6.833 -0.1787 -0.2844 -0.2263
 1132PEP     CB41597  17.276   4.528   6.695  0.0055  0.1212 -0.0555
 1132PEP     CB41598  17.517   4.365   6.999 -0.0354  0.1136 -0.2588
 1132PEP     CB41599  17.453   4.044   7.265 -0.0555 -0.0719 -0.6685
 1132PEP     CB41600  17.527   3.554   7.268  0.2505  0.1184  0.1213
 1133PEP     CB41601   9.057  10.173  16.053 -0.1863  0.0843  0.0246
 1133PEP     CB41602   9.417  10.036  16.200 -0.1649  0.3368 -0.2560
 1133PEP     CB41603   9.794  10.054  16.279 -0.3900  0.1012  0.1259
 1133PEP     CB41604  10.033  10.236  16.561 -0.0392 -0.1141  0.2132
 1133PEP     CB41605   9.990  10.696  16.766 -0.0398  0.0469 -0.0415
 1133PEP     CB41606  10.125  11.063  17.087 -0.1066  0.0676  0.3750
 1133PEP     CB41607  10.352  11.246  17.452  0.0471 -0.0288 -0.0549
 1133PEP     CB41608  10.664  11.478  17.576  0.0602  0.1132  0.1979
 1133PEP     CB41609  10.978  11.667  17.809 -0.1846 -0.0903 -0.2457
 1133PEP     CB41610  11.217  11.954  18.006  0.1660  0.3311 -0.2477
 1133PEP     CB41611  11.562  12.085  18.222 -0.1374 -0.2687  0.0603
 1133PEP     CB41612  11.907  12.349  18.249 -0.1552 -0.1568  0.1118
 1133PEP     CB41613  11.884  12.907  18.344  0.0475 -0.1302 -0.0985
 1133PEP     CB41614  11.538  13.209  18.355  0.0212 -0.5800 -0.1431
 1133PEP     CB41615  11.209  13.179  18.748 -0.2197 -0.1768  0.3231
 1133PEP     CB41616  11.040  13.091  19.155  0.2065  0.4757 -0.6068
 1133PEP     CB41617  11.083  12.852  19.504  0.1494  0.2392 -0.1712
 1133PEP     CB41618  11.172  12.843  19.961 -0.3292 -0.4392 -0.0274
 1133PEP     CB41619  11.374  12.642  20.289  0.0144  0.3240 -0.6331
 1133PEP     CB41620  11.212  12.358  20.661 -0.2403  0.0197  0.0396
 1133PEP     CB41621  11.102  11.941  20.593  0.0543 -0.2153 -0.1164
 1133PEP     CB41622  10.825  11.835  20.254 -0.0361 -0.2657 -0.1493
 1133PEP     CB41623  10.477  11.939  19.995  0.0500 -0.0282 -0.1832
 1133PEP     CB41624  10.327  12.226  19.708 -0.2086  0.0536  0.2455
 1133PEP     CB41625  10.097  12.277  19.320 -0.1762  0.2509  0.1371
 1133PEP     CB41626   9.897  12.303  18.884  0.3637 -0.3142  0.0214
 1133PEP     CB41627   9.662  12.490  18.569  0.2132 -0.2137  0.0445
 1133PEP     CB41628   9.374  12.310  18.266 -0.1631 -0.0371  0.0037
 1133PEP     CB41629   8.995  12.155  18.344  0.1657 -0.2703  0.0189
 1133PEP     CB41630   8.642  12.100  18.701 -0.0908  0.0405  0.3526
 1133PEP     CB41631   8.177  12.074  18.694  0.2826  0.1457  0.3538
 1133PEP     CB41632   7.844  11.776  18.554  0.0182  0.1695 -0.0999
 1133PEP     CB41633   7.412  11.568  18.552  0.3730  0.1006  0.1065
 1133PEP     CB41634   7.284  11.144  18.723 -0.0174  0.0100 -0.1407
 1133PEP     CB41635   7.222  10.728  18.511 -0.2712 -0.2337  0.3456
 1133PEP     CB41636   7.263  10.652  18.122 -0.2868 -0.1405  0.0307
 1133PEP     CB41637   7.242  11.023  17.725 -0.0548  0.3917  0.4222
 1133PEP     CB41638   7.346  11.251  17.370  0.1918  0.1114  0.3178
 1133PEP     CB41639   7.170  11.406  16.919  0.1102 -0.0641  0.0886
 1133PEP     CB41640   6.894  11.710  16.692  0.0467 -0.1340  0.0669
 1134PEP     CB41641   0.181   6.545  20.203 -0.1857 -0.1943 -0.3039
 1134PEP     CB41642   0.551   6.642  19.987  0.0780  0.0695 -0.4341
 1134PEP     CB41643   0.820   7.021  19.910 -0.0611  0.2624 -0.1125
 1134PEP     CB41644   0.788   7.415  19.791 -0.3225  0.1352  0.0879
 1134PEP     CB41645   0.817   7.704  19.455  0.1540  0.0231  0.1974
 1134PEP     CB41646   0.621   7.798  18.999  0.3014 -0.0046 -0.0050
 1134PEP     CB41647   0.484   8.182  18.843 -0.2695  0.3041 -0.0343
 1134PEP     CB41648   0.391   8.550  19.028 -0.4086  0.4456 -0.2824
 1134PEP     CB41649   0.592   8.675  19.461 -0.1631 -0.2158 -0.2545
 1134PEP     CB41650   0.458   8.581  19.937 -0.1124 -0.2434 -0.0799
 1134PEP     CB41651   0.270   8.415  20.318  0.0204  0.0083  0.0532
 1134PEP     CB41652   0.134   8.191  20.638  0.0366  0.0103  0.1751
 1134PEP     CB41653   0.230   8.095  20.924 -0.3412 -0.3274 -0.2223
 1134PEP     CB41654   0.582   7.716  21.118 -0.3091  0.1606 -0.2140
 1134PEP     CB41655   0.762   7.264  21.226 -0.3594  0.1180 -0.2104
 1134PEP     CB41656   0.999   6.956  21.273 -0.3799 -0.1527 -0.2826
 1134PEP     CB41657   1.384   6.662  21.234 -0.1344 -0.2216 -0.2286
 1134PEP     CB41658   1.661   6.357  21.399 -0.0532 -0.0470  0.2340
 1134PEP     CB41659   1.837   6.085  21.280 -0.3152  0.0794 -0.2982
 1134PEP     CB41660   2.049   5.757  21.127  0.0029  0.1893  0.1653
 1134PEP     CB41661   2.298   5.384  21.122  0.0801  0.4809  0.2206
 1134PEP     CB41662   2.665   5.218  20.982 -0.2190 -0.0993 -0.2070
 1134PEP     CB41663   2.972   5.524  20.853  0.2455 -0.0391  0.0451
 1134PEP     CB41664   3.024   5.944  20.647 -0.1558 -0.0663 -0.2391
 1134PEP     CB41665   2.882   6.301  20.681 -0.0645  0.4737 -0.3178
 1134PEP     CB41666   2.726   6.604  21.015 -0.0508 -0.0761  0.0927
 1134PEP     CB41667   2.360   6.917  21.076 -0.0927  0.3492  0.1709
 1134PEP     CB41668   2.135   7.188  20.747 -0.0605  0.4713 -0.0866
 1134PEP     CB41669   1.988   7.168  20.337 -0.1348  0.0868 -0.0306
 1134PEP     CB41670   2.014   7.133  19.946  0.0153 -0.2447  0.2425
 1134PEP     CB41671   1.851   7.133  19.518  0.1121  0.1992 -0.1391
 1134PEP     CB41672   1.912   7.413  19.141 -0.3022  0.3931 -0.0230
 1134PEP     CB41673   1.849   7.813  18.922 -0.0582 -0.0257  0.2551
 1134PEP     CB41674   1.660   8.095  18.757  0.2442  0.0336 -0.0987
 1134PEP     CB41675   1.352   8.279  18.467 -0.2423  0.2657 -0.0787
 1134PEP     CB41676   0.920   8.152  18.203 -0.0817 -0.0528  0.0640
 1134PEP     CB41677   0.838   7.840  18.013 -0.2453 -0.0318  0.0459
 1134PEP     CB41678   1.115   7.618  17.834 -0.0425  0.2296 -0.4596
 1134PEP     CB41679   1.352   7.636  17.406  0.2005 -0.2787 -0.4608
 1134PEP     CB41680   1.176   7.954  17.168 -0.2729  0.1944  0.1328
 1135PEP     CB41681  15.363   6.947   2.930 -0.0226  0.0139 -0.0601
 1135PEP     CB41682  15.337   6.904   3.349  0.1992  0.0966  0.2737
 1135PEP     CB41683  15.327   6.990   3.799  0.3987  0.2891 -0.0037
 1135PEP     CB41684  15.022   7.081   4.070  0.1601 -0.0843 -0.1504
 1135PEP     CB41685  14.737   7.408   4.160 -0.1381  0.1884  0.0553
 1135PEP     CB41686  14.704   7.775   4.261  0.0782  0.0430  0.3727
 1135PEP     CB41687  14.642   8.214   4.031 -0.0632  0.0334  0.0382
 1135PEP     CB41688  14.891   8.455   3.664 -0.0656 -0.3292 -0.0731
 1135PEP     CB41689  14.931   8.455   3.254  0.2748  0.1168  0.1354
 1135PEP     CB41690  15.223   8.501   2.926  0.0900 -0.1230  0.0713
 1135PEP     CB41691  15.559   8.595   2.572 -0.0461 -0.3964 -0.6875
 1135PEP     CB41692  15.962   8.699   2.525  0.3488  0.3480 -0.0199
 1135PEP     CB41693  16.357   8.703   2.691  0.0497  0.2025  0.0064
 1135PEP     CB41694  16.600   8.347   2.864 -0.2648 -0.1325 -0.1967
 1135PEP     CB41695  16.423   8.010   3.213  0.0387 -0.0602 -0.0375
 1135PEP     CB41696  16.392   7.919   3.588  0.2356  0.0686 -0.0587
 1135PEP     CB41697  16.154   8.047   3.970  0.1090  0.2706  0.0634
 1135PEP     CB41698  16.110   8.543   4.082  0.0034  0.0560  0.2936
 1135PEP     CB41699  16.351   8.882   4.147 -0.0658  0.4769  0.1557
 1135PEP     CB41700  16.820   8.839   4.242 -0.1377 -0.2391 -0.0555
 1135PEP     CB41701  16.960   8.408   4.476  0.0816  0.1837  0.2341
 1135PEP     CB41702  16.737   8.418   4.918  0.0038  0.0529 -0.0118
 1135PEP     CB41703  16.708   8.850   5.116  0.0882  0.0370 -0.0959
 1135PEP     CB41704  16.824   9.292   4.854 -0.0547 -0.1694  0.2230
 1135PEP     CB41705  16.810   9.665   4.751 -0.0161  0.2678 -0.0849
 1135PEP     CB41706  16.967   9.924   4.412  0.4276 -0.0033  0.0794
 1135PEP     CB41707  16.908  10.221   4.036  0.0829  0.2350 -0.2634
 1135PEP     CB41708  16.962  10.366   3.617 -0.3484  0.2245 -0.0125
 1135PEP     CB41709  17.086  10.025   3.212  0.0921 -0.1454 -0.1446
 1135PEP     CB41710  17.208   9.568   3.355  0.4606  0.1697 -0.0314
 1135PEP     CB41711  17.179   9.503   3.717  0.2528  0.0940  0.2066
 1135PEP     CB41712  17.156   9.431   4.203  0.2846 -0.0256 -0.2152
 1135PEP     CB41713  17.296   9.526   4.662 -0.0628 -0.4387 -0.1470
 1135PEP     CB41714  17.284   9.331   5.041  0.1836 -0.0389  0.3167
 1135PEP     CB41715  17.013   9.169   5.453  0.2232 -0.0018 -0.0825
 1135PEP     CB41716  16.734   9.278   5.753  0.1164 -0.0091  0.1651
 1135PEP     CB41717  16.520   9.596   5.944  0.1366 -0.0148  0.0185
 1135PEP     CB41718  16.452   9.957   6.011  0.2112 -0.3097 -0.2138
 1135PEP     CB41719  16.472  10.365   6.084  0.1809 -0.1758 -0.2197
 1135PEP     CB41720  16.278  10.597   6.423  0.4381  0.2339 -0.0550
 1136PEP     CB41721   6.963  12.325   2.354 -0.0703 -0.0156  0.1423
 1136PEP     CB41722   7.100  11.887   2.267 -0.1412  0.1203  0.0398
 1136PEP     CB41723   7.073  11.790   1.871  0.0875  0.2514 -0.0120
 1136PEP     CB41724   7.034  12.076   1.537  0.0209  0.2216  0.2066
 1136PEP     CB41725   7.105  12.543   1.322 -0.1410  0.4708 -0.2681
 1136PEP     CB41726   7.217  12.931   1.180 -0.3470  0.0987 -0.2167
 1136PEP     CB41727   7.643  13.141   1.131 -0.0724  0.1782  0.1796
 1136PEP     CB41728   8.126  13.152   1.245  0.2454 -0.0144  0.1769
 1136PEP     CB41729   8.554  13.039   1.148  0.0036  0.0495 -0.3257
 1136PEP     CB41730   9.043  12.936   1.194 -0.6315  0.0474 -0.1841
 1136PEP     CB41731   9.530  12.943   1.192 -0.2624  0.1550 -0.0273
 1136PEP     CB41732   9.915  12.969   1.444 -0.0447  0.1042  0.1413
 1136PEP     CB41733  10.102  13.030   1.895  0.2417 -0.2759 -0.0747
 1136PEP     CB41734  10.281  12.977   2.288  0.1707  0.1553  0.1797
 1136PEP     CB41735  10.148  13.153   2.668 -0.2021 -0.0792 -0.5618
 1136PEP     CB41736   9.962  13.147   3.112 -0.0149 -0.2837  0.0279
 1136PEP     CB41737   9.579  13.110   3.371 -0.0222  0.2209 -0.0597
 1136PEP     CB41738   9.155  13.080   3.590  0.0193 -0.0977 -0.2527
 1136PEP     CB41739   8.696  13.028   3.774 -0.1906 -0.2234  0.3875
 1136PEP     CB41740   8.475  13.234   4.146 -0.1289  0.3987  0.0972
 1136PEP     CB41741   8.115  13.564   4.069  0.0812  0.1774 -0.1128
 1136PEP     CB41742   7.619  13.573   3.977  0.3261 -0.3225  0.0257
 1136PEP     CB41743   7.402  13.271   3.738  0.3771 -0.1649  0.1438
 1136PEP     CB41744   7.479  12.865   3.638  0.3853  0.0808 -0.4616
 1136PEP     CB41745   7.795  12.661   3.942 -0.1968  0.1947 -0.2040
 1136PEP     CB41746   7.687  12.511   4.337 -0.2618 -0.0587  0.0162
 1136PEP     CB41747   7.426  12.694   4.626 -0.0729 -0.2838  0.0938
 1136PEP     CB41748   7.120  13.073   4.521 -0.0626 -0.1332 -0.1018
 1136PEP     CB41749   7.007  13.311   4.172  0.2180 -0.0514  0.1751
 1136PEP     CB41750   7.048  13.719   3.791  0.0770  0.2098 -0.0921
 1136PEP     CB41751   7.384  13.739   3.461  0.3371  0.0886  0.1720
 1136PEP     CB41752   7.596  13.378   3.299  0.2594  0.1697 -0.0996
 1136PEP     CB41753   7.893  12.995   3.100 -0.1332 -0.0398  0.3139
 1136PEP     CB41754   7.733  12.567   2.909 -0.1303 -0.0722 -0.2436
 1136PEP     CB41755   7.552  12.212   2.950  0.0640 -0.3015  0.1287
 1136PEP     CB41756   7.293  11.891   2.942  0.0691 -0.4118  0.2124
 1136PEP     CB41757   7.483  11.506   3.099 -0.1163 -0.2491  0.0135
 1136PEP     CB41758   7.901  11.566   3.129  0.0342  0.0732  0.0092
 1136PEP     CB41759   8.303  11.456   3.236 -0.2735 -0.0911  0.3045
 1136PEP     CB41760   8.617  11.612   3.472  0.1494  0.0206  0.0853
 1137PEP     CB41761   5.017  13.349  21.447  0.3833 -0.2009  0.1244
 1137PEP     CB41762   5.549  13.464  21.473 -0.0991  0.1797 -0.0579
 1137PEP     CB41763   5.981  13.411  21.405 -0.2706 -0.2972 -0.0903
 1137PEP     CB41764   6.252  13.260  21.759 -0.0549  0.1077 -0.4066
 1137PEP     CB41765   6.547  13.259  22.029  0.1329 -0.0984 -0.3462
 1137PEP     CB41766   6.770  12.961  22.376 -0.0715  0.0277 -0.3071
 1137PEP     CB41767   6.974  12.692  22.775 -0.0798  0.1014  0.4158
 1137PEP     CB41768   6.786  12.380  23.029 -0.2186  0.0617 -0.2835
 1137PEP     CB41769   6.389  12.052  22.992  0.1681 -0.1560  0.0334
 1137PEP     CB41770   5.952  11.940  22.971  0.1281 -0.0495  0.1412
 1137PEP     CB41771   5.596  12.052  23.207  0.0204  0.1900 -0.0868
 1137PEP     CB41772   5.163  12.045  23.367  0.0062  0.1339 -0.0279
 1137PEP     CB41773   4.765  11.744  23.329 -0.1654  0.0429  0.0383
 1137PEP     CB41774   4.530  11.372  23.256 -0.0164  0.0092 -0.0188
 1137PEP     CB41775   4.207  11.039  23.178  0.1728 -0.0219  0.1044
 1137PEP     CB41776   3.909  10.641  23.125  0.2490  0.1001  0.2257
 1137PEP     CB41777   3.746  10.142  23.293  0.1112  0.1983 -0.2961
 1137PEP     CB41778   3.572   9.752  23.200  0.2464 -0.0616 -0.1691
 1137PEP     CB41779   3.336   9.593  22.820  0.0228  0.3580 -0.0660
 1137PEP     CB41780   3.066   9.594  22.621  0.0794  0.3843 -0.0571
 1137PEP     CB41781   2.734   9.655  22.318  0.6338 -0.0910 -0.1310
 1137PEP     CB41782   2.348   9.415  22.291  0.3325  0.0063 -0.0281
 1137PEP     CB41783   2.418   8.946  22.283 -0.3793  0.2190 -0.0359
 1137PEP     CB41784   2.673   8.587  22.459  0.1586  0.3383  0.1566
 1137PEP     CB41785   2.593   8.296  22.782  0.0070 -0.0389  0.0934
 1137PEP     CB41786   2.400   8.447  23.273 -0.0420 -0.5837 -0.0896
 1137PEP     CB41787   2.080   8.763  23.211 -0.2465  0.2492 -0.2648
 1137PEP     CB41788   1.727   8.872  22.940  0.0898 -0.1620 -0.0197
 1137PEP     CB41789   1.280   8.898  22.793 -0.4085  0.0539  0.0060
 1137PEP     CB41790   1.175   9.253  22.492 -0.1096  0.3253  0.1387
 1137PEP     CB41791   1.506   9.408  22.328 -0.1553 -0.0500 -0.1630
 1137PEP     CB41792   1.885   9.641  22.366 -0.0595  0.0076  0.1840
 1137PEP     CB41793   2.243   9.763  22.662 -0.0023 -0.0592  0.0234
 1137PEP     CB41794   2.580   9.428  22.797 -0.6002  0.1247 -0.0740
 1137PEP     CB41795   2.590   8.974  22.927 -0.0498  0.4444 -0.0022
 1137PEP     CB41796   2.894   8.662  23.056 -0.2272 -0.4057  0.0456
 1137PEP     CB41797   3.004   8.232  23.316 -0.0332 -0.1611  0.0443
 1137PEP     CB41798   3.260   7.818  23.408  0.0314 -0.1004  0.0946
 1137PEP     CB41799   3.558   7.577  23.353 -0.2404  0.0788  0.2723
 1137PEP     CB41800   3.619   7.187  23.591  0.0420  0.1631 -0.0464
 1138PEP     CB41801  21.940  10.446   4.959  0.3383 -0.1154  0.1586
 1138PEP     CB41802  21.889  10.417   5.437  0.0827  0.4007  0.2922
 1138PEP     CB41803  21.918  10.144   5.826  0.1480  0.4215  0.2190
 1138PEP     CB41804  22.036   9.738   5.956 -0.2128 -0.3528  0.0157
 1138PEP     CB41805  22.341   9.386   5.832  0.2575  0.2215 -0.0797
 1138PEP     CB41806  22.314   9.170   5.403  0.0825 -0.0869  0.3182
 1138PEP     CB41807  22.112   9.496   5.024 -0.1908 -0.2500 -0.0523
 1138PEP     CB41808  21.906   9.913   5.064  0.1077 -0.1962  0.0140
 1138PEP     CB41809  21.547   9.956   5.438  0.4145  0.1785  0.2430
 1138PEP     CB41810  21.425  10.188   5.769 -0.1726 -0.3964  0.3378
 1138PEP     CB41811  21.411  10.638   5.922  0.0694 -0.2169 -0.2240
 1138PEP     CB41812  21.276  11.025   5.823 -0.1026 -0.0497  0.1587
 1138PEP     CB41813  21.255  11.398   6.040  0.1127  0.1076 -0.1757
 1138PEP     CB41814  21.368  11.529   6.491  0.0159  0.0153 -0.2191
 1138PEP     CB41815  21.633  11.234   6.758 -0.1806  0.2040  0.1320
 1138PEP     CB41816  22.047  11.148   7.024  0.4092  0.2088 -0.1114
 1138PEP     CB41817  22.137  11.374   7.404 -0.2644  0.1636  0.1679
 1138PEP     CB41818  21.924  11.870   7.503 -0.2652 -0.1081  0.1066
 1138PEP     CB41819  21.717  12.252   7.477 -0.0319 -0.2189  0.0041
 1138PEP     CB41820  21.521  12.638   7.482 -0.2826  0.1683 -0.1513
 1138PEP     CB41821  21.584  13.104   7.511  0.4374 -0.3383 -0.0764
 1138PEP     CB41822  21.761  13.552   7.548  0.0092 -0.1802  0.0787
 1138PEP     CB41823  21.746  13.941   7.542 -0.0672 -0.0089 -0.3837
 1138PEP     CB41824  21.397  14.155   7.692  0.0699  0.1071 -0.3176
 1138PEP     CB41825  20.965  14.329   7.649 -0.2068  0.1214 -0.0106
 1138PEP     CB41826  20.669  14.437   7.462  0.3435  0.2159  0.2591
 1138PEP     CB41827  20.411  14.579   7.087 -0.4463 -0.2326  0.0847
 1138PEP     CB41828  20.419  14.873   6.851 -0.0610 -0.1417 -0.3029
 1138PEP     CB41829  20.709  14.953   6.546 -0.2466  0.0867 -0.0070
 1138PEP     CB41830  20.968  14.898   6.175 -0.1120 -0.2163 -0.4742
 1138PEP     CB41831  21.400  14.655   6.153 -0.1165  0.2123 -0.2276
 1138PEP     CB41832  21.742  14.700   6.364  0.0009  0.0602 -0.1600
 1138PEP     CB41833  22.011  15.015   6.604 -0.1289  0.2651  0.0393
 1138PEP     CB41834  22.278  15.276   6.384 -0.0363 -0.4739  0.4287
 1138PEP     CB41835  22.227  15.711   6.497  0.0065 -0.0732  0.1447
 1138PEP     CB41836  22.336  16.123   6.588  0.0358  0.3561  0.2940
 1138PEP     CB41837  22.255  16.508   6.556  0.2790 -0.0245  0.0880
 1138PEP     CB41838  21.861  16.742   6.632 -0.3305  0.0033 -0.3957
 1138PEP     CB41839  21.596  16.695   6.937 -0.1478  0.0197  0.2074
 1138PEP     CB41840  21.128  16.684   6.916  0.1315 -0.0099  0.5199
 1139PEP     CB41841   6.524   0.646  13.712  0.1619  0.3009 -0.0528
 1139PEP     CB41842   6.203   0.345  13.679  0.3259 -0.5097 -0.0599
 1139PEP     CB41843   5.885   0.412  13.392 -0.1171  0.4127 -0.1396
 1139PEP     CB41844   5.771   0.571  13.054 -0.1708 -0.1488  0.0798
 1139PEP     CB41845   5.513   0.761  12.757 -0.1525 -0.0436 -0.3795
 1139PEP     CB41846   5.189   1.073  12.668 -0.1337  0.4314 -0.1204
 1139PEP     CB41847   4.892   1.418  12.671 -0.1420  0.5475 -0.2581
 1139PEP     CB41848   4.635   1.760  13.007 -0.1766 -0.1520  0.1887
 1139PEP     CB41849   4.371   2.150  13.053 -0.3529 -0.2508 -0.0012
 1139PEP     CB41850   4.180   2.226  13.359 -0.0084  0.2210 -0.1950
 1139PEP     CB41851   4.402   2.254  13.757 -0.1422  0.0200 -0.1474
 1139PEP     CB41852   4.920   2.318  13.802 -0.0996  0.0947 -0.4975
 1139PEP     CB41853   5.240   2.367  13.437  0.1011 -0.0112 -0.0383
 1139PEP     CB41854   5.197   2.233  13.010  0.2790 -0.2172  0.1562
 1139PEP     CB41855   4.805   2.285  12.820  0.1955  0.2037  0.2333
 1139PEP     CB41856   4.797   2.431  12.430  0.1448 -0.0297 -0.0931
 1139PEP     CB41857   4.866   2.370  11.974 -0.2011 -0.0518 -0.0696
 1139PEP     CB41858   5.252   2.345  11.678 -0.4156 -0.0253 -0.1636
 1139PEP     CB41859   5.637   2.338  11.465 -0.2548 -0.0253 -0.4346
 1139PEP     CB41860   5.766   2.547  11.094 -0.0716  0.0631 -0.0477
 1139PEP     CB41861   5.945   3.006  11.015  0.1989  0.2388 -0.0169
 1139PEP     CB41862   6.077   3.378  10.787 -0.2717  0.3745  0.0932
 1139PEP     CB41863   6.280   3.810  10.751  0.1477 -0.3750  0.2103
 1139PEP     CB41864   6.459   4.189  10.369 -0.1438 -0.0002  0.0670
 1139PEP     CB41865   6.616   4.160   9.978 -0.1177  0.2589 -0.3834
 1139PEP     CB41866   6.764   4.358   9.572  0.3907  0.3612  0.2668
 1139PEP     CB41867   6.812   4.559   9.203 -0.0539 -0.1823  0.0478
 1139PEP     CB41868   7.108   4.443   8.872 -0.1649  0.1953  0.1619
 1139PEP     CB41869   7.191   4.259   8.498 -0.1486 -0.2971  0.0995
 1139PEP     CB41870   7.349   3.850   8.587  0.1918  0.0661  0.1207
 1139PEP     CB41871   7.390   3.619   9.048 -0.1564  0.1008 -0.0390
 1139PEP     CB41872   7.633   3.404   9.312  0.0290  0.0019 -0.0284
 1139PEP     CB41873   7.947   2.979   9.498  0.2408 -0.3609 -0.1530
 1139PEP     CB41874   8.069   2.649   9.843 -0.0566 -0.1653  0.1569
 1139PEP     CB41875   8.417   2.755   9.990  0.0584  0.3052  0.1117
 1139PEP     CB41876   8.646   2.991   9.678  0.1222  0.0800  0.0951
 1139PEP     CB41877   8.787   3.439   9.710  0.0809  0.1045 -0.2573
 1139PEP     CB41878   8.521   3.710   9.534 -0.2383 -0.0645 -0.1114
 1139PEP     CB41879   8.179   3.513   9.335 -0.0755 -0.1971  0.0119
 1139PEP     CB41880   8.057   3.214   9.035 -0.0475  0.1128  0.0408
 1140PEP     CB41881  12.084  14.888  15.987 -0.0187 -0.0490  0.1537
 1140PEP     CB41882  11.747  14.677  16.201  0.2610 -0.0423  0.0787
 1140PEP     CB41883  11.652  14.349  16.365  0.2374  0.0757  0.0443
 1140PEP     CB41884  11.650  13.916  16.445  0.0972 -0.0418 -0.1726
 1140PEP     CB41885  11.919  13.530  16.612 -0.3798  0.3628  0.2679
 1140PEP     CB41886  12.051  13.262  16.920  0.2824  0.0766  0.0572
 1140PEP     CB41887  12.258  13.170  17.281 -0.0746 -0.0051  0.0543
 1140PEP     CB41888  12.496  13.356  17.595  0.1915  0.2537  0.0333
 1140PEP     CB41889  12.543  13.779  17.601 -0.1369  0.1594  0.2541
 1140PEP     CB41890  12.256  14.133  17.383 -0.1591 -0.0912  0.1407
 1140PEP     CB41891  11.926  14.130  16.927 -0.4128 -0.0954 -0.1645
 1140PEP     CB41892  12.105  13.988  16.534 -0.3996 -0.0252  0.1871
 1140PEP     CB41893  12.558  13.899  16.442  0.0501  0.2366  0.0225
 1140PEP     CB41894  12.878  14.207  16.641 -0.2715 -0.1695  0.1676
 1140PEP     CB41895  13.081  14.588  16.808 -0.1645 -0.1445  0.1345
 1140PEP     CB41896  13.169  14.541  17.248 -0.2286 -0.0992  0.1613
 1140PEP     CB41897  13.172  14.092  17.422  0.1011  0.1502 -0.0051
 1140PEP     CB41898  12.938  13.876  17.876 -0.0846 -0.0933  0.3440
 1140PEP     CB41899  12.786  14.225  18.195 -0.0128 -0.0984 -0.5088
 1140PEP     CB41900  12.582  14.732  18.072 -0.2340 -0.1045 -0.0675
 1140PEP     CB41901  12.420  15.112  17.952 -0.3563  0.1307 -0.0468
 1140PEP     CB41902  12.382  15.356  17.617  0.3228  0.5846 -0.1231
 1140PEP     CB41903  11.975  15.600  17.504  0.0858  0.2440 -0.0170
 1140PEP     CB41904  11.659  15.913  17.530 -0.2607 -0.3013  0.0931
 1140PEP     CB41905  11.573  16.376  17.548 -0.0868 -0.0656  0.4042
 1140PEP     CB41906  11.734  16.760  17.361 -0.1635  0.4274  0.3012
 1140PEP     CB41907  11.534  17.108  17.230  0.1873  0.0186 -0.1542
 1140PEP     CB41908  11.157  17.327  17.324  0.2645 -0.2459  0.0345
 1140PEP     CB41909  10.914  17.207  17.720  0.0471  0.0146  0.2226
 1140PEP     CB41910  10.702  16.843  17.725 -0.0669 -0.0227 -0.0160
 1140PEP     CB41911  10.490  16.750  17.395 -0.0387 -0.1834 -0.0763
 1140PEP     CB41912  10.584  16.811  16.986  0.0448 -0.2675  0.1220
 1140PEP     CB41913  10.628  16.724  16.553 -0.1560  0.0406  0.3299
 1140PEP     CB41914  10.272  16.515  16.255  0.5141  0.1523 -0.0565
 1140PEP     CB41915  10.003  16.187  16.289  0.0560  0.1016 -0.3170
 1140PEP     CB41916  10.069  15.892  16.676  0.1902  0.2778  0.4491
 1140PEP     CB41917  10.154  15.448  16.943  0.1562  0.0903 -0.0359
 1140PEP     CB41918  10.003  15.072  17.036  0.2407  0.3558 -0.4532
 1140PEP     CB41919   9.836  14.674  17.135  0.0141  0.2975 -0.1333
 1140PEP     CB41920   9.604  14.329  16.907 -0.1670  0.2834  0.0771
 1141PEP     CB41921  21.144  13.820   0.352 -0.2785  0.0437  0.1123
 1141PEP     CB41922  21.132  13.852   0.832  0.1879  0.4007 -0.1580
 1141PEP     CB41923  21.150  13.710   1.247 -0.0186 -0.1336  0.3553
 1141PEP     CB41924  21.389  13.483   1.535 -0.0910 -0.1890  0.3469
 1141PEP     CB41925  21.697  13.395   1.871 -0.1641  0.2610 -0.0444
 1141PEP     CB41926  21.551  13.273   2.267 -0.0909  0.1425 -0.2651
 1141PEP     CB41927  21.045  13.477   2.440 -0.0834  0.0013 -0.2588
 1141PEP     CB41928  20.803  13.820   2.619 -0.2581 -0.2547 -0.0414
 1141PEP     CB41929  20.577  14.212   2.751 -0.1868 -0.3140  0.2231
 1141PEP     CB41930  20.143  14.188   2.739 -0.1536  0.0674 -0.2950
 1141PEP     CB41931  19.872  14.328   2.465 -0.3970  0.0372  0.0777
 1141PEP     CB41932  19.634  14.358   2.167  0.2757 -0.0303  0.0365
 1141PEP     CB41933  19.599  14.254   1.772  0.0959  0.1908  0.3008
 1141PEP     CB41934  19.363  14.106   1.520  0.0374 -0.4094  0.4382
 1141PEP     CB41935  19.327  13.862   1.190  0.2137  0.3473 -0.1461
 1141PEP     CB41936  19.403  13.511   0.923 -0.0211 -0.1621 -0.1617
 1141PEP     CB41937  19.607  13.253   0.600  0.1345  0.3848 -0.0260
 1141PEP     CB41938  19.976  13.208   0.356  0.0877 -0.0004  0.0494
 1141PEP     CB41939  20.382  13.444   0.301 -0.1252 -0.2172  0.6285
 1141PEP     CB41940  20.717  13.583   0.038  0.1899  0.0796 -0.2889
 1141PEP     CB41941  21.029  13.874  -0.164  0.1380 -0.6481 -0.1372
 1141PEP     CB41942  21.398  14.100  -0.455 -0.0311 -0.4895  0.4295
 1141PEP     CB41943  21.776  14.247  -0.728  0.2045  0.1185 -0.1450
 1141PEP     CB41944  22.272  14.240  -0.740  0.1360 -0.0352  0.2665
 1141PEP     CB41945  22.462  14.585  -0.652  0.4592 -0.1116  0.2900
 1141PEP     CB41946  22.220  14.822  -0.518 -0.0286 -0.1610  0.0801
 1141PEP     CB41947  22.165  15.149  -0.182  0.0100  0.0971  0.1142
 1141PEP     CB41948  22.086  15.516   0.016 -0.1505  0.4863 -0.0690
 1141PEP     CB41949  22.124  15.827   0.417 -0.4172  0.0782  0.1426
 1141PEP     CB41950  22.293  15.815   0.842 -0.2386  0.1201  0.0245
 1141PEP     CB41951  22.474  15.512   1.122 -0.2725 -0.1880  0.2965
 1141PEP     CB41952  22.581  15.035   1.109 -0.1518  0.1781 -0.1049
 1141PEP     CB41953  22.897  14.823   1.092 -0.0738 -0.0873  0.3152
 1141PEP     CB41954  23.304  14.903   1.312  0.2397  0.2285 -0.2510
 1141PEP     CB41955  23.670  14.924   1.553 -0.1369  0.2125 -0.3230
 1141PEP     CB41956  24.106  14.995   1.769 -0.2145 -0.0411 -0.0318
 1141PEP     CB41957  24.402  15.306   1.907 -0.0967  0.6883  0.0477
 1141PEP     CB41958  24.501  15.618   1.793 -0.1701  0.1138 -0.0998
 1141PEP     CB41959  24.447  16.045   1.579  0.4178 -0.0248 -0.0278
 1141PEP     CB41960  24.285  16.250   1.249  0.0358  0.1199 -0.3040
 1142PEP     CB41961   8.744   7.735   0.386  0.3478  0.0581  0.1262
 1142PEP     CB41962   8.645   8.133   0.411 -0.1785 -0.2940  0.1713
 1142PEP     CB41963   8.411   8.370   0.074  0.7534  0.2550 -0.3762
 1142PEP     CB41964   8.478   8.213  -0.398  0.4262 -0.2070  0.0090
 1142PEP     CB41965   8.582   7.949  -0.583  0.1118  0.2444 -0.2792
 1142PEP     CB41966   8.777   7.836  -0.884  0.3880 -0.2035  0.0936
 1142PEP     CB41967   9.100   7.944  -1.099 -0.1836 -0.3144  0.0593
 1142PEP     CB41968   9.439   8.149  -1.353  0.0505 -0.0008  0.0181
 1142PEP     CB41969   9.682   8.092  -1.748  0.1112  0.0910  0.1245
 1142PEP     CB41970  10.106   8.299  -1.976 -0.0328 -0.3040  0.1997
 1142PEP     CB41971  10.584   8.304  -1.926 -0.0468  0.1189  0.2986
 1142PEP     CB41972  10.994   8.194  -1.740 -0.2328  0.2417 -0.1351
 1142PEP     CB41973  11.405   8.235  -1.715  0.1399 -0.2469  0.0242
 1142PEP     CB41974  11.914   8.223  -1.871  0.0346 -0.0629  0.3040
 1142PEP     CB41975  12.376   8.393  -1.871  0.2116  0.1070 -0.3142
 1142PEP     CB41976  12.586   8.709  -1.728  0.1844  0.0638 -0.0577
 1142PEP     CB41977  12.937   8.781  -1.521 -0.1296  0.3095  0.3885
 1142PEP     CB41978  13.035   9.108  -1.133 -0.0919 -0.2333  0.3361
 1142PEP     CB41979  12.728   9.316  -0.920 -0.1244 -0.1078  0.0907
 1142PEP     CB41980  12.498   9.007  -0.448  0.0003 -0.0538  0.0613
 1142PEP     CB41981  12.326   8.637  -0.295 -0.2038  0.1950 -0.0746
 1142PEP     CB41982  12.535   8.194  -0.488  0.2951 -0.0343  0.1020
 1142PEP     CB41983  12.412   8.033  -0.859  0.2436  0.0697 -0.1788
 1142PEP     CB41984  12.219   8.183  -1.309 -0.1209  0.1178 -0.2928
 1142PEP     CB41985  11.979   8.578  -1.468 -0.0072  0.1248  0.2822
 1142PEP     CB41986  11.918   8.797  -1.739 -0.0314  0.0736  0.1965
 1142PEP     CB41987  11.978   9.209  -1.910  0.0712  0.5328 -0.1151
 1142PEP     CB41988  11.954   9.374  -2.327 -0.1440  0.0130  0.4432
 1142PEP     CB41989  11.668   9.060  -2.572 -0.4057  0.3064  0.1524
 1142PEP     CB41990  11.248   8.928  -2.369 -0.0039  0.1056 -0.3354
 1142PEP     CB41991  11.146   8.904  -1.950 -0.2336 -0.0648 -0.1308
 1142PEP     CB41992  11.005   9.324  -1.775 -0.1897  0.1085 -0.0889
 1142PEP     CB41993  11.242   9.569  -1.557  0.5069 -0.2958 -0.0628
 1142PEP     CB41994  11.651   9.584  -1.277  0.0329  0.1339 -0.3571
 1142PEP     CB41995  12.080   9.609  -1.343  0.0374 -0.0300 -0.0871
 1142PEP     CB41996  12.562   9.645  -1.432  0.4008 -0.3185  0.0531
 1142PEP     CB41997  12.941   9.448  -1.404 -0.1026 -0.0742  0.2205
 1142PEP     CB41998  13.333   9.203  -1.503  0.0432 -0.2103 -0.1143
 1142PEP     CB41999  13.459   8.739  -1.519  0.2478  0.2328 -0.3623
 1142PEP     CB42000  13.720   8.484  -1.237  0.0277 -0.1181  0.1925
 1143PEP     CB42001   3.631  11.705   3.474  0.3160  0.0133 -0.1331
 1143PEP     CB42002   3.936  11.710   3.719 -0.0014 -0.1426 -0.1736
 1143PEP     CB42003   4.409  11.910   3.725  0.3474  0.0740 -0.2342
 1143PEP     CB42004   4.634  12.078   4.059  0.3504 -0.0600  0.2380
 1143PEP     CB42005   4.562  12.379   4.305  0.0162 -0.1113  0.2318
 1143PEP     CB42006   4.537  12.862   4.275 -0.0386  0.2082  0.0760
 1143PEP     CB42007   4.588  13.283   4.306 -0.2390  0.0418  0.1470
 1143PEP     CB42008   4.796  13.687   4.256 -0.1343  0.2630 -0.0917
 1143PEP     CB42009   4.996  14.079   4.250  0.1972  0.1540  0.0094
 1143PEP     CB42010   5.192  14.371   4.418  0.2699  0.1262  0.2267
 1143PEP     CB42011   5.407  14.290   4.781 -0.1632 -0.1007  0.3539
 1143PEP     CB42012   5.249  14.329   5.230 -0.3310 -0.2620 -0.3831
 1143PEP     CB42013   5.009  14.610   5.516 -0.0808  0.2171  0.4429
 1143PEP     CB42014   4.740  14.791   5.836 -0.1815 -0.1712  0.0789
 1143PEP     CB42015   4.653  15.021   6.243  0.1454 -0.2295  0.0645
 1143PEP     CB42016   4.384  14.968   6.555  0.1178 -0.1040  0.1340
 1143PEP     CB42017   4.226  15.058   6.990  0.2298  0.1854 -0.0908
 1143PEP     CB42018   4.079  15.371   7.280  0.1473  0.3339 -0.0691
 1143PEP     CB42019   4.228  15.613   7.562  0.1838 -0.0158  0.1959
 1143PEP     CB42020   4.275  16.095   7.546  0.0664  0.2809  0.0335
 1143PEP     CB42021   4.471  16.371   7.600 -0.2631  0.0152 -0.2480
 1143PEP     CB42022   4.770  16.514   7.756 -0.2998  0.0341 -0.1532
 1143PEP     CB42023   5.177  16.753   7.710  0.3242 -0.1278  0.1164
 1143PEP     CB42024   5.171  17.169   7.534  0.1481  0.2628  0.3593
 1143PEP     CB42025   5.200  17.486   7.282  0.2849  0.2003 -0.1160
 1143PEP     CB42026   5.295  18.068   7.196 -0.4786  0.0412  0.1225
 1143PEP     CB42027   5.474  18.435   7.102 -0.1351  0.0460 -0.3539
 1143PEP     CB42028   5.863  18.697   6.979  0.2287  0.3615 -0.2120
 1143PEP     CB42029   5.988  18.857   6.619  0.0501  0.1288 -0.1821
 1143PEP     CB42030   5.918  18.947   6.248 -0.1616  0.2291  0.2968
 1143PEP     CB42031   5.723  19.267   6.160 -0.1105  0.5833  0.2176
 1143PEP     CB42032   5.411  19.345   6.448  0.2952 -0.2807 -0.0348
 1143PEP     CB42033   5.307  19.394   6.862 -0.1517  0.4459 -0.1362
 1143PEP     CB42034   5.481  19.566   7.283 -0.1210 -0.1691 -0.0469
 1143PEP     CB42035   5.719  19.859   7.591  0.0163 -0.0561 -0.2321
 1143PEP     CB42036   6.159  19.775   7.714 -0.1671 -0.0540 -0.0666
 1143PEP     CB42037   6.554  19.568   7.634  0.0720 -0.2190  0.4417
 1143PEP     CB42038   6.935  19.844   7.419  0.0635 -0.0404 -0.0056
 1143PEP     CB42039   7.155  20.198   7.510  0.1700 -0.1668 -0.0341
 1143PEP     CB42040   7.244  20.415   7.833  0.2863 -0.1016 -0.1470
 1144PEP     CB42041  15.115  11.899   8.371  0.2372  0.2238  0.0333
 1144PEP     CB42042  15.083  11.628   8.036 -0.3028  0.2208  0.1748
 1144PEP     CB42043  15.200  11.290   7.758 -0.1337 -0.1368  0.1010
 1144PEP     CB42044  15.488  11.020   7.753  0.1147  0.1488  0.0657
 1144PEP     CB42045  15.822  10.736   7.887 -0.2982 -0.0397  0.1378
 1144PEP     CB42046  15.909  10.351   8.208 -0.1570 -0.2881  0.1347
 1144PEP     CB42047  15.884   9.968   8.482  0.2507  0.1439 -0.3938
 1144PEP     CB42048  16.128   9.780   8.739 -0.1010 -0.1954  0.1471
 1144PEP     CB42049  16.056  10.026   9.201 -0.1571  0.2082  0.1245
 1144PEP     CB42050  16.070  10.522   9.184 -0.1377  0.4537 -0.4203
 1144PEP     CB42051  16.282  10.864   8.874 -0.2490 -0.3615  0.3313
 1144PEP     CB42052  16.219  11.203   8.487  0.1719 -0.0997 -0.1319
 1144PEP     CB42053  16.451  11.551   8.239 -0.3861 -0.0223 -0.1848
 1144PEP     CB42054  16.482  11.916   7.959  0.1585  0.0534 -0.0635
 1144PEP     CB42055  16.348  12.406   8.108 -0.4525  0.0953  0.3662
 1144PEP     CB42056  16.231  12.730   7.856 -0.4248  0.4390  0.1900
 1144PEP     CB42057  16.306  12.744   7.448  0.0596  0.0879  0.0936
 1144PEP     CB42058  16.669  12.558   7.244  0.0036  0.1316 -0.1627
 1144PEP     CB42059  17.045  12.430   7.201  0.4133  0.0039 -0.0041
 1144PEP     CB42060  17.299  12.156   7.336  0.0123 -0.3422  0.1146
 1144PEP     CB42061  17.635  11.840   7.232 -0.0979 -0.0117  0.2099
 1144PEP     CB42062  17.904  11.423   7.076 -0.0917  0.1680 -0.1674
 1144PEP     CB42063  18.328  11.479   6.817  0.2433  0.1753  0.1474
 1144PEP     CB42064  18.682  11.747   6.761  0.2481  0.1606  0.1003
 1144PEP     CB42065  19.161  11.929   6.955 -0.5499  0.3461 -0.2947
 1144PEP     CB42066  19.532  12.216   7.245  0.2980  0.2931  0.1626
 1144PEP     CB42067  19.886  12.450   7.414  0.0975  0.0654  0.1470
 1144PEP     CB42068  20.294  12.570   7.667 -0.0086  0.4704 -0.0057
 1144PEP     CB42069  20.671  12.764   7.600  0.2496  0.1957 -0.4252
 1144PEP     CB42070  20.946  12.902   7.313  0.0544  0.0979  0.1146
 1144PEP     CB42071  21.041  12.900   6.861 -0.2291  0.0000 -0.0774
 1144PEP     CB42072  21.144  12.919   6.430 -0.0396 -0.3342 -0.5274
 1144PEP     CB42073  21.132  12.736   6.118 -0.0206  0.2687  0.1657
 1144PEP     CB42074  21.091  12.793   5.658 -0.1225  0.2034  0.0392
 1144PEP     CB42075  21.034  12.623   5.217  0.1055  0.4170 -0.0036
 1144PEP     CB42076  21.092  12.307   4.894 -0.0600  0.0692 -0.3396
 1144PEP     CB42077  20.923  12.157   4.529  0.1941 -0.0532 -0.0402
 1144PEP     CB42078  20.459  12.110   4.353 -0.1960 -0.2023  0.0562
 1144PEP     CB42079  20.258  12.477   4.273 -0.2602 -0.0752  0.0145
 1144PEP     CB42080  20.266  12.919   4.316  0.2556  0.0196  0.1590
 1145PEP     CB42081   1.858   7.277  16.755 -0.1939  0.0196  0.2424
 1145PEP     CB42082   2.046   7.602  16.766  0.2488 -0.1583  0.0058
 1145PEP     CB42083   2.321   7.891  16.565 -0.0339 -0.2182  0.2614
 1145PEP     CB42084   2.660   7.967  16.430  0.2402  0.1534 -0.3041
 1145PEP     CB42085   3.085   7.763  16.280 -0.3191  0.0216  0.0777
 1145PEP     CB42086   3.331   7.399  15.990  0.2004 -0.1985  0.0142
 1145PEP     CB42087   3.490   7.076  15.642 -0.0519  0.1743  0.2195
 1145PEP     CB42088   3.323   6.979  15.274 -0.0239 -0.0928  0.0120
 1145PEP     CB42089   3.412   6.882  14.861  0.2009  0.2737 -0.0292
 1145PEP     CB42090   3.598   6.515  14.699  0.1605 -0.3674 -0.1208
 1145PEP     CB42091   3.588   6.124  14.822 -0.5010 -0.1686  0.1075
 1145PEP     CB42092   3.675   5.837  15.101  0.1231 -0.0530 -0.1630
 1145PEP     CB42093   3.873   5.579  15.408  0.2456 -0.2280 -0.2008
 1145PEP     CB42094   4.141   5.333  15.666  0.0278 -0.2195  0.2149
 1145PEP     CB42095   4.372   5.447  16.101  0.1235 -0.0842 -0.0291
 1145PEP     CB42096   4.419   5.970  16.233 -0.2490  0.0279 -0.1221
 1145PEP     CB42097   4.087   6.276  16.292  0.1070 -0.1140 -0.2314
 1145PEP     CB42098   3.719   6.519  16.171  0.0442 -0.0965 -0.1281
 1145PEP     CB42099   3.556   6.509  15.686  0.1255  0.0975  0.2658
 1145PEP     CB42100   3.757   6.245  15.300 -0.0211  0.0210  0.0070
 1145PEP     CB42101   4.119   6.023  15.450  0.0955  0.1411 -0.2616
 1145PEP     CB42102   4.500   6.224  15.555  0.2616  0.2057 -0.3778
 1145PEP     CB42103   4.678   6.419  15.955  0.0529 -0.4500  0.1439
 1145PEP     CB42104   4.770   6.338  16.339  0.4328 -0.2194  0.3759
 1145PEP     CB42105   4.742   5.987  16.575  0.2296  0.3949  0.4537
 1145PEP     CB42106   4.515   5.588  16.639  0.0488 -0.0996 -0.0625
 1145PEP     CB42107   4.603   5.125  16.425  0.0033  0.0370  0.2762
 1145PEP     CB42108   4.587   5.013  16.026 -0.2332  0.4896  0.2101
 1145PEP     CB42109   4.581   5.000  15.593  0.3329  0.0970 -0.0172
 1145PEP     CB42110   4.271   5.002  15.212 -0.0991 -0.2876  0.1269
 1145PEP     CB42111   3.951   5.028  15.056 -0.2111  0.2344  0.1333
 1145PEP     CB42112   3.595   4.779  14.917 -0.1948 -0.2154  0.1657
 1145PEP     CB42113   3.370   4.547  14.486 -0.0864 -0.0048  0.4026
 1145PEP     CB42114   3.076   4.501  14.206  0.0875  0.0592  0.1704
 1145PEP     CB42115   2.816   4.574  13.810 -0.0795 -0.0286 -0.1423
 1145PEP     CB42116   2.592   4.479  13.521 -0.3990 -0.2308  0.0250
 1145PEP     CB42117   2.112   4.431  13.314  0.3563  0.2676  0.0996
 1145PEP     CB42118   1.677   4.372  13.329 -0.5688  0.0907 -0.2393
 1145PEP     CB42119   1.269   4.267  13.497  0.2646  0.1313  0.2307
 1145PEP     CB42120   1.064   4.537  13.822  0.1117  0.5153  0.2442
 1146PEP     CB42121   6.085  19.485  18.156 -0.0550  0.0386  0.0482
 1146PEP     CB42122   6.275  19.776  18.178 -0.2852 -0.1386  0.0846
 1146PEP     CB42123   6.225  20.181  18.318 -0.2796 -0.3658  0.0339
 1146PEP     CB42124   5.856  20.560  18.153  0.0483  0.1133  0.5770
 1146PEP     CB42125   5.611  20.858  18.106 -0.2576 -0.0090 -0.1213
 1146PEP     CB42126   5.279  20.967  18.118  0.2110  0.8204  0.1902
 1146PEP     CB42127   4.999  21.337  17.916  0.1701 -0.0078  0.0071
 1146PEP     CB42128   5.073  21.722  17.671 -0.1344  0.2372 -0.3699
 1146PEP     CB42129   4.923  22.146  17.600 -0.1280 -0.1699  0.0883
 1146PEP     CB42130   4.865  22.452  17.203 -0.3155 -0.1943 -0.0145
 1146PEP     CB42131   4.506  22.604  16.865 -0.2734  0.1309 -0.0924
 1146PEP     CB42132   4.109  22.586  16.918  0.3596 -0.0883  0.1901
 1146PEP     CB42133   3.868  22.132  17.018 -0.1485 -0.4211  0.0326
 1146PEP     CB42134   3.753  21.793  16.817 -0.1509 -0.4303  0.0809
 1146PEP     CB42135   3.786  21.415  16.533  0.0666 -0.1652  0.0280
 1146PEP     CB42136   3.900  20.968  16.300  0.2066 -0.1121 -0.1548
 1146PEP     CB42137   4.091  20.619  16.229 -0.2819  0.1995  0.2762
 1146PEP     CB42138   4.244  20.268  15.843 -0.3418 -0.5779  0.1546
 1146PEP     CB42139   4.365  19.860  15.489 -0.0649 -0.2302  0.2084
 1146PEP     CB42140   4.644  19.525  15.543 -0.3894 -0.2139 -0.4368
 1146PEP     CB42141   5.062  19.469  15.641  0.0834 -0.1479  0.0857
 1146PEP     CB42142   5.339  19.718  15.914 -0.3417  0.3058 -0.0870
 1146PEP     CB42143   5.582  19.792  16.263  0.1207 -0.2118 -0.1445
 1146PEP     CB42144   5.653  19.994  16.700 -0.2804  0.0595 -0.0182
 1146PEP     CB42145   5.814  19.950  17.161 -0.3695  0.0269 -0.1157
 1146PEP     CB42146   5.801  20.217  17.518 -0.0725 -0.0537  0.2072
 1146PEP     CB42147   5.740  20.569  17.545  0.2757 -0.3530  0.3097
 1146PEP     CB42148   5.779  20.902  17.169 -0.2469 -0.3378 -0.0315
 1146PEP     CB42149   5.810  20.779  16.677  0.2900  0.0738  0.2332
 1146PEP     CB42150   5.970  20.450  16.458  0.0739  0.3974  0.2149
 1146PEP     CB42151   6.152  19.990  16.607 -0.1315  0.1857  0.0096
 1146PEP     CB42152   6.329  19.781  17.037 -0.3360  0.0066 -0.3709
 1146PEP     CB42153   6.212  19.711  17.438 -0.3868  0.0970  0.2477
 1146PEP     CB42154   6.048  19.974  17.823  0.1398 -0.1741 -0.0953
 1146PEP     CB42155   6.218  20.450  17.854 -0.0364  0.0804  0.2434
 1146PEP     CB42156   6.032  20.847  17.791  0.3275 -0.0369  0.0101
 1146PEP     CB42157   5.558  20.982  17.670 -0.0592 -0.0726 -0.2630
 1146PEP     CB42158   5.246  20.724  17.456  0.1900 -0.2893 -0.0800
 1146PEP     CB42159   4.909  20.699  17.223  0.2648 -0.1592 -0.2126
 1146PEP     CB42160   4.571  20.653  17.011 -0.3612 -0.2328 -0.5689
 1147PEP     CB42161  18.606   5.976  20.081 -0.4891 -0.0118  0.0494
 1147PEP     CB42162  18.351   6.375  20.163 -0.1190 -0.0000  0.0124
 1147PEP     CB42163  18.184   6.711  19.940  0.0954  0.0588 -0.2425
 1147PEP     CB42164  18.110   7.222  19.953  0.2199  0.4185 -0.3150
 1147PEP     CB42165  18.317   7.570  20.158 -0.7292  0.2687 -0.1338
 1147PEP     CB42166  18.748   7.505  20.410 -0.0481  0.2765 -0.4779
 1147PEP     CB42167  18.802   7.170  20.788 -0.1530  0.2810 -0.0804
 1147PEP     CB42168  18.592   6.905  20.713 -0.3353 -0.3568 -0.0673
 1147PEP     CB42169  18.538   6.973  20.249 -0.2652 -0.2641 -0.0381
 1147PEP     CB42170  18.865   7.178  19.970 -0.0634 -0.1335 -0.1748
 1147PEP     CB42171  19.070   7.530  19.797 -0.3863 -0.0813  0.3965
 1147PEP     CB42172  19.451   7.741  19.494  0.3727  0.1527 -0.0306
 1147PEP     CB42173  19.776   7.998  19.245  0.0399  0.3918 -0.0641
 1147PEP     CB42174  20.015   8.351  19.154  0.0659 -0.1976  0.0589
 1147PEP     CB42175  20.436   8.615  19.050  0.0021  0.3898 -0.1712
 1147PEP     CB42176  20.612   8.675  18.669  0.0769 -0.1482 -0.0219
 1147PEP     CB42177  20.676   8.792  18.232 -0.3209  0.0726 -0.0997
 1147PEP     CB42178  20.863   9.151  18.036  0.0907  0.0518  0.1010
 1147PEP     CB42179  20.605   9.421  17.771  0.0281 -0.1374  0.2969
 1147PEP     CB42180  20.251   9.289  17.484  0.0040 -0.2042  0.0127
 1147PEP     CB42181  19.997   8.987  17.449 -0.3869  0.1945  0.5211
 1147PEP     CB42182  19.831   8.574  17.184  0.1045  0.1056 -0.0554
 1147PEP     CB42183  19.625   8.214  17.345 -0.1460 -0.0528 -0.5676
 1147PEP     CB42184  19.088   8.120  17.493  0.2175  0.0686 -0.1197
 1147PEP     CB42185  18.821   7.831  17.671 -0.0099 -0.3434 -0.5145
 1147PEP     CB42186  18.414   7.682  17.694  0.2582  0.1134 -0.0929
 1147PEP     CB42187  17.941   7.528  17.406  0.3445  0.2082  0.0539
 1147PEP     CB42188  17.547   7.695  17.302 -0.7430  0.2746 -0.1756
 1147PEP     CB42189  17.132   7.837  17.458  0.2642  0.2990  0.0127
 1147PEP     CB42190  16.840   8.153  17.540  0.1638  0.0993 -0.0780
 1147PEP     CB42191  16.659   8.509  17.291  0.1845 -0.1132 -0.1757
 1147PEP     CB42192  16.328   8.706  17.101  0.0645 -0.0607  0.2496
 1147PEP     CB42193  15.900   8.840  16.857  0.3989  0.2880 -0.0538
 1147PEP     CB42194  15.494   8.699  16.749  0.1593  0.0092 -0.1244
 1147PEP     CB42195  15.068   8.668  16.824  0.2186  0.1362 -0.0580
 1147PEP     CB42196  14.816   8.472  17.044 -0.2398 -0.1899 -0.0960
 1147PEP     CB42197  14.909   8.139  17.334 -0.0884 -0.0088  0.0165
 1147PEP     CB42198  15.283   8.069  17.602  0.3111  0.1536  0.1022
 1147PEP     CB42199  15.666   8.325  17.821 -0.0380 -0.1875  0.1573
 1147PEP     CB42200  15.701   8.739  17.861 -0.0310 -0.3272  0.1673
 1148PEP     CB42201  14.158   7.164   5.398 -0.2626 -0.4140  0.0508
 1148PEP     CB42202  14.237   7.111   5.816 -0.1911  0.0682  0.0896
 1148PEP     CB42203  14.239   7.333   6.282  0.1110  0.0608  0.0854
 1148PEP     CB42204  14.548   7.243   6.607 -0.3881  0.4303 -0.2278
 1148PEP     CB42205  14.981   7.049   6.675 -0.1577  0.3147 -0.1037
 1148PEP     CB42206  15.206   6.639   6.597  0.2893 -0.6879 -0.2231
 1148PEP     CB42207  15.441   6.278   6.902  0.0485  0.2498 -0.3679
 1148PEP     CB42208  15.386   5.948   7.134  0.2781  0.3248  0.1994
 1148PEP     CB42209  15.126   5.827   7.479 -0.3989 -0.1092  0.0246
 1148PEP     CB42210  15.068   5.808   7.900 -0.6173 -0.6475 -0.1719
 1148PEP     CB42211  15.211   5.836   8.263  0.0346  0.0765 -0.2933
 1148PEP     CB42212  15.520   6.115   8.438 -0.1476  0.0114  0.3662
 1148PEP     CB42213  15.802   6.452   8.378  0.0921  0.2055  0.0582
 1148PEP     CB42214  15.693   6.851   8.248  0.2593  0.2569 -0.3950
 1148PEP     CB42215  15.445   7.256   8.112 -0.1265  0.3632 -0.2425
 1148PEP     CB42216  15.491   7.763   8.168 -0.2851 -0.1068 -0.2532
 1148PEP     CB42217  15.590   8.194   7.889  0.0878  0.0940 -0.2849
 1148PEP     CB42218  15.773   8.424   7.541 -0.0665 -0.0989  0.1939
 1148PEP     CB42219  16.203   8.591   7.364  0.0233  0.1234  0.0418
 1148PEP     CB42220  16.566   8.685   7.172  0.2617  0.2410 -0.3171
 1148PEP     CB42221  16.963   8.759   7.048 -0.3404  0.1758 -0.1146
 1148PEP     CB42222  17.322   8.920   6.963  0.1243  0.1420 -0.1329
 1148PEP     CB42223  17.575   9.200   6.778 -0.0254  0.0497  0.2113
 1148PEP     CB42224  17.908   9.535   6.772  0.0422  0.0136  0.0005
 1148PEP     CB42225  17.939  10.045   6.778  0.2814 -0.3501  0.1796
 1148PEP     CB42226  17.852  10.498   6.971 -0.0425 -0.1524 -0.0088
 1148PEP     CB42227  18.194  10.913   6.855  0.2361  0.1757 -0.1679
 1148PEP     CB42228  18.068  10.931   6.464 -0.2110 -0.1625 -0.2004
 1148PEP     CB42229  17.769  10.692   6.360 -0.0740 -0.0889  0.0406
 1148PEP     CB42230  17.398  10.533   6.720 -0.3461 -0.1513  0.1748
 1148PEP     CB42231  17.410  10.595   7.130  0.0185  0.3137  0.1243
 1148PEP     CB42232  17.750  10.515   7.458  0.1945 -0.3349  0.0987
 1148PEP     CB42233  18.123  10.215   7.426 -0.0565  0.2641 -0.2885
 1148PEP     CB42234  18.557  10.219   7.300 -0.1692 -0.0328  0.1788
 1148PEP     CB42235  18.881  10.051   7.093  0.2285 -0.0597  0.0978
 1148PEP     CB42236  19.268   9.855   7.041  0.1327 -0.2915  0.0427
 1148PEP     CB42237  19.643   9.572   7.154  0.5051 -0.1284  0.3397
 1148PEP     CB42238  20.033   9.490   7.345  0.3615  0.0885 -0.3774
 1148PEP     CB42239  20.489   9.503   7.335  0.1284 -0.0761  0.0986
 1148PEP     CB42240  20.787   9.853   7.270 -0.1136 -0.2503  0.1409
 1149PEP     CB42241  21.013  11.015  15.196  0.1471  0.1302 -0.4920
 1149PEP     CB42242  21.282  10.701  15.446 -0.1882 -0.0730  0.3367
 1149PEP     CB42243  21.388  10.620  15.845 -0.0037  0.0532  0.0583
 1149PEP     CB42244  21.614  10.295  16.085  0.2303 -0.7004  0.1077
 1149PEP     CB42245  21.644  10.171  16.446  0.2711 -0.4756  0.0175
 1149PEP     CB42246  21.328  10.317  16.742  0.1899  0.1121 -0.1488
 1149PEP     CB42247  21.097  10.608  16.501  0.0938  0.1471  0.2540
 1149PEP     CB42248  20.957  10.554  16.076  0.2233 -0.0336  0.1361
 1149PEP     CB42249  21.120  10.201  15.798  0.1559  0.1610  0.1441
 1149PEP     CB42250  21.527  10.070  15.623  0.3477  0.3607  0.0483
 1149PEP     CB42251  21.842  10.005  15.323  0.5770 -0.1827 -0.0095
 1149PEP     CB42252  22.009   9.857  14.982 -0.4045 -0.2401  0.1504
 1149PEP     CB42253  21.856   9.477  14.817 -0.2752 -0.0107  0.4189
 1149PEP     CB42254  21.435   9.385  14.815 -0.1261  0.2240 -0.0537
 1149PEP     CB42255  21.097   8.991  14.856 -0.1328  0.3285 -0.0335
 1149PEP     CB42256  20.717   8.613  14.867 -0.1103 -0.1885  0.1504
 1149PEP     CB42257  20.544   8.387  14.500 -0.0012  0.1008 -0.1956
 1149PEP     CB42258  20.555   8.469  14.105  0.3841 -0.4259 -0.4381
 1149PEP     CB42259  20.791   8.457  13.690  0.0780 -0.0073 -0.3245
 1149PEP     CB42260  21.257   8.361  13.783 -0.1396 -0.2569 -0.4189
 1149PEP     CB42261  21.367   8.399  14.236  0.2190 -0.0059 -0.1616
 1149PEP     CB42262  21.126   8.603  14.524  0.2969 -0.1749 -0.0532
 1149PEP     CB42263  20.820   8.939  14.399 -0.4101 -0.1128 -0.1436
 1149PEP     CB42264  20.399   8.844  14.427 -0.0072 -0.1212 -0.2091
 1149PEP     CB42265  20.189   8.677  14.767 -0.1442  0.4973 -0.2150
 1149PEP     CB42266  20.136   8.780  15.154 -0.2054  0.3424 -0.3559
 1149PEP     CB42267  20.289   8.731  15.625  0.2063 -0.3998 -0.0293
 1149PEP     CB42268  20.575   8.876  15.800  0.0632 -0.0322 -0.1534
 1149PEP     CB42269  20.698   9.311  15.575  0.2507  0.3946 -0.0144
 1149PEP     CB42270  20.515   9.720  15.469  0.3423  0.4772  0.1738
 1149PEP     CB42271  20.459  10.082  15.612 -0.3409  0.2143  0.2603
 1149PEP     CB42272  20.307  10.281  15.957 -0.0588  0.2422  0.0292
 1149PEP     CB42273  20.115  10.213  16.348  0.0537 -0.1011 -0.0165
 1149PEP     CB42274  20.009  10.228  16.780  0.0835  0.0757 -0.3331
 1149PEP     CB42275  19.672  10.259  16.970 -0.1880 -0.0513 -0.4632
 1149PEP     CB42276  19.344  10.308  17.318 -0.4360 -0.4494 -0.0252
 1149PEP     CB42277  19.038  10.276  17.714 -0.2800  0.1667  0.4128
 1149PEP     CB42278  18.802  10.198  18.171 -0.0346 -0.0925 -0.0473
 1149PEP     CB42279  18.698  10.287  18.636 -0.1917  0.3490  0.1400
 1149PEP     CB42280  18.517  10.256  18.990 -0.1180 -0.2934 -0.0195
 1150PEP     CB42281  21.259   2.245   8.286 -0.2710  0.1902  0.1710
 1150PEP     CB42282  20.953   2.133   7.965  0.4403  0.1408  0.3893
 1150PEP     CB42283  20.654   2.301   7.850  0.0134  0.3126  0.2042
 1150PEP     CB42284  20.433   2.513   8.121  0.3280  0.2167  0.2017
 1150PEP     CB42285  20.510   2.944   8.270  0.0863  0.0685 -0.1351
 1150PEP     CB42286  20.640   3.129   8.624  0.2131 -0.4568 -0.3864
 1150PEP     CB42287  20.853   3.428   8.869  0.2630 -0.1813 -0.4593
 1150PEP     CB42288  20.995   3.631   9.394  0.1253  0.1983 -0.2344
 1150PEP     CB42289  20.755   3.546   9.883  0.0543 -0.2076 -0.3523
 1150PEP     CB42290  20.734   3.220  10.233 -0.2046 -0.1454  0.5224
 1150PEP     CB42291  21.092   2.809  10.181 -0.0102 -0.1719 -0.1014
 1150PEP     CB42292  21.248   2.542   9.819 -0.2953 -0.0294  0.1125
 1150PEP     CB42293  21.638   2.456   9.640  0.1121  0.3557 -0.1954
 1150PEP     CB42294  21.997   2.680   9.582 -0.0193 -0.1926  0.3747
 1150PEP     CB42295  22.416   2.874   9.597  0.2392 -0.3942 -0.1652
 1150PEP     CB42296  22.713   3.129   9.892  0.2035  0.1305  0.1243
 1150PEP     CB42297  22.743   3.536  10.064 -0.0444 -0.2050  0.1345
 1150PEP     CB42298  22.589   3.936   9.910  0.0648 -0.0435  0.1381
 1150PEP     CB42299  22.394   4.213   9.619  0.4333 -0.0732 -0.3686
 1150PEP     CB42300  22.303   4.538   9.480  0.3472 -0.2226  0.2313
 1150PEP     CB42301  22.143   4.854   9.173 -0.1776  0.1917 -0.1112
 1150PEP     CB42302  21.774   5.146   9.045 -0.4346 -0.1118 -0.0570
 1150PEP     CB42303  21.445   5.236   8.818 -0.3189 -0.0188  0.2124
 1150PEP     CB42304  21.269   4.866   8.487 -0.0262  0.0210 -0.0821
 1150PEP     CB42305  21.294   4.687   8.098 -0.1341  0.1442  0.1195
 1150PEP     CB42306  21.589   4.564   7.900  0.1036 -0.0507 -0.0163
 1150PEP     CB42307  22.003   4.386   7.937 -0.4555  0.2332  0.2823
 1150PEP     CB42308  22.387   4.623   7.965 -0.5103  0.1976 -0.0875
 1150PEP     CB42309  22.722   4.808   8.159  0.1150 -0.1848  0.0681
 1150PEP     CB42310  23.174   4.941   8.239  0.1774 -0.0223  0.2718
 1150PEP     CB42311  23.514   5.015   8.522 -0.0759 -0.5447 -0.2639
 1150PEP     CB42312  23.731   5.068   8.893  0.0482  0.0446  0.0683
 1150PEP     CB42313  23.747   4.993   9.365 -0.5428  0.1521 -0.1183
 1150PEP     CB42314  23.529   4.710   9.603  0.0969 -0.1152 -0.3181
 1150PEP     CB42315  23.569   4.304   9.696  0.1289 -0.1153  0.4999
 1150PEP     CB42316  23.710   3.965  10.028  0.5580  0.1113  0.1007
 1150PEP     CB42317  23.576   3.835  10.491 -0.4796  0.0140 -0.2402
 1150PEP     CB42318  23.567   3.641  10.900  0.0731  0.3771  0.0505
 1150PEP     CB42319  23.862   3.279  11.088  0.0339  0.0324 -0.1509
 1150PEP     CB42320  24.219   3.135  11.440 -0.0082  0.0127 -0.0653
 1151PEP     CB42321   3.707  17.082   8.575  0.0424  0.0812 -0.0285
 1151PEP     CB42322   3.907  16.909   8.090 -0.4419 -0.3734  0.0245
 1151PEP     CB42323   3.883  16.791   7.658 -0.1776  0.1341 -0.3704
 1151PEP     CB42324   3.720  17.108   7.256 -0.0535  0.0138 -0.0784
 1151PEP     CB42325   3.812  17.552   7.175  0.3419  0.0993  0.0214
 1151PEP     CB42326   3.799  17.877   6.878 -0.1433  0.2432  0.0183
 1151PEP     CB42327   3.776  18.057   6.438  0.1286  0.0984  0.0338
 1151PEP     CB42328   3.676  18.475   6.194 -0.0958  0.3185 -0.0115
 1151PEP     CB42329   3.385  18.678   5.901 -0.2286  0.5226  0.0358
 1151PEP     CB42330   3.395  19.023   5.684 -0.0710  0.0823 -0.2341
 1151PEP     CB42331   3.555  19.450   5.663 -0.1321 -0.0704 -0.1604
 1151PEP     CB42332   3.591  19.818   5.530 -0.2557  0.3912  0.3919
 1151PEP     CB42333   3.763  20.198   5.335 -0.2390  0.3673  0.1374
 1151PEP     CB42334   3.726  20.666   5.175  0.3942 -0.2605 -0.0845
 1151PEP     CB42335   3.622  21.032   4.874  0.2721  0.0088  0.3982
 1151PEP     CB42336   3.401  21.364   4.642  0.4879  0.0489 -0.1568
 1151PEP     CB42337   3.253  21.871   4.616  0.0234 -0.0151  0.0646
 1151PEP     CB42338   3.047  22.261   4.629 -0.4236  0.2628  0.1998
 1151PEP     CB42339   3.097  22.703   4.667 -0.1627  0.1186  0.3745
 1151PEP     CB42340   2.989  23.114   4.630 -0.4608  0.1887  0.1861
 1151PEP     CB42341   2.743  23.272   4.833 -0.1562 -0.0740  0.1065
 1151PEP     CB42342   2.334  23.498   4.875 -0.0529 -0.2783  0.1259
 1151PEP     CB42343   1.906  23.781   4.806  0.1284  0.2116 -0.1860
 1151PEP     CB42344   1.548  24.012   4.626  0.1053 -0.0406 -0.1248
 1151PEP     CB42345   1.411  24.455   4.726 -0.0538  0.0724  0.2313
 1151PEP     CB42346   1.356  24.827   5.040 -0.1175  0.0461 -0.3809
 1151PEP     CB42347   1.327  24.943   5.387 -0.1177  0.0541 -0.1822
 1151PEP     CB42348   1.481  24.954   5.870  0.1843  0.2855 -0.1729
 1151PEP     CB42349   1.647  25.238   6.130 -0.1175  0.1391  0.0873
 1151PEP     CB42350   1.718  25.563   5.888  0.3182  0.0030 -0.2829
 1151PEP     CB42351   1.305  25.685   5.648 -0.0193 -0.3784 -0.1466
 1151PEP     CB42352   0.915  25.883   5.802  0.5904 -0.3054  0.2519
 1151PEP     CB42353   0.706  26.290   5.979  0.1331 -0.1355 -0.3926
 1151PEP     CB42354   0.681  26.711   6.247 -0.4846  0.3278  0.0471
 1151PEP     CB42355   0.870  27.004   6.350 -0.1453 -0.0232 -0.2391
 1151PEP     CB42356   1.030  27.290   6.043  0.0992 -0.1917 -0.0543
 1151PEP     CB42357   0.993  27.182   5.593  0.3320 -0.2318 -0.3014
 1151PEP     CB42358   0.628  27.062   5.344 -0.0982  0.0273 -0.0300
 1151PEP     CB42359   0.319  27.156   5.057  0.1594  0.0921  0.2967
 1151PEP     CB42360   0.217  27.270   4.595 -0.2174 -0.0286  0.2214
 1152PEP     CB42361  20.361  20.483  16.607 -0.2589  0.2092 -0.3437
 1152PEP     CB42362  20.632  20.635  16.685  0.1303 -0.3751  0.5054
 1152PEP     CB42363  21.005  20.808  16.657 -0.4335 -0.2921  0.1966
 1152PEP     CB42364  21.309  20.810  16.429  0.2574 -0.0082 -0.6437
 1152PEP     CB42365  21.474  21.063  16.015 -0.0148  0.0609 -0.0027
 1152PEP     CB42366  21.253  21.283  15.697  0.1314  0.0718 -0.5059
 1152PEP     CB42367  20.895  21.172  15.555  0.2556  0.0365  0.2910
 1152PEP     CB42368  20.489  21.022  15.752  0.0835  0.3066 -0.3014
 1152PEP     CB42369  20.440  20.785  16.137 -0.0556 -0.3998 -0.1353
 1152PEP     CB42370  20.811  20.459  16.215  0.1486 -0.2359  0.3734
 1152PEP     CB42371  21.040  20.224  16.473 -0.2703  0.0033  0.0443
 1152PEP     CB42372  21.184  19.788  16.372  0.1886  0.3556  0.0703
 1152PEP     CB42373  21.402  19.402  16.454 -0.3160 -0.4697  0.2384
 1152PEP     CB42374  21.759  19.256  16.272 -0.0701 -0.1499  0.3493
 1152PEP     CB42375  22.067  19.446  16.032  0.0201  0.1161  0.1853
 1152PEP     CB42376  22.213  19.797  15.773  0.0666 -0.0070 -0.0700
 1152PEP     CB42377  22.293  20.264  15.811 -0.0932  0.2834 -0.1743
 1152PEP     CB42378  22.294  20.519  16.202  0.3022  0.0320  0.5551
 1152PEP     CB42379  22.134  20.873  16.448  0.2811 -0.0339  0.0332
 1152PEP     CB42380  21.740  21.074  16.625  0.4039 -0.2576 -0.0197
 1152PEP     CB42381  21.406  21.311  16.510 -0.3660  0.1880  0.0911
 1152PEP     CB42382  21.331  21.605  16.141  0.0108 -0.1057  0.6658
 1152PEP     CB42383  21.423  21.777  15.778  0.5198  0.3071 -0.1930
 1152PEP     CB42384  20.946  21.877  15.646 -0.3439 -0.1420 -0.1830
 1152PEP     CB42385  20.598  22.083  15.781  0.2032 -0.2529  0.2071
 1152PEP     CB42386  20.389  22.431  16.026 -0.4111  0.1033  0.1283
 1152PEP     CB42387  20.278  22.805  16.138  0.1758 -0.1305 -0.1741
 1152PEP     CB42388  20.039  23.160  16.307 -0.0316  0.2062 -0.0548
 1152PEP     CB42389  19.920  23.460  16.414 -0.2495  0.0047 -0.3641
 1152PEP     CB42390  19.413  23.654  16.498  0.0406 -0.1760  0.4900
 1152PEP     CB42391  18.958  23.578  16.457 -0.0053 -0.0917  0.2128
 1152PEP     CB42392  18.562  23.481  16.464 -0.3660  0.0013 -0.1472
 1152PEP     CB42393  18.181  23.232  16.568 -0.4291 -0.2175  0.0668
 1152PEP     CB42394  17.769  23.339  16.437 -0.1408  0.0869 -0.0243
 1152PEP     CB42395  17.464  23.619  16.648 -0.2348 -0.0851  0.1218
 1152PEP     CB42396  17.612  23.908  17.035  0.2426 -0.2177 -0.2316
 1152PEP     CB42397  17.831  23.896  17.380  0.2548  0.1586 -0.2103
 1152PEP     CB42398  18.220  23.754  17.721  0.2925 -0.2519  0.1516
 1152PEP     CB42399  18.640  23.892  17.778 -0.0646  0.5782  0.0742
 1152PEP     CB42400  18.773  24.225  17.740  0.0510 -0.0232  0.1485
 1153PEP     CB42401  15.628  12.369   4.098  0.3044  0.3067  0.2492
 1153PEP     CB42402  15.797  12.149   4.374  0.2005  0.0994  0.0195
 1153PEP     CB42403  15.847  11.971   4.809  0.2447 -0.0628  0.2195
 1153PEP     CB42404  15.948  11.960   5.186  0.4339  0.0489  0.5286
 1153PEP     CB42405  16.158  11.753   5.577  0.0730 -0.2241  0.0063
 1153PEP     CB42406  16.287  11.426   5.865 -0.1567 -0.1954  0.1261
 1153PEP     CB42407  16.517  11.449   6.241 -0.0977 -0.0139  0.3629
 1153PEP     CB42408  16.801  11.807   6.327  0.1714 -0.2951 -0.3630
 1153PEP     CB42409  17.143  11.896   6.041 -0.0802 -0.3140  0.3713
 1153PEP     CB42410  17.348  11.733   5.603 -0.5830  0.0979 -0.0521
 1153PEP     CB42411  17.586  11.545   5.364  0.0025 -0.1130 -0.0575
 1153PEP     CB42412  17.921  11.657   5.114  0.3219  0.3074  0.0734
 1153PEP     CB42413  18.054  11.764   4.639  0.1006 -0.0855 -0.0331
 1153PEP     CB42414  18.081  11.978   4.310 -0.0980 -0.4028  0.0962
 1153PEP     CB42415  17.994  12.108   3.830  0.2360  0.3223 -0.2462
 1153PEP     CB42416  17.811  12.475   3.600  0.1574  0.0760  0.2373
 1153PEP     CB42417  17.495  12.752   3.347 -0.1670 -0.3208  0.2759
 1153PEP     CB42418  17.236  13.052   3.296 -0.2199 -0.0819  0.3104
 1153PEP     CB42419  17.255  13.457   3.476 -0.2011  0.1892  0.0502
 1153PEP     CB42420  17.330  13.579   3.877  0.1290 -0.0751  0.2324
 1153PEP     CB42421  17.669  13.278   4.069  0.0868  0.1018  0.1447
 1153PEP     CB42422  18.098  13.137   3.860  0.2103  0.1753  0.3042
 1153PEP     CB42423  18.321  13.292   3.522  0.2737  0.0485  0.1693
 1153PEP     CB42424  18.161  13.623   3.256  0.1252  0.0172  0.1538
 1153PEP     CB42425  17.790  13.621   2.992 -0.1423 -0.3739  0.1483
 1153PEP     CB42426  17.502  13.292   2.943  0.1513  0.2358  0.0902
 1153PEP     CB42427  17.668  12.893   2.899  0.2110  0.0214 -0.3573
 1153PEP     CB42428  17.827  12.720   2.515 -0.4872  0.1973 -0.1451
 1153PEP     CB42429  17.772  12.873   2.061 -0.4291 -0.0524 -0.4484
 1153PEP     CB42430  17.701  13.218   1.735  0.0861  0.1156 -0.1553
 1153PEP     CB42431  17.528  13.641   1.746  0.2012  0.1151  0.0134
 1153PEP     CB42432  17.426  14.068   1.921 -0.4580  0.3389  0.0909
 1153PEP     CB42433  17.285  14.476   1.868 -0.2742 -0.4435 -0.1218
 1153PEP     CB42434  16.833  14.736   1.706 -0.0835 -0.0775  0.4413
 1153PEP     CB42435  16.478  14.600   1.415 -0.0059 -0.0534 -0.0939
 1153PEP     CB42436  16.559  14.589   0.967 -0.0112 -0.1026 -0.2532
 1153PEP     CB42437  16.912  14.374   0.717  0.0269 -0.1954  0.1892
 1153PEP     CB42438  17.031  13.940   0.641  0.0165  0.0207 -0.0569
 1153PEP     CB42439  16.805  13.592   0.736 -0.0923  0.2277  0.2436
 1153PEP     CB42440  16.852  13.268   1.019  0.2710 -0.0327  0.1182
 1154PEP     CB42441  21.909  16.287  13.047  0.3156 -0.2554 -0.1295
 1154PEP     CB42442  21.994  15.913  13.068 -0.5507  0.2329  0.0232
 1154PEP     CB42443  22.036  15.543  13.145 -0.0925 -0.1806 -0.2118
 1154PEP     CB42444  21.747  15.177  13.115 -0.1145  0.0121  0.1917
 1154PEP     CB42445  21.339  14.991  13.176 -0.0764 -0.1731 -0.0151
 1154PEP     CB42446  21.067  15.080  13.571  0.0466 -0.2258 -0.1221
 1154PEP     CB42447  20.832  15.321  13.819 -0.5116  0.1805 -0.0675
 1154PEP     CB42448  20.829  15.739  14.009 -0.2273 -0.0952 -0.2431
 1154PEP     CB42449  20.783  16.157  13.807 -0.3020  0.2236  0.0054
 1154PEP     CB42450  20.922  16.375  13.459 -0.0981  0.0456  0.4003
 1154PEP     CB42451  20.726  16.558  13.171 -0.1767  0.0517  0.0516
 1154PEP     CB42452  20.246  16.529  12.978 -0.1740  0.2897 -0.4762
 1154PEP     CB42453  19.980  16.256  12.964  0.1784 -0.0488  0.1779
 1154PEP     CB42454  20.115  15.954  13.280 -0.2584  0.4130  0.1096
 1154PEP     CB42455  20.211  16.039  13.713 -0.2800  0.3546 -0.2218
 1154PEP     CB42456  19.995  16.369  13.749 -0.2718  0.1940 -0.0361
 1154PEP     CB42457  19.789  16.733  13.456 -0.0512  0.1884  0.2760
 1154PEP     CB42458  19.805  17.043  13.119 -0.0585  0.1233  0.1453
 1154PEP     CB42459  19.433  17.333  12.945  0.1780  0.1344 -0.3065
 1154PEP     CB42460  19.082  17.445  13.145  0.1029 -0.1492 -0.1382
 1154PEP     CB42461  18.825  17.764  13.335  0.0825  0.2024  0.2238
 1154PEP     CB42462  18.450  17.854  13.289 -0.2026 -0.1004 -0.2141
 1154PEP     CB42463  18.187  18.048  12.879 -0.2389  0.0042  0.1473
 1154PEP     CB42464  18.123  18.077  12.461  0.0900 -0.4131 -0.0743
 1154PEP     CB42465  18.373  18.225  12.050  0.0719 -0.1248 -0.2869
 1154PEP     CB42466  18.506  18.075  11.677  0.1877 -0.1887 -0.0396
 1154PEP     CB42467  18.555  18.235  11.298  0.2495 -0.1772  0.0960
 1154PEP     CB42468  18.567  18.614  11.084  0.0478  0.0452  0.3210
 1154PEP     CB42469  18.652  18.935  10.775  0.2476  0.2345 -0.1455
 1154PEP     CB42470  18.452  19.197  10.374 -0.2328  0.0832  0.0777
 1154PEP     CB42471  18.270  19.607  10.286 -0.1454  0.2072 -0.1560
 1154PEP     CB42472  17.857  19.920  10.437 -0.4901 -0.4917  0.1836
 1154PEP     CB42473  17.658  20.101  10.750 -0.1609 -0.2437 -0.3028
 1154PEP     CB42474  17.534  20.390  11.080  0.1370 -0.3043  0.2689
 1154PEP     CB42475  17.546  20.289  11.584  0.1154  0.0941 -0.2299
 1154PEP     CB42476  17.832  20.048  11.808  0.0092 -0.0275 -0.0905
 1154PEP     CB42477  18.086  19.666  11.952 -0.0144  0.0228 -0.0881
 1154PEP     CB42478  18.323  19.341  11.775 -0.1252 -0.1815 -0.1041
 1154PEP     CB42479  18.317  18.933  11.634  0.2729  0.2425  0.0577
 1154PEP     CB42480  18.552  18.562  11.687 -0.5427  0.0758  0.0790
 1155PEP     CB42481  10.376  14.442  18.277 -0.0782  0.2058  0.4709
 1155PEP     CB42482  10.297  14.344  18.722 -0.1267 -0.0405 -0.1881
 1155PEP     CB42483  10.256  13.965  18.911  0.2390  0.3476 -0.2218
 1155PEP     CB42484  10.098  13.594  18.949  0.1926  0.0145 -0.4980
 1155PEP     CB42485   9.892  13.229  19.016 -0.3652 -0.2496  0.1172
 1155PEP     CB42486   9.858  12.759  19.108 -0.3567  0.1444  0.1024
 1155PEP     CB42487   9.492  12.344  19.173  0.0245 -0.3301 -0.1297
 1155PEP     CB42488   9.149  12.481  19.292  0.0146  0.0977  0.1402
 1155PEP     CB42489   9.125  12.938  19.293 -0.1049  0.0326  0.0728
 1155PEP     CB42490   9.466  13.276  19.288 -0.3081  0.0868 -0.2830
 1155PEP     CB42491   9.282  13.738  19.206 -0.4618  0.1842  0.1071
 1155PEP     CB42492   9.026  13.813  18.875  0.1280 -0.0359  0.1505
 1155PEP     CB42493   9.019  13.548  18.537  0.4655  0.2584  0.0465
 1155PEP     CB42494   9.023  13.045  18.534  0.1828  0.0457  0.2278
 1155PEP     CB42495   8.831  12.671  18.445  0.0792 -0.3328 -0.3016
 1155PEP     CB42496   8.542  12.386  18.191  0.0467 -0.0546  0.2062
 1155PEP     CB42497   8.324  12.288  17.842 -0.0641  0.2360 -0.1926
 1155PEP     CB42498   8.261  12.386  17.323  0.1226 -0.2425 -0.1685
 1155PEP     CB42499   8.292  12.213  16.918 -0.5234  0.0250 -0.1032
 1155PEP     CB42500   8.356  11.852  16.704  0.1046  0.3384 -0.3422
 1155PEP     CB42501   8.383  11.532  16.517 -0.0064 -0.1624  0.3239
 1155PEP     CB42502   8.272  10.986  16.551 -0.1253  0.0396  0.1474
 1155PEP     CB42503   8.012  10.667  16.689 -0.2841 -0.2856  0.1699
 1155PEP     CB42504   7.558  10.595  16.758  0.3604 -0.0443  0.0049
 1155PEP     CB42505   7.355  10.586  16.465 -0.1804  0.2325  0.0088
 1155PEP     CB42506   7.003  10.579  16.083 -0.3480  0.1562 -0.2422
 1155PEP     CB42507   6.683  10.375  15.834  0.1670 -0.3960  0.0499
 1155PEP     CB42508   6.315  10.102  15.708 -0.0981 -0.2126 -0.1395
 1155PEP     CB42509   6.101   9.924  15.342  0.2297 -0.1911 -0.2384
 1155PEP     CB42510   6.091  10.148  14.954  0.0316 -0.1690 -0.1516
 1155PEP     CB42511   6.382  10.130  14.664  0.0193 -0.3862  0.1054
 1155PEP     CB42512   6.839  10.010  14.374 -0.0481 -0.3551 -0.3699
 1155PEP     CB42513   6.809   9.795  13.996 -0.5261 -0.1722 -0.3147
 1155PEP     CB42514   6.836   9.667  13.533  0.3107 -0.3158  0.0045
 1155PEP     CB42515   7.171   9.477  13.281 -0.0916  0.0538  0.0046
 1155PEP     CB42516   7.576   9.602  13.401  0.0151  0.0539  0.0227
 1155PEP     CB42517   7.825   9.916  13.643  0.0840  0.3156  0.1805
 1155PEP     CB42518   7.760  10.362  13.748 -0.1164  0.0512  0.1116
 1155PEP     CB42519   7.512  10.673  13.821  0.0070  0.2537  0.0400
 1155PEP     CB42520   7.369  11.092  14.107  0.1974  0.1173  0.1210
 1156PEP     CB42521  14.923  21.328  12.722 -0.0720 -0.0967 -0.3476
 1156PEP     CB42522  14.897  21.229  13.185  0.1562 -0.4756 -0.1429
 1156PEP     CB42523  15.138  21.285  13.545 -0.0607  0.0281 -0.1304
 1156PEP     CB42524  15.373  21.152  13.928  0.2607  0.4419  0.1700
 1156PEP     CB42525  15.372  20.865  14.236 -0.3164  0.0511  0.2217
 1156PEP     CB42526  15.218  20.719  14.599 -0.0639 -0.1623  0.0979
 1156PEP     CB42527  15.076  20.585  15.072  0.0889  0.1400  0.0247
 1156PEP     CB42528  14.946  20.158  15.114  0.2199  0.2448  0.3801
 1156PEP     CB42529  14.901  19.752  14.756 -0.1657  0.1544  0.0881
 1156PEP     CB42530  14.562  19.728  14.372 -0.0459  0.1290  0.3740
 1156PEP     CB42531  14.283  20.105  14.224 -0.0216  0.3742 -0.0530
 1156PEP     CB42532  14.036  20.370  13.975 -0.1175  0.4257 -0.2292
 1156PEP     CB42533  13.705  20.547  14.090 -0.0925 -0.3648 -0.1216
 1156PEP     CB42534  13.293  20.343  14.114  0.0144 -0.1882 -0.4938
 1156PEP     CB42535  13.206  19.922  14.189  0.2262 -0.0171  0.3099
 1156PEP     CB42536  13.145  19.489  14.056  0.0126 -0.0500  0.2723
 1156PEP     CB42537  12.949  19.208  13.849  0.0991  0.4233  0.2293
 1156PEP     CB42538  12.699  19.226  13.521 -0.1542  0.2494  0.0674
 1156PEP     CB42539  12.590  19.073  13.167  0.2944  0.2000  0.1442
 1156PEP     CB42540  12.445  18.660  13.026  0.1567  0.2280  0.1902
 1156PEP     CB42541  12.407  18.246  13.068 -0.0411  0.1308 -0.3335
 1156PEP     CB42542  12.438  17.806  13.023  0.0056  0.4592  0.3073
 1156PEP     CB42543  12.009  17.567  13.105 -0.1071  0.0682  0.1674
 1156PEP     CB42544  11.617  17.670  13.121 -0.0818 -0.3667  0.0129
 1156PEP     CB42545  11.428  17.940  12.822 -0.5664 -0.0794  0.2351
 1156PEP     CB42546  11.411  18.146  12.499 -0.0621 -0.1974  0.3520
 1156PEP     CB42547  11.583  18.215  12.002 -0.3491  0.2565  0.3535
 1156PEP     CB42548  11.354  17.933  11.700  0.4392 -0.3001  0.0650
 1156PEP     CB42549  11.097  17.696  11.829 -0.0908  0.0239  0.2443
 1156PEP     CB42550  11.201  17.278  12.058  0.0957  0.3228 -0.2158
 1156PEP     CB42551  11.303  16.853  11.843  0.2253  0.4141  0.0500
 1156PEP     CB42552  11.216  16.655  11.415 -0.4255  0.2289 -0.3373
 1156PEP     CB42553  11.208  16.713  11.032 -0.0677  0.3092 -0.1290
 1156PEP     CB42554  11.352  16.613  10.632 -0.2441  0.3684  0.3038
 1156PEP     CB42555  11.281  16.804  10.271  0.3519 -0.0872 -0.1783
 1156PEP     CB42556  10.933  17.048  10.153  0.0263  0.1865  0.4515
 1156PEP     CB42557  10.655  17.118  10.544 -0.1402 -0.4579  0.1923
 1156PEP     CB42558  10.318  16.996  10.808 -0.0949 -0.0478  0.0422
 1156PEP     CB42559  10.051  17.138  11.141  0.1879 -0.0981  0.2966
 1156PEP     CB42560   9.858  17.372  11.521 -0.4877  0.1960  0.3536
 1157PEP     CB42561   4.479  18.413   3.798  0.1483 -0.3351 -0.0404
 1157PEP     CB42562   4.195  18.188   4.021  0.2534  0.0758 -0.4731
 1157PEP     CB42563   3.967  18.175   4.445  0.3409 -0.3124 -0.4341
 1157PEP     CB42564   3.770  18.279   4.822 -0.3580  0.1167 -0.0407
 1157PEP     CB42565   3.328  18.144   4.992 -0.4746  0.0009  0.1874
 1157PEP     CB42566   2.935  18.214   5.097  0.2041  0.5228  0.3143
 1157PEP     CB42567   2.668  18.456   5.325 -0.1034  0.0173  0.3724
 1157PEP     CB42568   2.414  18.856   5.320 -0.4492 -0.1630 -0.2119
 1157PEP     CB42569   2.254  19.243   4.963 -0.0175 -0.1694  0.2128
 1157PEP     CB42570   2.062  19.361   4.550 -0.1472 -0.2210 -0.1819
 1157PEP     CB42571   2.024  19.571   4.125 -0.2870 -0.2945  0.1763
 1157PEP     CB42572   1.856  19.777   3.704 -0.2057  0.1123 -0.1501
 1157PEP     CB42573   1.539  19.994   3.446 -0.1817  0.3091  0.0095
 1157PEP     CB42574   1.117  20.019   3.394 -0.1380 -0.0401  0.2088
 1157PEP     CB42575   0.881  20.083   3.106  0.1696  0.0079  0.1961
 1157PEP     CB42576   0.936  20.003   2.594 -0.3047  0.0968  0.0523
 1157PEP     CB42577   1.208  19.688   2.449 -0.0790 -0.3339  0.0359
 1157PEP     CB42578   1.499  19.412   2.662  0.1001 -0.0920  0.1338
 1157PEP     CB42579   1.621  19.033   2.846  0.0755  0.0119  0.0092
 1157PEP     CB42580   1.795  18.782   3.179  0.2849 -0.4097 -0.1460
 1157PEP     CB42581   1.949  18.455   3.311 -0.0546 -0.2781 -0.0398
 1157PEP     CB42582   1.881  18.066   3.141 -0.1032 -0.0589  0.1602
 1157PEP     CB42583   1.472  18.008   2.865  0.1234 -0.0774 -0.1324
 1157PEP     CB42584   1.107  18.226   2.663 -0.1716  0.0504 -0.1611
 1157PEP     CB42585   0.848  18.413   2.470  0.1098  0.0951 -0.3037
 1157PEP     CB42586   0.721  18.577   2.057 -0.1767  0.1704  0.0894
 1157PEP     CB42587   0.555  18.552   1.663  0.0913  0.1979  0.0591
 1157PEP     CB42588   0.868  18.532   1.367 -0.0546 -0.1326 -0.1582
 1157PEP     CB42589   1.339  18.691   1.449 -0.1654  0.0820 -0.0729
 1157PEP     CB42590   1.765  18.836   1.725  0.0700 -0.1487 -0.0676
 1157PEP     CB42591   2.063  18.959   2.063  0.1577 -0.2044  0.3705
 1157PEP     CB42592   2.470  19.085   2.215 -0.0976  0.3071  0.1867
 1157PEP     CB42593   2.986  19.040   2.369 -0.4914  0.2358 -0.0817
 1157PEP     CB42594   3.385  18.902   2.632 -0.1574 -0.2301 -0.0878
 1157PEP     CB42595   3.647  18.546   2.588  0.0596 -0.2750  0.1400
 1157PEP     CB42596   3.786  18.286   2.149 -0.2572  0.0495 -0.1271
 1157PEP     CB42597   3.968  17.946   1.892 -0.0693 -0.5100 -0.2582
 1157PEP     CB42598   4.290  17.846   1.565 -0.0785 -0.2929  0.2774
 1157PEP     CB42599   4.633  17.935   1.266 -0.0334 -0.1224  0.1676
 1157PEP     CB42600   4.687  18.250   1.053  0.1126  0.0884  0.1072
 1158PEP     CB42601   7.620   6.763   5.989  0.2536 -0.2070  0.1764
 1158PEP     CB42602   7.898   7.108   6.125  0.2368  0.3209  0.2842
 1158PEP     CB42603   8.155   7.449   6.382 -0.1113 -0.3957  0.1109
 1158PEP     CB42604   8.464   7.688   6.547 -0.1500 -0.3099  0.6970
 1158PEP     CB42605   8.870   7.602   6.669  0.4228 -0.0422  0.1182
 1158PEP     CB42606   9.078   7.326   6.861  0.0134 -0.2936  0.0036
 1158PEP     CB42607   9.274   6.995   7.293 -0.0384  0.2910  0.0982
 1158PEP     CB42608   9.300   6.663   7.457  0.0296  0.1100  0.5031
 1158PEP     CB42609   9.263   6.179   7.474  0.2765  0.1033 -0.1055
 1158PEP     CB42610   9.129   5.890   7.661 -0.0310 -0.4277 -0.1352
 1158PEP     CB42611   8.876   5.515   7.667  0.2370 -0.2312  0.1326
 1158PEP     CB42612   8.503   5.446   7.449  0.2420 -0.0898 -0.0287
 1158PEP     CB42613   8.163   5.722   7.142 -0.0632  0.2873  0.1587
 1158PEP     CB42614   8.101   5.826   6.634 -0.0578  0.0690 -0.1089
 1158PEP     CB42615   8.031   6.140   6.275 -0.0289  0.4643  0.0656
 1158PEP     CB42616   8.151   6.500   6.143 -0.0890  0.5137  0.0010
 1158PEP     CB42617   8.377   6.894   6.329 -0.3952 -0.1370  0.1992
 1158PEP     CB42618   8.548   7.177   6.627  0.4652  0.1765 -0.0253
 1158PEP     CB42619   8.605   7.155   7.055 -0.1374 -0.1111 -0.4000
 1158PEP     CB42620   8.860   7.393   7.394 -0.1479  0.2352  0.0044
 1158PEP     CB42621   9.303   7.497   7.295  0.0507  0.3660 -0.2151
 1158PEP     CB42622   9.497   7.572   6.933 -0.3008  0.4130 -0.0248
 1158PEP     CB42623   9.644   7.293   6.508  0.1153  0.2482 -0.3440
 1158PEP     CB42624   9.744   7.004   6.202 -0.1429 -0.3463 -0.0261
 1158PEP     CB42625   9.927   6.821   5.872 -0.1295 -0.2502  0.1739
 1158PEP     CB42626   9.894   6.616   5.392  0.0463 -0.1661  0.2174
 1158PEP     CB42627  10.118   6.559   4.980 -0.2136  0.1921  0.3013
 1158PEP     CB42628  10.595   6.740   4.901  0.0079 -0.0365 -0.6032
 1158PEP     CB42629  10.908   6.840   5.200  0.3340 -0.4009 -0.0041
 1158PEP     CB42630  10.844   6.971   5.627 -0.0250 -0.1159  0.2926
 1158PEP     CB42631  10.572   7.258   5.859  0.0815  0.0073 -0.0236
 1158PEP     CB42632  10.520   7.694   5.824 -0.1370 -0.1623  0.0872
 1158PEP     CB42633  10.356   7.888   5.401 -0.3332  0.1001 -0.0531
 1158PEP     CB42634  10.446   7.909   5.037 -0.1633  0.2877  0.4169
 1158PEP     CB42635  10.628   7.670   4.754  0.1217  0.1606 -0.3169
 1158PEP     CB42636  10.941   7.707   4.433  0.3953  0.2521  0.2062
 1158PEP     CB42637  11.205   8.126   4.385  0.0444  0.1475 -0.3280
 1158PEP     CB42638  10.997   8.504   4.502  0.1476  0.3866  0.0634
 1158PEP     CB42639  10.748   8.746   4.183  0.0406  0.2915  0.0357
 1158PEP     CB42640  10.477   9.084   3.875 -0.1567  0.1106 -0.2844
 1159PEP     CB42641   0.361   7.347  15.013  0.0615  0.1715 -0.1731
 1159PEP     CB42642   0.289   6.960  14.824  0.4429  0.2688 -0.1600
 1159PEP     CB42643   0.320   6.628  14.984  0.1212 -0.2888  0.1215
 1159PEP     CB42644   0.300   6.197  15.234 -0.2734  0.1170  0.3711
 1159PEP     CB42645   0.208   5.827  15.425  0.0286  0.2742  0.3404
 1159PEP     CB42646   0.215   5.491  15.611 -0.0850 -0.1208  0.1189
 1159PEP     CB42647   0.180   5.141  15.880 -0.3312 -0.0787 -0.0898
 1159PEP     CB42648   0.213   5.114  16.356  0.3589  0.0689 -0.2069
 1159PEP     CB42649   0.470   5.358  16.721 -0.2359 -0.1765 -0.1386
 1159PEP     CB42650   0.728   5.317  17.149  0.0765  0.2543 -0.0144
 1159PEP     CB42651   1.057   5.204  17.370  0.0973  0.0172  0.0321
 1159PEP     CB42652   1.486   5.249  17.329 -0.2725 -0.1359  0.3913
 1159PEP     CB42653   1.745   5.580  17.303 -0.0421  0.3736 -0.1763
 1159PEP     CB42654   1.952   5.757  16.994  0.1255  0.2769  0.2257
 1159PEP     CB42655   2.106   5.881  16.576 -0.2078 -0.1654 -0.1734
 1159PEP     CB42656   1.972   5.877  16.203 -0.4481  0.1340 -0.0009
 1159PEP     CB42657   1.475   5.858  16.110  0.0229 -0.0646 -0.2147
 1159PEP     CB42658   1.177   5.866  16.432 -0.1230 -0.3494  0.1806
 1159PEP     CB42659   1.105   6.158  16.787  0.2326  0.2042 -0.3586
 1159PEP     CB42660   1.167   6.514  16.945 -0.4669 -0.0609 -0.0529
 1159PEP     CB42661   1.151   6.898  17.246  0.3010 -0.2034 -0.0515
 1159PEP     CB42662   0.918   7.244  17.384  0.1072 -0.0529 -0.1235
 1159PEP     CB42663   0.573   7.556  17.256 -0.1964  0.0292 -0.1721
 1159PEP     CB42664   0.308   7.869  17.037 -0.0252 -0.0360 -0.2617
 1159PEP     CB42665  -0.000   7.830  16.791 -0.2061 -0.0004  0.0169
 1159PEP     CB42666  -0.418   7.825  16.801 -0.1960 -0.1562  0.0392
 1159PEP     CB42667  -0.824   7.819  16.611  0.2014  0.0213 -0.1310
 1159PEP     CB42668  -1.182   7.706  16.662  0.1911 -0.4579  0.1633
 1159PEP     CB42669  -1.684   7.802  16.700 -0.0094  0.2442  0.0764
 1159PEP     CB42670  -2.071   7.982  16.546 -0.0127 -0.0302  0.1967
 1159PEP     CB42671  -2.324   8.331  16.418  0.1004 -0.0047  0.1076
 1159PEP     CB42672  -2.707   8.513  16.214  0.1363  0.2939 -0.2975
 1159PEP     CB42673  -3.135   8.535  16.015  0.2204  0.0533  0.1844
 1159PEP     CB42674  -3.535   8.661  15.979 -0.0449  0.0082  0.1417
 1159PEP     CB42675  -3.796   8.881  16.201 -0.1344 -0.0895  0.0460
 1159PEP     CB42676  -3.872   8.655  16.638 -0.2767  0.0539 -0.5975
 1159PEP     CB42677  -3.637   8.410  16.880  0.2839 -0.2575 -0.0630
 1159PEP     CB42678  -3.185   8.401  17.116 -0.1122 -0.0203  0.3581
 1159PEP     CB42679  -2.884   8.602  17.208  0.2366 -0.1791 -0.4942
 1159PEP     CB42680  -2.519   8.717  17.453  0.3665 -0.0129  0.1613
 1160PEP     CB42681  15.911  18.157  14.733 -0.4494  0.5778 -0.0547
 1160PEP     CB42682  15.778  18.478  15.073 -0.1018  0.3151  0.1110
 1160PEP     CB42683  15.648  18.624  15.526  0.1569 -0.1427  0.1437
 1160PEP     CB42684  15.486  18.953  15.784  0.0176  0.1010 -0.0364
 1160PEP     CB42685  15.638  19.080  16.193  0.6545  0.0274  0.0010
 1160PEP     CB42686  15.769  18.844  16.515  0.0073  0.0076 -0.1646
 1160PEP     CB42687  15.813  18.416  16.900  0.4324  0.2279 -0.3973
 1160PEP     CB42688  16.136  18.429  17.287  0.2206 -0.0630 -0.0294
 1160PEP     CB42689  16.556  18.732  17.268 -0.1040 -0.1440 -0.0610
 1160PEP     CB42690  16.904  18.985  17.065 -0.2065 -0.1848  0.4074
 1160PEP     CB42691  17.043  19.337  16.885 -0.2437 -0.0178 -0.0448
 1160PEP     CB42692  17.053  19.711  16.887 -0.1973  0.0586  0.0977
 1160PEP     CB42693  17.289  20.025  17.110  0.1298  0.1410  0.0301
 1160PEP     CB42694  17.520  20.239  17.426  0.0924  0.1767 -0.1670
 1160PEP     CB42695  17.609  20.432  17.768 -0.0508 -0.0324 -0.0571
 1160PEP     CB42696  17.433  20.417  18.267  0.3076  0.0399 -0.1800
 1160PEP     CB42697  17.354  20.142  18.582  0.2314  0.1482 -0.0910
 1160PEP     CB42698  17.085  19.880  18.755  0.1760 -0.3171  0.1436
 1160PEP     CB42699  16.633  20.059  18.744  0.1589  0.1111 -0.1570
 1160PEP     CB42700  16.280  19.748  18.788 -0.3454 -0.2746  0.2662
 1160PEP     CB42701  15.988  19.433  18.844 -0.1564  0.3675 -0.0012
 1160PEP     CB42702  15.694  19.242  18.657 -0.3347 -0.4694 -0.0648
 1160PEP     CB42703  15.428  18.826  18.639  0.2075  0.2565  0.1349
 1160PEP     CB42704  15.143  18.467  18.608 -0.0362 -0.2095 -0.0625
 1160PEP     CB42705  15.062  18.060  18.610  0.2614  0.1742 -0.0985
 1160PEP     CB42706  15.106  17.545  18.433 -0.1070 -0.1897 -0.0593
 1160PEP     CB42707  14.899  17.230  18.210  0.1593 -0.3065 -0.0382
 1160PEP     CB42708  15.043  17.151  17.829  0.5273  0.3329  0.0902
 1160PEP     CB42709  15.301  17.438  17.620 -0.5124 -0.4394 -0.0171
 1160PEP     CB42710  15.173  17.764  17.464  0.0961  0.1166 -0.1584
 1160PEP     CB42711  14.848  18.059  17.663 -0.1898  0.2165 -0.1414
 1160PEP     CB42712  14.685  18.494  17.781 -0.0504 -0.3647  0.1797
 1160PEP     CB42713  14.687  18.907  17.821 -0.1273 -0.3232 -0.1214
 1160PEP     CB42714  14.712  19.213  17.559  0.2510  0.2305  0.0857
 1160PEP     CB42715  14.391  19.225  17.251  0.0327  0.0096  0.1629
 1160PEP     CB42716  14.263  19.482  16.840  0.5023 -0.2471  0.1982
 1160PEP     CB42717  14.326  19.943  16.736  0.0364  0.0595  0.0370
 1160PEP     CB42718  14.388  20.297  17.042 -0.2363  0.4696 -0.1542
 1160PEP     CB42719  14.505  20.306  17.406 -0.2474  0.0995  0.1136
 1160PEP     CB42720  14.476  20.390  17.883 -0.1927  0.4986 -0.1540
 1161PEP     CB42721   8.818  14.278  14.692 -0.0036 -0.0805 -0.0375
 1161PEP     CB42722   8.494  14.147  14.946  0.3510  0.1549  0.4901
 1161PEP     CB42723   8.068  14.139  14.992 -0.1632  0.1900  0.2843
 1161PEP     CB42724   7.671  13.899  14.953 -0.1210  0.1091  0.0989
 1161PEP     CB42725   7.358  13.716  14.846 -0.0496  0.1124 -0.1316
 1161PEP     CB42726   7.304  13.260  14.875 -0.4096  0.2507  0.2630
 1161PEP     CB42727   7.160  12.804  14.700 -0.0868 -0.1539  0.1559
 1161PEP     CB42728   6.717  12.671  14.599 -0.1209  0.3500  0.1394
 1161PEP     CB42729   6.305  12.735  14.810 -0.0106 -0.2181 -0.0604
 1161PEP     CB42730   6.094  12.653  15.202 -0.0782 -0.1055  0.4771
 1161PEP     CB42731   5.973  12.355  15.479 -0.0070 -0.0940 -0.1975
 1161PEP     CB42732   5.672  12.037  15.583 -0.0362  0.2112 -0.1759
 1161PEP     CB42733   5.206  11.900  15.655 -0.7118 -0.2504 -0.2544
 1161PEP     CB42734   5.243  11.537  15.895  0.1110  0.0906  0.1954
 1161PEP     CB42735   5.391  11.427  16.345 -0.4120 -0.1771 -0.2731
 1161PEP     CB42736   5.896  11.274  16.446  0.0162 -0.0022  0.0612
 1161PEP     CB42737   6.174  10.982  16.396 -0.0095  0.2494 -0.0567
 1161PEP     CB42738   6.510  10.917  16.215  0.4610 -0.5477  0.0371
 1161PEP     CB42739   6.845  11.075  15.917 -0.1338  0.1995 -0.0945
 1161PEP     CB42740   7.299  11.229  15.995  0.0353 -0.3115 -0.0229
 1161PEP     CB42741   7.694  11.274  16.140  0.0842 -0.1872 -0.3133
 1161PEP     CB42742   8.042  11.617  16.162 -0.0775  0.4958 -0.3479
 1161PEP     CB42743   8.328  11.808  15.882  0.2905  0.2909 -0.1452
 1161PEP     CB42744   8.388  12.037  15.430  0.3902 -0.3678 -0.2966
 1161PEP     CB42745   8.247  12.066  15.058  0.2732 -0.1868  0.2946
 1161PEP     CB42746   8.115  12.105  14.700 -0.1558 -0.0632  0.1780
 1161PEP     CB42747   7.729  12.007  14.666 -0.2872  0.1178 -0.1756
 1161PEP     CB42748   7.310  11.875  15.016  0.3212  0.1790 -0.2064
 1161PEP     CB42749   7.375  11.926  15.502  0.2529  0.1943 -0.3716
 1161PEP     CB42750   7.724  12.091  15.763 -0.2814  0.2424  0.1292
 1161PEP     CB42751   7.970  12.414  15.921 -0.0123  0.2400  0.2447
 1161PEP     CB42752   8.122  12.812  16.105  0.3037 -0.2072  0.3543
 1161PEP     CB42753   8.323  13.106  15.889  0.2534  0.1095 -0.0807
 1161PEP     CB42754   8.183  13.052  15.384  0.2744  0.0196  0.3248
 1161PEP     CB42755   8.178  13.180  14.877  0.0715 -0.0562 -0.5316
 1161PEP     CB42756   8.246  13.314  14.447  0.0758 -0.6048  0.3385
 1161PEP     CB42757   8.204  13.769  14.256  0.0790  0.0730 -0.1933
 1161PEP     CB42758   8.198  14.269  14.513  0.2213 -0.3804  0.2741
 1161PEP     CB42759   8.359  14.696  14.427  0.0603  0.2077 -0.0902
 1161PEP     CB42760   8.268  15.085  14.468  0.0377 -0.3232  0.0687
 1162PEP     CB42761   4.694  16.568  11.058  0.0491  0.2728  0.2222
 1162PEP     CB42762   4.714  16.901  10.779 -0.0350 -0.1871  0.0388
 1162PEP     CB42763   4.410  17.032  10.437 -0.0960 -0.1669  0.3141
 1162PEP     CB42764   3.930  16.999  10.567  0.2762 -0.2872  0.4248
 1162PEP     CB42765   3.727  16.661  10.759 -0.2692 -0.1108 -0.1469
 1162PEP     CB42766   3.437  16.320  10.760 -0.2798  0.0912 -0.4985
 1162PEP     CB42767   3.196  16.028  10.997  0.5529  0.0518  0.1394
 1162PEP     CB42768   2.769  15.819  11.130 -0.0554  0.7129  0.2198
 1162PEP     CB42769   2.648  15.466  11.297  0.1439  0.2722 -0.3023
 1162PEP     CB42770   2.749  15.083  11.420  0.4973 -0.1159 -0.2238
 1162PEP     CB42771   2.580  14.669  11.474  0.0893  0.2606 -0.2898
 1162PEP     CB42772   2.499  14.157  11.360  0.0387 -0.5967 -0.0652
 1162PEP     CB42773   2.659  13.871  11.151  0.1636  0.2526 -0.1166
 1162PEP     CB42774   2.850  13.778  10.808 -0.0992  0.2968 -0.0502
 1162PEP     CB42775   3.085  13.474  10.589  0.3606 -0.0696 -0.1422
 1162PEP     CB42776   3.355  13.675  10.241 -0.1370 -0.0057 -0.3203
 1162PEP     CB42777   3.181  14.035  10.062 -0.2544  0.0541 -0.1580
 1162PEP     CB42778   3.296  14.384   9.792 -0.2054  0.6024  0.0341
 1162PEP     CB42779   3.248  14.876   9.641 -0.2270 -0.3199  0.2149
 1162PEP     CB42780   3.037  15.235   9.490  0.0198  0.0120 -0.1360
 1162PEP     CB42781   2.988  15.514   9.145 -0.3924 -0.3188  0.0929
 1162PEP     CB42782   3.210  15.458   8.701  0.3426 -0.1355  0.1396
 1162PEP     CB42783   3.374  15.628   8.340 -0.0572 -0.0386  0.0996
 1162PEP     CB42784   3.631  15.325   8.112 -0.1596  0.1373  0.2733
 1162PEP     CB42785   3.639  14.830   8.313  0.1025 -0.1592 -0.2115
 1162PEP     CB42786   3.433  14.522   8.514  0.3025  0.0876 -0.0599
 1162PEP     CB42787   3.084  14.251   8.621  0.3195 -0.3089  0.0414
 1162PEP     CB42788   2.718  14.256   9.016 -0.1709  0.3623 -0.0937
 1162PEP     CB42789   2.779  14.311   9.521 -0.1089  0.3410  0.3126
 1162PEP     CB42790   2.831  14.597   9.829 -0.0594 -0.2019 -0.0341
 1162PEP     CB42791   2.977  14.869  10.137  0.0385 -0.4656 -0.1093
 1162PEP     CB42792   3.065  14.865  10.640  0.0461 -0.2165  0.1320
 1162PEP     CB42793   2.973  14.550  10.859  0.0859 -0.0861  0.1195
 1162PEP     CB42794   3.113  14.173  10.941  0.0363  0.5605  0.2694
 1162PEP     CB42795   3.174  13.856  11.223 -0.1618 -0.0079 -0.1868
 1162PEP     CB42796   3.385  13.723  11.522  0.3445  0.3038 -0.1245
 1162PEP     CB42797   3.297  13.490  11.950  0.3580  0.0207  0.1120
 1162PEP     CB42798   3.135  13.305  12.363  0.0912  0.1759  0.4005
 1162PEP     CB42799   2.971  13.170  12.678  0.2076  0.0696 -0.0852
 1162PEP     CB42800   2.584  13.091  12.956 -0.0890  0.2018 -0.0753
 1163PEP     CB42801  16.666  21.253   4.093  0.3202 -0.6017 -0.1398
 1163PEP     CB42802  16.450  20.966   3.850  0.0498  0.2562  0.0796
 1163PEP     CB42803  16.523  20.630   3.754  0.1186  0.1945  0.2518
 1163PEP     CB42804  16.600  20.346   3.506 -0.1509  0.0432  0.2732
 1163PEP     CB42805  16.554  20.041   3.167 -0.0941  0.3569  0.1436
 1163PEP     CB42806  16.276  19.969   2.837 -0.0308 -0.0825  0.0668
 1163PEP     CB42807  15.851  20.080   2.533 -0.0345 -0.1635  0.1135
 1163PEP     CB42808  15.727  20.411   2.291 -0.2449  0.2473 -0.2135
 1163PEP     CB42809  15.556  20.596   1.990 -0.0209 -0.2520  0.1433
 1163PEP     CB42810  15.477  20.649   1.573 -0.4398 -0.1271 -0.0377
 1163PEP     CB42811  15.250  20.399   1.178 -0.1864  0.0175 -0.0879
 1163PEP     CB42812  15.195  20.142   0.776 -0.1811  0.0398  0.0240
 1163PEP     CB42813  15.200  19.650   0.661 -0.0428 -0.2178  0.1710
 1163PEP     CB42814  15.134  19.373   0.433 -0.3103 -0.0613 -0.0555
 1163PEP     CB42815  14.862  18.978   0.355 -0.0897 -0.0194 -0.1113
 1163PEP     CB42816  14.591  18.645   0.239  0.0481  0.1267 -0.0839
 1163PEP     CB42817  14.270  18.566   0.159  0.0501  0.1039  0.1313
 1163PEP     CB42818  14.192  18.489  -0.285  0.0723  0.2213 -0.1963
 1163PEP     CB42819  14.070  18.242  -0.654 -0.5322  0.1716  0.1135
 1163PEP     CB42820  14.074  18.183  -1.150 -0.3448  0.0926 -0.1041
 1163PEP     CB42821  13.779  18.173  -1.455  0.1176 -0.0819  0.0575
 1163PEP     CB42822  13.335  18.038  -1.576 -0.1512  0.0970  0.0778
 1163PEP     CB42823  13.142  17.776  -1.825 -0.0641 -0.0115 -0.3903
 1163PEP     CB42824  13.107  17.330  -1.992  0.0016  0.1498  0.2649
 1163PEP     CB42825  13.365  16.975  -2.066  0.1800 -0.1379 -0.0798
 1163PEP     CB42826  13.647  16.638  -2.386 -0.1493 -0.1231  0.1891
 1163PEP     CB42827  13.579  16.480  -2.783  0.1316 -0.1459 -0.2726
 1163PEP     CB42828  13.246  16.372  -3.006  0.0374  0.0209 -0.0071
 1163PEP     CB42829  13.144  16.176  -3.320 -0.0200  0.1340 -0.0055
 1163PEP     CB42830  13.131  16.101  -3.765  0.2035  0.0354 -0.3379
 1163PEP     CB42831  12.837  16.026  -4.059 -0.3976 -0.3217 -0.0613
 1163PEP     CB42832  12.631  15.827  -4.360  0.0278  0.0373  0.0480
 1163PEP     CB42833  12.428  15.727  -4.800 -0.0413  0.1578  0.4736
 1163PEP     CB42834  12.399  15.885  -5.278 -0.3198  0.0830  0.0191
 1163PEP     CB42835  12.560  15.798  -5.645 -0.2644 -0.4361 -0.0644
 1163PEP     CB42836  12.538  15.992  -6.060  0.1060 -0.2126 -0.1881
 1163PEP     CB42837  12.474  16.410  -6.237 -0.1750 -0.2171 -0.0749
 1163PEP     CB42838  12.812  16.643  -6.435 -0.1443 -0.0981 -0.0466
 1163PEP     CB42839  13.004  16.947  -6.742  0.4565 -0.0181  0.1531
 1163PEP     CB42840  13.278  17.307  -6.721  0.3387  0.3135  0.5362
 1164PEP     CB42841   8.314   3.573   3.430  0.0167  0.1002  0.0966
 1164PEP     CB42842   8.120   4.018   3.491  0.0836 -0.1463  0.0228
 1164PEP     CB42843   8.165   4.456   3.274 -0.2423 -0.0374 -0.4851
 1164PEP     CB42844   8.146   4.976   3.199  0.2917  0.5996 -0.3131
 1164PEP     CB42845   8.252   5.236   2.905  0.0940 -0.2855  0.3317
 1164PEP     CB42846   8.222   5.665   2.716 -0.1933 -0.4631  0.2293
 1164PEP     CB42847   8.002   6.045   2.619  0.4454 -0.0063  0.0560
 1164PEP     CB42848   7.851   6.543   2.580 -0.2290 -0.0835  0.1930
 1164PEP     CB42849   7.787   6.953   2.414 -0.5069 -0.1810  0.2557
 1164PEP     CB42850   7.836   7.433   2.661 -0.3670  0.4143 -0.0491
 1164PEP     CB42851   7.994   7.776   2.844 -0.0552  0.0210  0.1770
 1164PEP     CB42852   8.409   8.036   2.900  0.0248  0.1606  0.1019
 1164PEP     CB42853   8.760   8.046   3.225 -0.0173 -0.1396 -0.1784
 1164PEP     CB42854   9.099   8.234   3.259 -0.0351  0.1895  0.1765
 1164PEP     CB42855   9.358   8.546   3.132 -0.3509  0.5948 -0.0840
 1164PEP     CB42856   9.316   8.678   2.715  0.0802 -0.0044 -0.0457
 1164PEP     CB42857   9.361   8.524   2.276  0.2106 -0.0264 -0.4225
 1164PEP     CB42858   9.439   8.195   2.145  0.0862 -0.0089  0.0555
 1164PEP     CB42859   9.437   7.784   2.335 -0.1976  0.1929 -0.3043
 1164PEP     CB42860   9.736   7.457   2.348 -0.1078  0.1561 -0.1117
 1164PEP     CB42861  10.183   7.528   2.186 -0.1559  0.6920  0.1243
 1164PEP     CB42862  10.637   7.669   2.265 -0.2621 -0.0282  0.0216
 1164PEP     CB42863  10.902   7.912   2.196  0.0501 -0.1108  0.0733
 1164PEP     CB42864  11.094   8.341   2.394  0.0440  0.0014  0.3641
 1164PEP     CB42865  11.252   8.656   2.643 -0.2047  0.2203 -0.0203
 1164PEP     CB42866  11.710   8.937   2.787  0.2676  0.0941 -0.2182
 1164PEP     CB42867  12.120   9.081   2.673 -0.2453  0.1229  0.2233
 1164PEP     CB42868  12.487   9.284   2.977 -0.0825  0.0932 -0.0590
 1164PEP     CB42869  12.803   9.410   3.238 -0.2200 -0.2357 -0.2138
 1164PEP     CB42870  12.945   9.463   3.573  0.2667 -0.0190  0.1515
 1164PEP     CB42871  13.104   9.655   3.946  0.1848 -0.2913 -0.0413
 1164PEP     CB42872  13.429   9.928   4.059  0.1147 -0.1369 -0.1429
 1164PEP     CB42873  13.644  10.253   3.963  0.3476 -0.1373  0.1069
 1164PEP     CB42874  14.131  10.467   3.964 -0.1577 -0.1199 -0.0513
 1164PEP     CB42875  14.446  10.367   4.373 -0.1033 -0.0512  0.0461
 1164PEP     CB42876  14.616   9.948   4.444  0.1625  0.2388  0.0439
 1164PEP     CB42877  14.908   9.650   4.561  0.2194 -0.1196  0.0487
 1164PEP     CB42878  15.121   9.361   4.633 -0.0275 -0.1476  0.1541
 1164PEP     CB42879  15.285   9.142   5.092 -0.0683  0.1985 -0.1810
 1164PEP     CB42880  15.343   8.839   5.310 -0.6575  0.1200  0.2365
 1165PEP     CB42881  20.855  13.089  21.949 -0.2212 -0.1237 -0.4208
 1165PEP     CB42882  21.132  12.851  22.023 -0.1633  0.1730  0.3003
 1165PEP     CB42883  21.318  12.440  21.998 -0.0020 -0.2422  0.5245
 1165PEP     CB42884  21.378  12.004  22.114 -0.3022 -0.3793 -0.0512
 1165PEP     CB42885  21.356  11.595  22.045 -0.2040 -0.4644 -0.0167
 1165PEP     CB42886  21.146  11.206  21.949  0.0119 -0.0540  0.0927
 1165PEP     CB42887  21.008  10.807  22.063  0.2292  0.0229 -0.3172
 1165PEP     CB42888  20.781  10.495  22.043  0.1202 -0.0524 -0.1611
 1165PEP     CB42889  20.515  10.077  22.240  0.2701  0.2089 -0.3776
 1165PEP     CB42890  20.392   9.584  22.317 -0.2011 -0.0739  0.1238
 1165PEP     CB42891  20.122   9.256  22.165  0.0676 -0.0164  0.3639
 1165PEP     CB42892  20.062   9.031  21.820 -0.1871 -0.1468 -0.2421
 1165PEP     CB42893  20.056   9.207  21.381 -0.1637  0.2804  0.2012
 1165PEP     CB42894  19.862   9.120  20.944  0.2674  0.1169 -0.0911
 1165PEP     CB42895  19.636   8.837  20.639  0.3222  0.2914  0.0095
 1165PEP     CB42896  19.708   8.742  20.248 -0.3820 -0.0176  0.4519
 1165PEP     CB42897  19.704   8.750  19.784  0.0442  0.0160  0.0180
 1165PEP     CB42898  19.613   8.790  19.319  0.5795 -0.1155  0.3132
 1165PEP     CB42899  19.161   8.832  19.163 -0.2563 -0.1089 -0.3807
 1165PEP     CB42900  18.777   8.913  19.388 -0.0091 -0.2779 -0.2344
 1165PEP     CB42901  18.401   9.010  19.590 -0.0076 -0.5713 -0.1469
 1165PEP     CB42902  18.136   9.005  19.930 -0.1476  0.0996  0.1733
 1165PEP     CB42903  17.893   8.902  20.314  0.1720  0.3278 -0.2621
 1165PEP     CB42904  17.560   8.826  20.649  0.0445  0.0873  0.1124
 1165PEP     CB42905  17.159   8.572  20.893 -0.0322  0.1873 -0.0549
 1165PEP     CB42906  16.747   8.471  20.742  0.3848  0.1130  0.0685
 1165PEP     CB42907  16.464   8.210  20.645 -0.1631 -0.1340 -0.2319
 1165PEP     CB42908  16.047   8.241  20.623 -0.1437  0.1555 -0.1176
 1165PEP     CB42909  15.599   8.503  20.508  0.1545 -0.4577 -0.0764
 1165PEP     CB42910  15.488   8.840  20.121  0.1165  0.0812  0.0257
 1165PEP     CB42911  15.453   9.320  20.129  0.2533  0.1667  0.0564
 1165PEP     CB42912  15.610   9.574  20.414  0.2577 -0.0853 -0.0147
 1165PEP     CB42913  15.806   9.487  20.860 -0.0569  0.2257  0.0773
 1165PEP     CB42914  16.115   9.498  21.215 -0.0254  0.1113 -0.0018
 1165PEP     CB42915  16.448   9.160  21.347 -0.0817 -0.1195 -0.1591
 1165PEP     CB42916  16.742   8.870  21.690  0.0498 -0.0421  0.0990
 1165PEP     CB42917  16.679   8.415  21.874 -0.0933  0.0259  0.1749
 1165PEP     CB42918  16.726   7.997  21.676 -0.1511  0.0940 -0.5416
 1165PEP     CB42919  16.837   7.748  21.273 -0.2177 -0.2511  0.1597
 1165PEP     CB42920  16.741   7.792  20.896  0.1687  0.0989  0.1141
 1166PEP     CB42921   2.311  19.974  12.932 -0.1817  0.0247 -0.2023
 1166PEP     CB42922   2.476  20.309  13.108  0.4182 -0.0249 -0.1430
 1166PEP     CB42923   2.675  20.687  13.045  0.1089  0.0399 -0.1635
 1166PEP     CB42924   2.634  21.022  12.899  0.1754  0.0499  0.3024
 1166PEP     CB42925   2.497  21.388  12.642 -0.1296  0.0987 -0.4221
 1166PEP     CB42926   2.696  21.820  12.500 -0.2741  0.1033 -0.0313
 1166PEP     CB42927   3.046  22.189  12.415  0.2454  0.0437  0.2222
 1166PEP     CB42928   3.434  22.311  12.271  0.0544 -0.0855 -0.2778
 1166PEP     CB42929   3.838  22.125  12.105  0.1819  0.1080  0.0271
 1166PEP     CB42930   4.270  22.250  12.039  0.3968  0.3289  0.2450
 1166PEP     CB42931   4.685  22.183  12.288 -0.2650 -0.2525 -0.3396
 1166PEP     CB42932   4.726  21.994  12.731  0.0456  0.0705 -0.1827
 1166PEP     CB42933   4.328  21.704  12.837  0.2160  0.0251  0.2256
 1166PEP     CB42934   3.886  21.851  12.710 -0.1009  0.0707 -0.0227
 1166PEP     CB42935   3.631  22.223  12.785 -0.1185  0.1575 -0.1912
 1166PEP     CB42936   3.195  22.338  12.811  0.3714  0.0663 -0.4606
 1166PEP     CB42937   2.937  22.674  12.660  0.4140  0.1624 -0.0552
 1166PEP     CB42938   2.809  22.933  12.287 -0.2785 -0.2108  0.3359
 1166PEP     CB42939   2.926  23.122  11.941  0.2225 -0.3879  0.4012
 1166PEP     CB42940   2.680  23.387  11.604  0.4137  0.1894 -0.4149
 1166PEP     CB42941   2.460  23.435  11.158 -0.0115  0.0926  0.1199
 1166PEP     CB42942   2.574  23.654  10.794 -0.0013 -0.1424  0.0796
 1166PEP     CB42943   2.890  24.007  10.576 -0.1489  0.0600 -0.3623
 1166PEP     CB42944   3.155  24.054  10.182  0.5005 -0.0501 -0.0355
 1166PEP     CB42945   3.529  24.040   9.955  0.0818 -0.4445  0.1274
 1166PEP     CB42946   4.044  24.177  10.087  0.4131  0.0387  0.0585
 1166PEP     CB42947   4.512  24.091  10.322 -0.1935 -0.2197 -0.1117
 1166PEP     CB42948   4.834  24.402  10.365  0.2052 -0.2785 -0.0440
 1166PEP     CB42949   4.930  24.807  10.018  0.0426 -0.7593 -0.0464
 1166PEP     CB42950   4.637  25.005   9.848  0.3363  0.2402  0.0557
 1166PEP     CB42951   4.232  25.002   9.970  0.1403  0.0122  0.2957
 1166PEP     CB42952   4.137  25.070  10.477 -0.0070 -0.1597 -0.4225
 1166PEP     CB42953   4.472  25.143  10.693 -0.2019  0.0776  0.2345
 1166PEP     CB42954   4.917  25.027  10.498  0.1941  0.1560 -0.1367
 1166PEP     CB42955   5.211  24.731  10.519 -0.2668  0.1004  0.0747
 1166PEP     CB42956   5.214  24.337  10.738  0.2091 -0.0881  0.1010
 1166PEP     CB42957   5.026  23.986  10.555 -0.1800  0.3653 -0.1705
 1166PEP     CB42958   5.007  23.915  10.088 -0.3541 -0.2898 -0.2068
 1166PEP     CB42959   5.233  24.127   9.747 -0.0053  0.0029  0.2372
 1166PEP     CB42960   5.126  24.348   9.423  0.1927 -0.1860 -0.0851
 1167PEP     CB42961   9.725  15.687  17.565 -0.1404 -0.1766 -0.0922
 1167PEP     CB42962   9.433  15.492  17.622 -0.0060 -0.3745  0.1319
 1167PEP     CB42963   9.114  15.190  17.736 -0.3062 -0.3822 -0.0795
 1167PEP     CB42964   8.830  14.868  17.564 -0.2584  0.3317 -0.0179
 1167PEP     CB42965   8.790  14.672  17.148 -0.4499 -0.3652 -0.3434
 1167PEP     CB42966   8.904  14.447  16.808  0.2396  0.2111  0.0985
 1167PEP     CB42967   8.940  14.129  16.456  0.3973 -0.2889  0.1501
 1167PEP     CB42968   9.037  13.792  16.183 -0.0791  0.2986  0.1783
 1167PEP     CB42969   8.921  13.452  15.942 -0.0117  0.1312 -0.3196
 1167PEP     CB42970   8.788  13.263  15.620 -0.3770 -0.2178  0.1550
 1167PEP     CB42971   8.762  13.331  15.247 -0.2468 -0.0391 -0.3827
 1167PEP     CB42972   8.868  13.554  14.901  0.1088 -0.1841  0.0769
 1167PEP     CB42973   8.698  13.823  14.590  0.3396 -0.0214 -0.1231
 1167PEP     CB42974   8.681  14.043  14.265 -0.1915 -0.2894 -0.0875
 1167PEP     CB42975   8.295  14.163  13.956  0.1696  0.2097 -0.1472
 1167PEP     CB42976   7.866  14.365  13.912  0.2048  0.0994  0.1947
 1167PEP     CB42977   7.426  14.374  14.180 -0.0039  0.0052  0.4429
 1167PEP     CB42978   7.132  14.620  14.411 -0.1000 -0.1228 -0.0617
 1167PEP     CB42979   6.955  14.826  14.777  0.0318 -0.0357  0.2674
 1167PEP     CB42980   7.183  15.155  15.044  0.4230  0.0032  0.0510
 1167PEP     CB42981   7.628  15.147  15.230  0.0985  0.1273 -0.3911
 1167PEP     CB42982   7.982  15.067  15.496  0.2124  0.5432 -0.1332
 1167PEP     CB42983   8.250  15.241  15.836 -0.1958  0.4745  0.0697
 1167PEP     CB42984   8.381  15.564  16.060  0.0366  0.0351 -0.0604
 1167PEP     CB42985   8.318  15.989  16.085 -0.1096  0.2146  0.1601
 1167PEP     CB42986   8.120  16.284  15.871  0.0171 -0.0194  0.3156
 1167PEP     CB42987   8.124  16.355  15.424 -0.2914  0.4278 -0.0389
 1167PEP     CB42988   8.159  16.046  15.076  0.1346 -0.3661 -0.5348
 1167PEP     CB42989   8.011  15.610  15.159  0.3368  0.1166 -0.1390
 1167PEP     CB42990   7.701  15.471  15.593  0.1414  0.1008 -0.1579
 1167PEP     CB42991   7.713  15.557  15.972  0.0853  0.0547  0.5162
 1167PEP     CB42992   7.850  15.802  16.310  0.3554 -0.0239  0.0414
 1167PEP     CB42993   7.998  16.230  16.491  0.2898 -0.3045  0.6266
 1167PEP     CB42994   8.000  16.634  16.640 -0.0822 -0.4326 -0.1483
 1167PEP     CB42995   8.279  17.047  16.749  0.2393 -0.3426  0.1129
 1167PEP     CB42996   8.525  17.327  16.647  0.0264  0.2502 -0.1166
 1167PEP     CB42997   9.017  17.238  16.656  0.1858 -0.5175  0.0238
 1167PEP     CB42998   9.324  16.997  16.641 -0.1052 -0.4458  0.0076
 1167PEP     CB42999   9.711  16.914  16.826 -0.1725 -0.3335 -0.1737
 1167PEP     CB43000  10.068  16.849  16.909  0.0865  0.1159 -0.0457
 1168PEP     CB43001   8.218  20.262   0.995  0.3151 -0.1586 -0.0300
 1168PEP     CB43002   8.114  20.318   0.536 -0.2364 -0.1276  0.2054
 1168PEP     CB43003   8.167  20.405   0.057 -0.0596  0.3560 -0.3233
 1168PEP     CB43004   8.382  20.533  -0.287 -0.0288  0.2131 -0.2347
 1168PEP     CB43005   8.244  20.816  -0.612  0.1819  0.1195 -0.0114
 1168PEP     CB43006   8.373  21.149  -0.823 -0.2884 -0.0783  0.1155
 1168PEP     CB43007   8.424  21.543  -0.653  0.1689 -0.0833  0.3018
 1168PEP     CB43008   8.459  21.878  -0.403  0.1361 -0.0577  0.1651
 1168PEP     CB43009   8.422  22.154  -0.042 -0.3785  0.0887 -0.1651
 1168PEP     CB43010   8.407  22.429   0.221 -0.0631  0.4089  0.2064
 1168PEP     CB43011   8.689  22.757   0.259  0.4163 -0.2121  0.1894
 1168PEP     CB43012   8.929  23.034   0.407 -0.1387 -0.4324 -0.0405
 1168PEP     CB43013   8.935  23.312   0.741 -0.0277  0.1514 -0.1015
 1168PEP     CB43014   9.038  23.491   1.081 -0.1981 -0.1022 -0.3295
 1168PEP     CB43015   9.331  23.560   1.370 -0.1934  0.3261  0.1904
 1168PEP     CB43016   9.768  23.429   1.568  0.3522  0.1116 -0.1053
 1168PEP     CB43017  10.128  23.350   1.871 -0.2676  0.1714 -0.0399
 1168PEP     CB43018  10.368  23.185   2.119  0.5616  0.0228  0.2058
 1168PEP     CB43019  10.403  22.911   2.428  0.1580  0.0311  0.1936
 1168PEP     CB43020  10.649  22.579   2.668 -0.0455 -0.0227 -0.0565
 1168PEP     CB43021  10.994  22.369   2.572  0.1114 -0.0736  0.2401
 1168PEP     CB43022  11.356  22.587   2.426  0.1392  0.1485 -0.2753
 1168PEP     CB43023  11.430  22.947   2.187  0.0643 -0.3535 -0.3445
 1168PEP     CB43024  11.144  23.216   1.990 -0.0063 -0.1474 -0.1964
 1168PEP     CB43025  10.910  23.436   1.692 -0.0282 -0.0259  0.1945
 1168PEP     CB43026  11.001  23.550   1.243  0.4331 -0.1616 -0.0131
 1168PEP     CB43027  11.402  23.619   1.088  0.0828  0.1613 -0.0746
 1168PEP     CB43028  11.849  23.838   1.286  0.0889  0.1655  0.1327
 1168PEP     CB43029  12.222  23.859   1.512  0.1678  0.0054  0.2546
 1168PEP     CB43030  12.595  23.826   1.517 -0.0142  0.1437  0.1062
 1168PEP     CB43031  12.932  23.695   1.315  0.1443  0.3439  0.0235
 1168PEP     CB43032  13.245  23.500   1.062 -0.2525  0.1874 -0.3645
 1168PEP     CB43033  13.390  23.412   0.626  0.2400 -0.0183 -0.0923
 1168PEP     CB43034  13.183  23.321   0.328  0.0053  0.0468 -0.4642
 1168PEP     CB43035  12.721  23.391   0.276  0.1372  0.0795  0.2458
 1168PEP     CB43036  12.440  23.676   0.453  0.0176 -0.3430  0.5005
 1168PEP     CB43037  12.513  23.964   0.780  0.1997  0.2975 -0.3156
 1168PEP     CB43038  12.183  24.230   1.005  0.0611  0.1094  0.2131
 1168PEP     CB43039  11.719  24.357   1.061 -0.1284  0.3308 -0.2720
 1168PEP     CB43040  11.348  24.637   1.196  0.1083 -0.1671  0.2953
 1169PEP     CB43041   3.795  12.732   2.502 -0.0222  0.0053 -0.2787
 1169PEP     CB43042   3.431  12.968   2.614  0.0951  0.0939  0.1562
 1169PEP     CB43043   3.256  13.186   2.970  0.0169  0.1911 -0.1618
 1169PEP     CB43044   3.170  13.679   3.092 -0.1036 -0.0066 -0.3403
 1169PEP     CB43045   3.356  14.065   3.017 -0.0963  0.1746  0.4791
 1169PEP     CB43046   3.430  14.505   2.954  0.1392 -0.3077 -0.1151
 1169PEP     CB43047   3.200  14.812   3.073 -0.3707 -0.0731 -0.2473
 1169PEP     CB43048   3.045  14.819   3.524 -0.2298  0.0664  0.3110
 1169PEP     CB43049   2.615  14.887   3.614  0.2398 -0.2516 -0.0902
 1169PEP     CB43050   2.250  14.958   3.564 -0.2306  0.5364 -0.2145
 1169PEP     CB43051   1.784  14.981   3.479 -0.1308 -0.3104 -0.1049
 1169PEP     CB43052   1.297  15.160   3.483 -0.2248  0.2105  0.0424
 1169PEP     CB43053   1.009  15.403   3.521  0.1643  0.3790  0.1887
 1169PEP     CB43054   0.665  15.494   3.155  0.2155  0.0033  0.2445
 1169PEP     CB43055   0.485  15.227   2.796  0.0432 -0.1381  0.2953
 1169PEP     CB43056   0.265  15.283   2.404  0.3811 -0.1904  0.2238
 1169PEP     CB43057   0.324  15.233   1.949 -0.0307 -0.0136 -0.2038
 1169PEP     CB43058   0.562  15.270   1.587 -0.2243 -0.3372  0.1256
 1169PEP     CB43059   0.940  15.322   1.287 -0.2087  0.1505  0.0494
 1169PEP     CB43060   1.153  15.173   0.883 -0.3474 -0.1308 -0.2138
 1169PEP     CB43061   1.284  15.050   0.456 -0.0168 -0.3392 -0.1188
 1169PEP     CB43062   1.072  14.755   0.105  0.0711 -0.0487 -0.1900
 1169PEP     CB43063   0.861  14.329   0.158  0.0145 -0.2234  0.0431
 1169PEP     CB43064   0.739  14.150   0.596  0.0208  0.1574  0.0028
 1169PEP     CB43065   0.890  14.344   0.971 -0.1216  0.3340  0.3099
 1169PEP     CB43066   1.296  14.484   1.052  0.0616 -0.0067 -0.0927
 1169PEP     CB43067   1.505  14.848   0.906  0.1045 -0.3926 -0.1278
 1169PEP     CB43068   1.879  15.160   0.813 -0.0701 -0.1148  0.1566
 1169PEP     CB43069   2.306  15.236   0.776  0.1233 -0.0493  0.1776
 1169PEP     CB43070   2.631  15.147   0.955  0.4178 -0.4718 -0.0292
 1169PEP     CB43071   2.901  15.295   1.214  0.1355  0.1739 -0.1943
 1169PEP     CB43072   3.013  15.664   1.486 -0.0887 -0.3135  0.3537
 1169PEP     CB43073   3.012  15.914   1.893 -0.0917  0.1219 -0.0077
 1169PEP     CB43074   3.198  15.787   2.314 -0.2225 -0.0600 -0.2872
 1169PEP     CB43075   3.365  15.377   2.448 -0.2459 -0.0936  0.1525
 1169PEP     CB43076   3.288  14.986   2.235  0.4321  0.0967 -0.0211
 1169PEP     CB43077   3.313  14.833   1.779 -0.0313 -0.2890 -0.1797
 1169PEP     CB43078   3.357  15.043   1.445 -0.0298 -0.7107  0.2630
 1169PEP     CB43079   3.678  15.389   1.248 -0.2466  0.1309  0.4179
 1169PEP     CB43080   3.859  15.751   1.423  0.0314  0.0497 -0.2162
 1170PEP     CB43081  10.499  15.884  21.242  0.0050  0.1744  0.0850
 1170PEP     CB43082  10.760  16.234  21.216 -0.2683  0.0405 -0.2982
 1170PEP     CB43083  11.097  16.507  21.137  0.2339  0.1508  0.3226
 1170PEP     CB43084  11.594  16.611  20.969 -0.2065  0.3172  0.2980
 1170PEP     CB43085  11.944  16.883  20.815 -0.3679  0.1810 -0.0813
 1170PEP     CB43086  12.273  17.211  20.849 -0.1492 -0.4873  0.0562
 1170PEP     CB43087  12.303  17.621  20.957  0.1732 -0.1109 -0.2163
 1170PEP     CB43088  12.461  17.833  21.348  0.1031  0.2799 -0.2798
 1170PEP     CB43089  12.446  18.211  21.563 -0.2868 -0.3903  0.1481
 1170PEP     CB43090  12.124  18.457  21.825  0.1434 -0.1107 -0.2199
 1170PEP     CB43091  11.736  18.433  22.037  0.9101  0.0131  0.2078
 1170PEP     CB43092  11.279  18.583  22.063  0.1218  0.1756 -0.0076
 1170PEP     CB43093  11.114  18.854  22.258  0.0957  0.2182  0.0725
 1170PEP     CB43094  11.099  19.092  22.549  0.0191 -0.0924 -0.1862
 1170PEP     CB43095  11.174  19.340  22.868 -0.1132 -0.1566  0.4494
 1170PEP     CB43096  10.996  19.486  23.224 -0.0886  0.0633  0.2964
 1170PEP     CB43097  10.779  19.497  23.583 -0.0806 -0.1418  0.2765
 1170PEP     CB43098  10.379  19.500  23.939 -0.1117 -0.0580 -0.1226
 1170PEP     CB43099  10.039  19.219  24.139 -0.2858  0.4584 -0.3068
 1170PEP     CB43100   9.744  18.968  24.324 -0.0190  0.4018 -0.1597
 1170PEP     CB43101   9.385  19.017  24.546  0.3751 -0.1728  0.2282
 1170PEP     CB43102   9.001  19.186  24.618 -0.0156 -0.1622 -0.1391
 1170PEP     CB43103   8.628  19.414  24.741 -0.3777 -0.2839  0.0868
 1170PEP     CB43104   8.637  19.925  24.630 -0.2546 -0.1370  0.0988
 1170PEP     CB43105   8.716  20.256  24.424  0.2316 -0.1083 -0.3024
 1170PEP     CB43106   8.762  20.772  24.343  0.3046  0.1891 -0.0480
 1170PEP     CB43107   8.978  21.131  24.100  0.2688  0.1886 -0.1325
 1170PEP     CB43108   8.864  21.619  23.859  0.3034  0.2428 -0.1510
 1170PEP     CB43109   8.674  21.817  23.495  0.0762 -0.0834  0.0757
 1170PEP     CB43110   8.521  21.923  23.046  0.0861 -0.3198 -0.3262
 1170PEP     CB43111   8.337  21.882  22.639  0.1224  0.2813  0.3157
 1170PEP     CB43112   8.081  22.095  22.381 -0.1984  0.2588 -0.0200
 1170PEP     CB43113   7.885  22.452  22.240 -0.0530  0.0628  0.1841
 1170PEP     CB43114   7.663  22.699  22.007 -0.0290 -0.0203 -0.1726
 1170PEP     CB43115   7.418  23.093  22.043  0.3598  0.1233  0.0056
 1170PEP     CB43116   7.323  23.450  22.330  0.2013 -0.2982  0.0365
 1170PEP     CB43117   7.497  23.771  22.526 -0.0413  0.0921  0.2121
 1170PEP     CB43118   7.853  23.681  22.741  0.3791 -0.0860  0.1745
 1170PEP     CB43119   7.864  23.288  22.850  0.4667  0.0475  0.2346
 1170PEP     CB43120   7.507  23.085  22.894  0.2060 -0.2714 -0.2954
 1171PEP     CB43121   0.345  15.156   4.483  0.4650  0.0642 -0.1920
 1171PEP     CB43122   0.630  14.736   4.537  0.4874  0.1181  0.4118
 1171PEP     CB43123   0.459  14.335   4.581  0.1450 -0.0037 -0.2050
 1171PEP     CB43124   0.166  14.130   4.317  0.0413  0.3546  0.3783
 1171PEP     CB43125   0.006  14.259   3.850 -0.2210  0.1006 -0.2352
 1171PEP     CB43126   0.224  14.252   3.509 -0.3376  0.2865  0.1119
 1171PEP     CB43127   0.430  14.315   3.042 -0.3765 -0.0097  0.1007
 1171PEP     CB43128   0.656  14.217   2.616 -0.0451  0.1708 -0.0693
 1171PEP     CB43129   0.439  13.835   2.309 -0.1735  0.1002  0.0857
 1171PEP     CB43130   0.171  13.539   2.600 -0.2541 -0.1624 -0.0583
 1171PEP     CB43131   0.203  13.370   3.120  0.0383 -0.1868  0.0353
 1171PEP     CB43132   0.449  13.503   3.490  0.0890  0.0436  0.1450
 1171PEP     CB43133   0.550  13.841   3.786  0.2982 -0.2053  0.2153
 1171PEP     CB43134   0.713  14.177   4.060 -0.2084 -0.0582 -0.0809
 1171PEP     CB43135   1.041  14.436   4.315 -0.0945  0.2058  0.2356
 1171PEP     CB43136   1.078  14.778   4.685  0.2527  0.0624  0.6551
 1171PEP     CB43137   1.302  15.119   4.713  0.3360 -0.2305 -0.2270
 1171PEP     CB43138   1.508  15.345   5.054 -0.0803 -0.0260  0.0137
 1171PEP     CB43139   1.421  15.752   5.356  0.0009  0.1736 -0.1831
 1171PEP     CB43140   1.126  16.039   5.594  0.1494 -0.0323  0.0594
 1171PEP     CB43141   1.048  16.393   5.801 -0.1989 -0.3624 -0.0864
 1171PEP     CB43142   0.969  16.750   6.057  0.0077 -0.0843 -0.2103
 1171PEP     CB43143   1.108  17.193   6.147 -0.1051  0.1666  0.4935
 1171PEP     CB43144   1.104  17.569   6.457  0.2424 -0.0477 -0.4277
 1171PEP     CB43145   0.799  17.968   6.611 -0.5630 -0.1154  0.1204
 1171PEP     CB43146   0.515  18.171   6.855  0.1292  0.1757  0.0322
 1171PEP     CB43147   0.162  18.302   7.007  0.0108 -0.2423 -0.2062
 1171PEP     CB43148  -0.023  18.626   7.125 -0.0384  0.3333 -0.0204
 1171PEP     CB43149  -0.301  18.934   6.947 -0.2293 -0.1447  0.0068
 1171PEP     CB43150  -0.366  19.079   6.461  0.4833  0.1556  0.3157
 1171PEP     CB43151  -0.696  19.031   6.057  0.2615 -0.3520  0.2744
 1171PEP     CB43152  -1.053  18.859   5.737  0.1528  0.0475 -0.0920
 1171PEP     CB43153  -1.543  18.849   5.556 -0.1275  0.3798 -0.0991
 1171PEP     CB43154  -1.949  18.847   5.506 -0.2288  0.1533  0.2683
 1171PEP     CB43155  -2.414  18.885   5.673  0.3080 -0.1022  0.1769
 1171PEP     CB43156  -2.689  18.903   5.958 -0.0938  0.1167 -0.1883
 1171PEP     CB43157  -3.041  18.763   6.209  0.0733  0.1529 -0.1934
 1171PEP     CB43158  -3.485  18.799   6.264 -0.2484  0.0160  0.1430
 1171PEP     CB43159  -3.901  18.951   6.272 -0.2617 -0.1918 -0.1481
 1171PEP     CB43160  -4.328  19.104   6.371 -0.1177 -0.2722  0.0123
 1172PEP     CB43161   8.739  18.805  12.211 -0.0573  0.1605 -0.1946
 1172PEP     CB43162   8.402  19.222  12.032 -0.2043 -0.3367 -0.3246
 1172PEP     CB43163   8.456  19.517  11.665 -0.0309 -0.3121 -0.4929
 1172PEP     CB43164   8.508  19.480  11.306 -0.0417  0.2630 -0.2938
 1172PEP     CB43165   8.766  19.609  10.904  0.0357 -0.0733  0.2180
 1172PEP     CB43166   8.935  19.481  10.511 -0.1117  0.2885 -0.0216
 1172PEP     CB43167   8.925  19.106  10.254 -0.2713  0.0447  0.0043
 1172PEP     CB43168   9.027  18.776  10.215  0.0806  0.1975  0.3092
 1172PEP     CB43169   9.185  18.508  10.592 -0.1478  0.3336  0.1797
 1172PEP     CB43170   9.060  18.495  10.968 -0.0085 -0.1578  0.2521
 1172PEP     CB43171   9.264  18.435  11.387 -0.0448  0.2741  0.0055
 1172PEP     CB43172   9.617  18.569  11.636  0.3142  0.0106  0.0684
 1172PEP     CB43173  10.025  18.519  11.811  0.1808  0.1570  0.0217
 1172PEP     CB43174  10.328  18.546  12.049 -0.0737  0.0977  0.1028
 1172PEP     CB43175  10.776  18.521  12.273  0.2431 -0.0162  0.3907
 1172PEP     CB43176  11.192  18.514  12.174  0.3252  0.3845 -0.1614
 1172PEP     CB43177  11.545  18.754  11.923  0.0967  0.0075  0.1393
 1172PEP     CB43178  11.868  19.076  11.780  0.3239  0.1063  0.1279
 1172PEP     CB43179  12.147  19.070  11.979  0.3054  0.4308 -0.2964
 1172PEP     CB43180  12.227  19.092  12.422 -0.4246  0.0252 -0.1516
 1172PEP     CB43181  12.139  18.955  12.794  0.1975  0.0120 -0.1260
 1172PEP     CB43182  11.922  18.693  13.167 -0.0362  0.0156 -0.0393
 1172PEP     CB43183  11.904  18.553  13.517  0.3491 -0.0879  0.0003
 1172PEP     CB43184  11.546  18.364  13.665  0.3726 -0.0771 -0.1366
 1172PEP     CB43185  11.114  18.326  13.722  0.3705 -0.1922  0.3113
 1172PEP     CB43186  10.810  18.174  13.817 -0.0676  0.0593 -0.1299
 1172PEP     CB43187  10.653  17.708  13.936  0.2201 -0.0036  0.1488
 1172PEP     CB43188  10.252  17.556  13.951 -0.4762 -0.1820  0.1968
 1172PEP     CB43189   9.900  17.365  14.225 -0.1820  0.2049 -0.0666
 1172PEP     CB43190   9.571  17.150  14.410 -0.3245  0.0027 -0.4583
 1172PEP     CB43191   9.405  16.850  14.691  0.4075 -0.1459  0.1044
 1172PEP     CB43192   9.235  16.709  15.137  0.5530  0.2843  0.0355
 1172PEP     CB43193   9.011  16.643  15.496 -0.2739  0.1334 -0.1996
 1172PEP     CB43194   8.989  16.442  15.907 -0.3340 -0.2755  0.2276
 1172PEP     CB43195   8.573  16.378  16.208 -0.2882 -0.1012 -0.1695
 1172PEP     CB43196   8.183  16.647  16.157  0.0532 -0.1689 -0.1436
 1172PEP     CB43197   8.138  16.996  15.878  0.2443  0.0786 -0.0393
 1172PEP     CB43198   8.349  16.930  15.446  0.0996 -0.2435  0.0592
 1172PEP     CB43199   8.515  16.553  15.215 -0.0047 -0.1465  0.2090
 1172PEP     CB43200   8.675  16.178  14.893  0.1634  0.2230 -0.0283
 1173PEP     CB43201  21.479  19.418  20.790 -0.2906 -0.1747 -0.2580
 1173PEP     CB43202  21.859  19.518  21.042 -0.0608 -0.2057 -0.3076
 1173PEP     CB43203  22.261  19.441  21.320  0.0256  0.1562  0.0402
 1173PEP     CB43204  22.721  19.416  21.195  0.4171 -0.0584 -0.1629
 1173PEP     CB43205  22.803  19.323  20.733  0.4780 -0.1701  0.3959
 1173PEP     CB43206  22.509  19.250  20.362  0.5468 -0.3812 -0.1215
 1173PEP     CB43207  22.043  19.493  20.368 -0.0783  0.2953  0.2913
 1173PEP     CB43208  21.680  19.690  20.433 -0.0001 -0.2613  0.2544
 1173PEP     CB43209  21.296  19.895  20.677 -0.0924  0.3309  0.3652
 1173PEP     CB43210  21.037  19.970  20.951 -0.0004 -0.1846 -0.1472
 1173PEP     CB43211  20.681  20.183  20.992 -0.0159 -0.3186 -0.0453
 1173PEP     CB43212  20.478  20.552  21.075  0.2009  0.1108  0.2488
 1173PEP     CB43213  20.527  20.917  21.299  0.1608 -0.1302 -0.2604
 1173PEP     CB43214  20.876  21.126  21.582  0.2122 -0.1372 -0.1073
 1173PEP     CB43215  21.258  21.349  21.621 -0.2422  0.1133  0.3007
 1173PEP     CB43216  21.552  21.796  21.641 -0.0998 -0.1959  0.1762
 1173PEP     CB43217  21.667  22.136  21.870  0.0436 -0.2174  0.0630
 1173PEP     CB43218  21.484  22.508  21.841  0.0248 -0.4740  0.1127
 1173PEP     CB43219  21.534  22.777  21.386 -0.4113  0.0589 -0.0007
 1173PEP     CB43220  21.368  22.565  21.040 -0.3738 -0.2538  0.1367
 1173PEP     CB43221  21.098  22.194  20.741 -0.0448 -0.0805  0.0800
 1173PEP     CB43222  20.937  21.755  20.797 -0.3247 -0.0916  0.0031
 1173PEP     CB43223  20.524  21.686  20.747  0.3354  0.2679  0.1544
 1173PEP     CB43224  20.385  22.106  20.871 -0.1777  0.0806  0.0249
 1173PEP     CB43225  20.689  22.337  21.021  0.1057  0.0231 -0.0947
 1173PEP     CB43226  20.998  22.052  21.193  0.1315  0.2386  0.4816
 1173PEP     CB43227  20.863  21.548  21.274  0.2364  0.0706 -0.1102
 1173PEP     CB43228  20.399  21.412  21.221 -0.2051 -0.1765  0.2989
 1173PEP     CB43229  20.223  21.823  21.301 -0.1972  0.0775  0.1012
 1173PEP     CB43230  20.080  22.222  21.442  0.2345 -0.0672 -0.0095
 1173PEP     CB43231  19.789  22.483  21.609  0.1193  0.0717 -0.1530
 1173PEP     CB43232  19.525  22.288  21.877  0.1671 -0.1775  0.1948
 1173PEP     CB43233  19.790  22.027  22.217  0.0328 -0.0085 -0.1822
 1173PEP     CB43234  20.214  22.186  22.247 -0.0013 -0.0748 -0.6503
 1173PEP     CB43235  20.356  22.595  21.917  0.2232 -0.3773 -0.0047
 1173PEP     CB43236  20.400  22.565  21.503 -0.0030  0.1203 -0.0128
 1173PEP     CB43237  20.123  22.629  21.190 -0.3208 -0.0864  0.2147
 1173PEP     CB43238  19.654  22.621  21.015 -0.3397 -0.0201 -0.0948
 1173PEP     CB43239  19.081  22.816  20.913 -0.0982  0.0825 -0.3493
 1173PEP     CB43240  18.699  23.046  21.046 -0.2568  0.2186 -0.0753
 1174PEP     CB43241  11.738  21.553  19.466 -0.1955  0.3124 -0.1096
 1174PEP     CB43242  11.379  21.641  19.302  0.0647 -0.1340 -0.0635
 1174PEP     CB43243  11.033  21.795  18.999 -0.0500 -0.4656  0.1429
 1174PEP     CB43244  10.936  22.046  18.625  0.6917 -0.3950  0.5647
 1174PEP     CB43245  10.891  22.462  18.359 -0.0939  0.3049  0.0176
 1174PEP     CB43246  10.966  22.825  18.056  0.0064  0.3422 -0.1850
 1174PEP     CB43247  11.237  22.892  17.752 -0.0456  0.1577  0.3378
 1174PEP     CB43248  11.646  22.753  17.620 -0.1628  0.0121 -0.0640
 1174PEP     CB43249  12.040  22.968  17.504  0.1002 -0.0560 -0.1480
 1174PEP     CB43250  12.121  23.179  17.161  0.4895  0.1414 -0.1215
 1174PEP     CB43251  12.111  23.184  16.725  0.3005 -0.2150 -0.0343
 1174PEP     CB43252  12.011  22.873  16.488  0.1656  0.0901  0.0130
 1174PEP     CB43253  12.095  22.441  16.476  0.3663  0.3678  0.0828
 1174PEP     CB43254  11.918  22.081  16.651  0.2185 -0.1148  0.2422
 1174PEP     CB43255  11.584  21.800  16.692 -0.0999 -0.5203 -0.1104
 1174PEP     CB43256  11.382  21.529  16.819 -0.1338 -0.1178 -0.2691
 1174PEP     CB43257  10.944  21.256  16.850  0.0837  0.3123 -0.2623
 1174PEP     CB43258  10.440  21.268  16.724 -0.4776  0.1574 -0.1953
 1174PEP     CB43259  10.066  21.347  16.622 -0.0455  0.1423  0.2746
 1174PEP     CB43260   9.996  21.793  16.366 -0.3587  0.4314 -0.3923
 1174PEP     CB43261  10.397  22.127  16.355 -0.2649  0.0148 -0.0995
 1174PEP     CB43262  10.651  22.293  16.609  0.4251 -0.1118 -0.4284
 1174PEP     CB43263  10.767  22.620  16.983  0.2865  0.1729 -0.2134
 1174PEP     CB43264  10.701  22.999  16.925  0.1387  0.0205 -0.0877
 1174PEP     CB43265  10.586  23.386  16.865 -0.1864 -0.2391  0.0006
 1174PEP     CB43266  10.625  23.756  16.637 -0.2178  0.0744 -0.1418
 1174PEP     CB43267  11.046  23.936  16.536 -0.1429  0.2595  0.0983
 1174PEP     CB43268  11.425  24.074  16.839 -0.0140  0.2659 -0.0570
 1174PEP     CB43269  11.550  24.508  16.995 -0.0675  0.0440 -0.1964
 1174PEP     CB43270  11.169  24.909  16.932  0.1690  0.1872  0.2840
 1174PEP     CB43271  10.732  25.171  16.883 -0.2881  0.2333  0.1666
 1174PEP     CB43272  10.379  25.517  16.862  0.4783 -0.3134  0.0255
 1174PEP     CB43273   9.999  25.734  16.912  0.0571 -0.1055 -0.1368
 1174PEP     CB43274   9.659  25.942  17.091  0.0037  0.0370  0.1645
 1174PEP     CB43275   9.672  26.381  17.323 -0.2819 -0.3291 -0.1427
 1174PEP     CB43276   9.993  26.572  17.442  0.3688 -0.1072 -0.4518
 1174PEP     CB43277  10.397  26.606  17.239 -0.4116  0.2935 -0.1853
 1174PEP     CB43278  10.810  26.873  17.209  0.1491  0.0890 -0.4250
 1174PEP     CB43279  11.244  26.846  17.392 -0.0005 -0.2704  0.0194
 1174PEP     CB43280  11.543  26.940  17.697  0.1066  0.2346 -0.1140
 1175PEP     CB43281   9.964   0.114   9.514 -0.1637 -0.0307  0.2482
 1175PEP     CB43282  10.211   0.113   9.925 -0.3435  0.5125  0.1282
 1175PEP     CB43283  10.581   0.022  10.056  0.1759 -0.0567  0.2929
 1175PEP     CB43284  11.028  -0.053  10.145 -0.0335 -0.3206 -0.3099
 1175PEP     CB43285  11.523  -0.195  10.220  0.0911  0.2555  0.0290
 1175PEP     CB43286  11.874  -0.014  10.378 -0.1799  0.1710 -0.2526
 1175PEP     CB43287  11.895   0.428  10.395 -0.1308 -0.3342  0.0360
 1175PEP     CB43288  11.574   0.746  10.529  0.0796  0.0406  0.2532
 1175PEP     CB43289  11.339   1.023  10.855 -0.2019  0.1629 -0.0263
 1175PEP     CB43290  11.328   0.988  11.320 -0.1551  0.0475  0.1236
 1175PEP     CB43291  11.384   0.700  11.763 -0.2250  0.5404  0.3702
 1175PEP     CB43292  11.448   0.408  12.085  0.2071  0.3009  0.2379
 1175PEP     CB43293  11.755  -0.016  12.176  0.0355  0.0322  0.1117
 1175PEP     CB43294  12.065  -0.347  11.872 -0.3145 -0.1471 -0.0596
 1175PEP     CB43295  12.533  -0.380  11.710  0.0679  0.1094 -0.0710
 1175PEP     CB43296  12.927  -0.414  11.746  0.0831 -0.1540 -0.0608
 1175PEP     CB43297  13.309  -0.148  11.877 -0.1475 -0.0105  0.0989
 1175PEP     CB43298  13.256   0.228  12.151 -0.2788  0.2582  0.0683
 1175PEP     CB43299  13.248   0.331  12.509 -0.5151 -0.1110 -0.3315
 1175PEP     CB43300  13.138   0.217  13.033  0.1095  0.0988 -0.2370
 1175PEP     CB43301  12.737   0.084  13.165 -0.1404  0.3057 -0.2438
 1175PEP     CB43302  12.372   0.290  12.897 -0.0653 -0.1646  0.0945
 1175PEP     CB43303  12.455   0.506  12.511 -0.3443 -0.1395  0.3655
 1175PEP     CB43304  12.489   0.571  12.004  0.4208  0.4144  0.2824
 1175PEP     CB43305  12.375   0.455  11.626  0.1733  0.0500 -0.1006
 1175PEP     CB43306  12.124   0.078  11.541  0.1720  0.2153 -0.0608
 1175PEP     CB43307  12.163  -0.323  11.370  0.3571  0.2684 -0.2656
 1175PEP     CB43308  12.163  -0.747  11.485 -0.1736 -0.3897  0.1511
 1175PEP     CB43309  11.861  -1.023  11.735  0.0445  0.1039  0.0389
 1175PEP     CB43310  11.641  -1.008  12.130  0.0759 -0.3376  0.2032
 1175PEP     CB43311  11.297  -1.137  12.358 -0.1757 -0.0752  0.1987
 1175PEP     CB43312  11.215  -1.497  12.622 -0.1651  0.2220  0.0417
 1175PEP     CB43313  11.420  -1.822  12.635 -0.0647 -0.1269  0.0311
 1175PEP     CB43314  11.698  -2.053  12.468 -0.0587 -0.0016  0.1236
 1175PEP     CB43315  11.750  -2.397  12.268  0.2005  0.1249  0.1457
 1175PEP     CB43316  11.731  -2.890  12.278 -0.2873 -0.3441  0.1632
 1175PEP     CB43317  11.933  -3.283  12.349  0.3053  0.3556  0.1967
 1175PEP     CB43318  12.090  -3.526  12.095  0.3937  0.0916 -0.2400
 1175PEP     CB43319  12.058  -3.565  11.677 -0.1387 -0.2560  0.1867
 1175PEP     CB43320  11.711  -3.273  11.423 -0.2016  0.3209  0.0548
 1176PEP     CB43321  12.676   2.199  20.983  0.0416  0.1243  0.3551
 1176PEP     CB43322  12.404   2.436  21.267 -0.0995  0.2979 -0.0451
 1176PEP     CB43323  12.369   2.858  21.161  0.2903  0.3172  0.0540
 1176PEP     CB43324  12.817   3.175  21.121  0.2580  0.0600  0.1171
 1176PEP     CB43325  13.080   3.280  21.353  0.3808 -0.5777 -0.0704
 1176PEP     CB43326  13.171   3.571  21.720 -0.4825  0.0859  0.1279
 1176PEP     CB43327  13.101   3.742  22.070 -0.0814 -0.0792  0.4148
 1176PEP     CB43328  12.865   3.824  22.292 -0.3523  0.1181  0.0064
 1176PEP     CB43329  12.542   3.948  22.623  0.0750 -0.0004 -0.1142
 1176PEP     CB43330  12.375   4.073  22.965  0.2407 -0.0059  0.2588
 1176PEP     CB43331  12.196   4.401  23.260 -0.2282 -0.0834  0.1969
 1176PEP     CB43332  12.044   4.667  23.615 -0.1255 -0.1501 -0.1698
 1176PEP     CB43333  11.796   5.012  23.732 -0.0960  0.0808  0.0177
 1176PEP     CB43334  11.618   5.354  23.580  0.0232  0.2605  0.3154
 1176PEP     CB43335  11.733   5.705  23.266  0.0363 -0.0026 -0.1736
 1176PEP     CB43336  11.983   5.826  22.941  0.3367  0.1172 -0.3173
 1176PEP     CB43337  11.889   5.948  22.468  0.0607  0.0711 -0.0752
 1176PEP     CB43338  11.717   5.938  21.985 -0.1440 -0.0702  0.3384
 1176PEP     CB43339  11.743   5.657  21.683 -0.1031 -0.0186 -0.0781
 1176PEP     CB43340  11.910   5.536  21.241 -0.1692  0.2970  0.0374
 1176PEP     CB43341  11.973   5.762  20.842  0.3978 -0.1611  0.4901
 1176PEP     CB43342  11.989   5.723  20.353  0.2118  0.0048  0.0381
 1176PEP     CB43343  12.084   5.744  19.927 -0.1266  0.3255 -0.3577
 1176PEP     CB43344  11.867   5.715  19.517 -0.2011 -0.1280 -0.2708
 1176PEP     CB43345  11.798   5.891  19.083 -0.3816 -0.1110 -0.1444
 1176PEP     CB43346  12.064   6.192  18.825 -0.0966  0.0227 -0.1035
 1176PEP     CB43347  12.410   6.568  18.960 -0.4522 -0.2650  0.3088
 1176PEP     CB43348  12.597   6.871  19.110 -0.1892 -0.0184 -0.1828
 1176PEP     CB43349  12.891   7.160  19.283  0.1004  0.2544 -0.0348
 1176PEP     CB43350  13.263   7.186  19.166  0.1640 -0.0200  0.0858
 1176PEP     CB43351  13.484   7.290  18.858 -0.1015  0.0354 -0.5383
 1176PEP     CB43352  13.702   7.351  18.524 -0.0505 -0.5308  0.2317
 1176PEP     CB43353  13.819   7.400  18.014  0.6139  0.0203  0.1831
 1176PEP     CB43354  14.013   7.307  17.647  0.0617 -0.3086  0.3062
 1176PEP     CB43355  13.770   7.135  17.293 -0.2307  0.1148 -0.0839
 1176PEP     CB43356  13.467   7.131  16.999  0.0145  0.1257  0.4681
 1176PEP     CB43357  13.252   6.851  16.689  0.0537  0.1780  0.3258
 1176PEP     CB43358  13.138   6.439  16.407 -0.1155 -0.0137 -0.0465
 1176PEP     CB43359  13.039   6.006  16.298 -0.0112  0.3535  0.0550
 1176PEP     CB43360  12.886   5.652  15.998  0.3294  0.3144 -0.0016
 1177PEP     CB43361   3.028  12.197  11.591  0.2947  0.2788 -0.1012
 1177PEP     CB43362   3.111  12.285  11.227  0.2961  0.0621 -0.1431
 1177PEP     CB43363   2.912  12.173  10.805 -0.1458  0.2069  0.1771
 1177PEP     CB43364   2.795  11.879  10.540 -0.0531 -0.5099  0.2357
 1177PEP     CB43365   2.672  11.623  10.131  0.1017  0.0946  0.1454
 1177PEP     CB43366   2.305  11.796   9.909  0.2285 -0.4432 -0.0031
 1177PEP     CB43367   1.945  12.053  10.027 -0.2216 -0.0994 -0.0363
 1177PEP     CB43368   1.582  12.239   9.913 -0.2695 -0.0899 -0.2513
 1177PEP     CB43369   1.442  12.626  10.048 -0.1294  0.1218 -0.0496
 1177PEP     CB43370   1.546  12.935  10.312 -0.0765  0.0208  0.1401
 1177PEP     CB43371   1.734  12.871  10.739 -0.4517  0.0643  0.3758
 1177PEP     CB43372   1.588  12.846  11.137 -0.6065 -0.1756 -0.0602
 1177PEP     CB43373   1.244  12.623  11.254  0.3679 -0.0318  0.0629
 1177PEP     CB43374   0.860  12.753  11.328 -0.1597  0.0087 -0.2072
 1177PEP     CB43375   0.438  12.737  11.123 -0.0292  0.0281 -0.1647
 1177PEP     CB43376   0.085  12.718  11.204 -0.0876  0.0372  0.0578
 1177PEP     CB43377  -0.174  12.382  11.211 -0.1708 -0.2704 -0.2751
 1177PEP     CB43378  -0.144  11.920  11.471  0.1040 -0.2567 -0.1035
 1177PEP     CB43379   0.154  11.742  11.686 -0.0547  0.5022  0.4016
 1177PEP     CB43380   0.135  11.539  12.219 -0.3272  0.0978 -0.3028
 1177PEP     CB43381  -0.285  11.491  12.406 -0.0963 -0.1344 -0.2143
 1177PEP     CB43382  -0.687  11.683  12.243  0.1105 -0.0929 -0.1033
 1177PEP     CB43383  -0.744  11.822  11.842  0.0629 -0.0596  0.0796
 1177PEP     CB43384  -0.950  12.047  11.505  0.1481  0.2224 -0.0331
 1177PEP     CB43385  -1.281  12.029  11.261  0.2996  0.2341  0.4980
 1177PEP     CB43386  -1.624  12.039  11.010 -0.4175  0.0024  0.0926
 1177PEP     CB43387  -1.990  11.920  10.797  0.0436  0.2042 -0.2214
 1177PEP     CB43388  -2.451  11.901  10.563  0.0654  0.1562  0.1648
 1177PEP     CB43389  -2.767  11.766  10.303 -0.0443 -0.3553  0.0171
 1177PEP     CB43390  -2.887  11.470  10.118  0.4259  0.4110 -0.2845
 1177PEP     CB43391  -2.899  11.154   9.843 -0.3714 -0.1792 -0.4295
 1177PEP     CB43392  -2.564  10.885   9.621  0.0618 -0.0008 -0.4677
 1177PEP     CB43393  -2.219  10.650   9.378 -0.2796 -0.0605  0.0203
 1177PEP     CB43394  -2.099  10.490   8.972 -0.1335  0.0435  0.1564
 1177PEP     CB43395  -2.278  10.481   8.602  0.0680  0.0834  0.2796
 1177PEP     CB43396  -2.477  10.334   8.252 -0.3558  0.2254  0.2809
 1177PEP     CB43397  -2.405  10.037   7.946 -0.1399  0.2160  0.0373
 1177PEP     CB43398  -2.269   9.620   7.841  0.0562  0.0713 -0.2624
 1177PEP     CB43399  -2.020   9.343   8.078 -0.2699 -0.1661  0.0113
 1177PEP     CB43400  -1.645   9.342   8.214  0.3591 -0.3084  0.2062
 1178PEP     CB43401   9.599   4.681   6.014 -0.1923 -0.1724 -0.2196
 1178PEP     CB43402   9.874   4.371   6.245  0.0672  0.0254  0.1924
 1178PEP     CB43403  10.072   4.077   6.597 -0.0789  0.3047  0.1022
 1178PEP     CB43404  10.270   3.869   6.740  0.0354  0.1671 -0.0992
 1178PEP     CB43405  10.297   3.613   7.130 -0.0102  0.1151  0.1653
 1178PEP     CB43406  10.468   3.566   7.570 -0.1190 -0.1352 -0.0490
 1178PEP     CB43407  10.842   3.559   7.827  0.0032  0.2131  0.1734
 1178PEP     CB43408  10.835   3.242   8.087  0.0250 -0.2442 -0.4373
 1178PEP     CB43409  10.677   2.827   8.148  0.3580  0.1311 -0.3578
 1178PEP     CB43410  10.404   2.637   8.482 -0.3477  0.0907  0.1876
 1178PEP     CB43411  10.372   2.759   8.893  0.2281 -0.0738  0.0955
 1178PEP     CB43412  10.432   3.184   9.007  0.3547  0.0597  0.0517
 1178PEP     CB43413  10.702   3.441   9.289 -0.3134  0.1391 -0.0700
 1178PEP     CB43414  10.871   3.739   9.618  0.1082 -0.0736 -0.0235
 1178PEP     CB43415  11.287   3.923   9.535  0.3358 -0.1336 -0.0578
 1178PEP     CB43416  11.631   3.756   9.460 -0.2733 -0.0671 -0.0444
 1178PEP     CB43417  11.893   3.503   9.232  0.1734  0.2865 -0.2208
 1178PEP     CB43418  11.756   3.396   8.778 -0.1199 -0.2693  0.1503
 1178PEP     CB43419  11.282   3.314   8.686 -0.1188  0.3336 -0.0540
 1178PEP     CB43420  10.832   3.110   8.571 -0.0472 -0.1163  0.2432
 1178PEP     CB43421  10.417   3.271   8.427 -0.0286  0.2534 -0.2641
 1178PEP     CB43422  10.234   3.402   7.973 -0.1549 -0.1348 -0.0543
 1178PEP     CB43423   9.928   3.352   7.602  0.0520  0.1426  0.1201
 1178PEP     CB43424   9.544   3.433   7.460  0.0631  0.1281 -0.0240
 1178PEP     CB43425   9.208   3.584   7.698 -0.0436  0.1498  0.0825
 1178PEP     CB43426   8.952   3.580   8.025 -0.0961 -0.2001  0.1851
 1178PEP     CB43427   8.855   3.436   8.366 -0.3369 -0.0196  0.1099
 1178PEP     CB43428   8.727   3.454   8.861 -0.0197 -0.3676 -0.3102
 1178PEP     CB43429   8.557   3.257   9.219  0.1920  0.1142  0.2621
 1178PEP     CB43430   8.356   2.845   9.293 -0.0716  0.0866 -0.2042
 1178PEP     CB43431   8.522   2.459   9.510  0.2515  0.2250 -0.1023
 1178PEP     CB43432   8.884   2.277   9.579 -0.1315  0.3629  0.1189
 1178PEP     CB43433   9.260   2.413   9.679 -0.2645  0.0466 -0.2583
 1178PEP     CB43434   9.433   2.809   9.794  0.2607 -0.1242  0.1126
 1178PEP     CB43435   9.611   3.087   9.614  0.1955 -0.1061 -0.3665
 1178PEP     CB43436   9.579   3.202   9.198 -0.1383  0.1851 -0.0310
 1178PEP     CB43437   9.404   3.467   8.828  0.1863  0.2023  0.3799
 1178PEP     CB43438   9.154   3.822   8.766 -0.0091 -0.2428 -0.0618
 1178PEP     CB43439   8.786   3.965   8.659  0.2211  0.0286  0.2682
 1178PEP     CB43440   8.585   3.919   8.235  0.3477  0.1158  0.1618
 1179PEP     CB43441   6.612   9.784  18.826  0.0367 -0.1702  0.0284
 1179PEP     CB43442   6.586   9.393  19.107  0.1948  0.2455 -0.0157
 1179PEP     CB43443   6.833   9.053  19.145 -0.3838 -0.0255  0.1520
 1179PEP     CB43444   7.150   8.935  18.870 -0.3319 -0.1764 -0.2280
 1179PEP     CB43445   7.494   9.062  18.523  0.5229 -0.3850  0.2652
 1179PEP     CB43446   7.729   8.993  18.166  0.3612  0.1659 -0.1448
 1179PEP     CB43447   7.710   8.851  17.797 -0.1997  0.0141  0.0256
 1179PEP     CB43448   7.638   8.512  17.534  0.1897 -0.1784  0.2048
 1179PEP     CB43449   7.736   8.138  17.631 -0.1184  0.3339 -0.4435
 1179PEP     CB43450   7.940   7.943  17.969 -0.2012  0.0886 -0.1322
 1179PEP     CB43451   7.764   7.769  18.405  0.2306 -0.1888 -0.2614
 1179PEP     CB43452   7.920   7.775  18.896 -0.1225 -0.3051 -0.0583
 1179PEP     CB43453   8.067   8.012  19.224 -0.1261 -0.0489 -0.4065
 1179PEP     CB43454   8.102   8.133  19.694  0.1414 -0.1353  0.1986
 1179PEP     CB43455   7.963   8.243  20.047 -0.1503 -0.0003 -0.0365
 1179PEP     CB43456   7.555   8.425  20.224 -0.0994  0.1187 -0.1590
 1179PEP     CB43457   7.018   8.337  20.262 -0.0855 -0.0988  0.0809
 1179PEP     CB43458   6.619   8.014  20.100  0.2976  0.1580 -0.2293
 1179PEP     CB43459   6.289   7.924  19.861  0.4158 -0.4002  0.5160
 1179PEP     CB43460   6.026   8.063  19.582 -0.3260  0.0137 -0.1420
 1179PEP     CB43461   5.691   7.981  19.247 -0.0076 -0.1654 -0.1034
 1179PEP     CB43462   5.357   8.013  18.915 -0.0883  0.3666  0.5250
 1179PEP     CB43463   5.314   7.957  18.458 -0.0261 -0.0150 -0.2495
 1179PEP     CB43464   5.509   7.778  18.134  0.0288 -0.1904 -0.0961
 1179PEP     CB43465   5.408   7.437  17.757  0.1127 -0.0340 -0.0480
 1179PEP     CB43466   5.162   7.065  17.602 -0.3501  0.4711  0.1169
 1179PEP     CB43467   4.731   6.927  17.468 -0.1122 -0.0031 -0.0549
 1179PEP     CB43468   4.398   7.221  17.519  0.1150 -0.4467 -0.0094
 1179PEP     CB43469   4.446   7.652  17.660 -0.1056  0.4380 -0.3357
 1179PEP     CB43470   4.670   7.971  17.517  0.3160 -0.1642  0.1682
 1179PEP     CB43471   4.924   8.330  17.545 -0.2201 -0.0483  0.1983
 1179PEP     CB43472   4.703   8.789  17.613 -0.1366  0.3713 -0.1775
 1179PEP     CB43473   4.263   8.928  17.500  0.1965  0.1916 -0.0062
 1179PEP     CB43474   4.170   8.919  17.156 -0.1652 -0.0723 -0.2267
 1179PEP     CB43475   4.469   8.842  16.755 -0.0161 -0.1029 -0.0504
 1179PEP     CB43476   4.764   8.856  16.374  0.3648 -0.5508  0.2469
 1179PEP     CB43477   4.735   8.987  15.984 -0.4425 -0.3099  0.1019
 1179PEP     CB43478   4.408   9.276  15.701 -0.1642 -0.4137  0.2001
 1179PEP     CB43479   3.897   9.349  15.662 -0.0638 -0.1994  0.0934
 1179PEP     CB43480   3.488   9.197  15.766  0.0505 -0.3980  0.1542
 1180PEP     CB43481  18.901   4.016   1.957 -0.2232 -0.0926 -0.0718
 1180PEP     CB43482  18.898   4.063   1.457  0.1368  0.3779  0.0841
 1180PEP     CB43483  18.626   4.081   1.072  0.0606  0.2423  0.1079
 1180PEP     CB43484  18.705   4.443   0.821  0.1382  0.1072  0.1977
 1180PEP     CB43485  18.670   4.775   1.135  0.0330 -0.0018 -0.3736
 1180PEP     CB43486  18.537   4.739   1.636  0.1419  0.2760  0.2578
 1180PEP     CB43487  18.431   4.332   1.812  0.0794 -0.0383 -0.3130
 1180PEP     CB43488  18.350   3.921   1.958 -0.1860  0.1872 -0.1510
 1180PEP     CB43489  18.568   3.511   1.843 -0.0722  0.1901  0.0994
 1180PEP     CB43490  18.804   3.121   1.834  0.0905  0.0907 -0.2142
 1180PEP     CB43491  19.148   2.928   2.031 -0.0740 -0.0717  0.1258
 1180PEP     CB43492  19.444   2.691   2.185 -0.2336  0.1474 -0.3934
 1180PEP     CB43493  19.827   2.676   2.340 -0.1912  0.0670  0.2664
 1180PEP     CB43494  20.075   2.438   2.668 -0.0625  0.0904 -0.0511
 1180PEP     CB43495  20.017   2.234   3.093 -0.1998  0.1275 -0.2150
 1180PEP     CB43496  19.698   1.983   3.452 -0.0938 -0.4582 -0.3618
 1180PEP     CB43497  19.340   1.801   3.633  0.0665  0.0340 -0.4279
 1180PEP     CB43498  19.142   1.501   3.953 -0.0559 -0.0168  0.1764
 1180PEP     CB43499  19.020   1.163   4.248 -0.1993  0.1056  0.5062
 1180PEP     CB43500  18.750   0.912   4.593 -0.6305  0.2914 -0.0994
 1180PEP     CB43501  18.345   0.763   4.650  0.0561 -0.1445 -0.3469
 1180PEP     CB43502  17.946   0.615   4.501 -0.1442 -0.1950 -0.1030
 1180PEP     CB43503  17.641   0.783   4.284 -0.1834 -0.1508 -0.2551
 1180PEP     CB43504  17.590   0.541   3.877  0.1177  0.2776 -0.0495
 1180PEP     CB43505  17.764   0.238   3.637  0.1977  0.3062  0.0327
 1180PEP     CB43506  17.809  -0.204   3.666  0.1716 -0.3336  0.5322
 1180PEP     CB43507  17.566  -0.510   4.018 -0.1259  0.3220 -0.2629
 1180PEP     CB43508  17.185  -0.504   4.084 -0.1839 -0.1300  0.1785
 1180PEP     CB43509  16.897  -0.399   4.295 -0.1287 -0.3009 -0.2192
 1180PEP     CB43510  16.481  -0.457   4.423 -0.1269 -0.0041 -0.0574
 1180PEP     CB43511  16.035  -0.234   4.665  0.2356 -0.0218 -0.1099
 1180PEP     CB43512  15.622  -0.191   4.917  0.0791 -0.1867  0.3911
 1180PEP     CB43513  15.477  -0.149   5.310 -0.2269 -0.1151 -0.3636
 1180PEP     CB43514  15.339  -0.100   5.680  0.3160 -0.2242  0.1588
 1180PEP     CB43515  15.049  -0.422   5.944  0.3625 -0.0177 -0.0190
 1180PEP     CB43516  14.746  -0.769   5.855 -0.3821  0.1852  0.1145
 1180PEP     CB43517  14.546  -1.102   5.838  0.1037  0.0482  0.0757
 1180PEP     CB43518  14.466  -1.539   5.982  0.1338  0.0635  0.1594
 1180PEP     CB43519  14.552  -1.929   6.001 -0.0551 -0.0927 -0.0687
 1180PEP     CB43520  14.597  -2.294   6.157 -0.2037 -0.1172 -0.2571
 1181PEP     CB43521  20.354  17.371   2.690  0.0500  0.5791  0.3273
 1181PEP     CB43522  19.962  17.026   2.733 -0.1968 -0.1028  0.1569
 1181PEP     CB43523  19.878  16.621   2.533 -0.1492  0.0924 -0.1588
 1181PEP     CB43524  19.531  16.324   2.676  0.7002  0.1432  0.1435
 1181PEP     CB43525  19.175  16.470   2.944 -0.0547 -0.0622  0.0654
 1181PEP     CB43526  18.871  16.821   3.117  0.3109 -0.0598  0.0992
 1181PEP     CB43527  18.684  17.190   3.240  0.1201 -0.1165  0.1227
 1181PEP     CB43528  18.376  17.508   3.385 -0.3862  0.1757 -0.1101
 1181PEP     CB43529  18.424  17.826   3.699  0.0902  0.0389 -0.1298
 1181PEP     CB43530  18.619  18.306   3.672 -0.2369  0.0134  0.2110
 1181PEP     CB43531  18.966  18.432   3.445 -0.0495  0.1881  0.2428
 1181PEP     CB43532  19.159  18.202   3.050  0.0006 -0.0793 -0.3326
 1181PEP     CB43533  19.092  17.769   2.843  0.2598  0.0131 -0.1654
 1181PEP     CB43534  18.756  17.529   2.784  0.1598  0.0463 -0.3061
 1181PEP     CB43535  18.395  17.448   2.901  0.0200  0.0337 -0.0468
 1181PEP     CB43536  17.857  17.382   3.072 -0.0563 -0.4154 -0.1412
 1181PEP     CB43537  17.624  17.605   3.404  0.2514  0.3116 -0.2401
 1181PEP     CB43538  17.380  17.701   3.816  0.1127  0.1542 -0.2295
 1181PEP     CB43539  17.486  17.714   4.255 -0.0033  0.2076  0.1391
 1181PEP     CB43540  17.735  17.381   4.371  0.4230  0.3387 -0.3021
 1181PEP     CB43541  17.849  16.973   4.102  0.2246  0.0572 -0.1741
 1181PEP     CB43542  17.888  16.611   3.932  0.2119 -0.3395 -0.2815
 1181PEP     CB43543  18.003  16.198   3.939  0.1897  0.0119  0.4998
 1181PEP     CB43544  18.168  16.045   4.354 -0.0934  0.0157  0.3204
 1181PEP     CB43545  18.295  16.310   4.708 -0.1057 -0.0928  0.1702
 1181PEP     CB43546  18.352  16.605   5.031  0.0725  0.3238 -0.0298
 1181PEP     CB43547  18.321  16.942   5.245 -0.1003 -0.1822  0.3076
 1181PEP     CB43548  18.397  17.451   5.209 -0.2130 -0.1890 -0.1201
 1181PEP     CB43549  18.211  17.844   5.025 -0.0745 -0.3205  0.0914
 1181PEP     CB43550  17.922  18.098   5.009 -0.2780 -0.2918 -0.0649
 1181PEP     CB43551  17.605  18.393   5.186 -0.2862  0.0628 -0.4169
 1181PEP     CB43552  17.506  18.667   5.518  0.0602 -0.0147  0.1520
 1181PEP     CB43553  17.321  18.811   5.925  0.1575  0.1541  0.1907
 1181PEP     CB43554  17.059  18.753   6.281 -0.1980  0.2868 -0.2862
 1181PEP     CB43555  16.855  19.011   6.612 -0.0633 -0.1539  0.0601
 1181PEP     CB43556  16.748  19.098   6.936  0.4050  0.1328 -0.0314
 1181PEP     CB43557  16.580  19.425   7.184 -0.1491 -0.1660  0.0700
 1181PEP     CB43558  16.117  19.465   7.243  0.0792  0.2037  0.2361
 1181PEP     CB43559  15.754  19.226   7.465 -0.2746  0.2744 -0.0121
 1181PEP     CB43560  15.371  18.899   7.619  0.1602 -0.2587  0.3009
 1182PEP     CB43561   8.711   5.234  21.741 -0.4230  0.3260 -0.0929
 1182PEP     CB43562   8.530   4.933  21.616 -0.3667 -0.1244 -0.3501
 1182PEP     CB43563   8.152   4.921  21.361 -0.2202 -0.3111 -0.0076
 1182PEP     CB43564   8.070   5.315  21.189  0.2293  0.3228  0.2745
 1182PEP     CB43565   7.987   5.645  21.199 -0.1354 -0.1295 -0.2592
 1182PEP     CB43566   7.938   6.112  21.286 -0.3167 -0.0710  0.1387
 1182PEP     CB43567   7.887   6.561  21.296 -0.2189 -0.2197 -0.1103
 1182PEP     CB43568   7.699   6.931  21.205 -0.1091 -0.2044 -0.0410
 1182PEP     CB43569   7.513   7.187  20.890 -0.3248 -0.6834 -0.1453
 1182PEP     CB43570   7.346   7.401  20.615  0.0989  0.4696  0.1727
 1182PEP     CB43571   7.507   7.367  20.225 -0.0468  0.2891 -0.0400
 1182PEP     CB43572   7.704   7.025  19.963  0.3208  0.3717 -0.3291
 1182PEP     CB43573   7.460   6.788  19.574 -0.3469 -0.3958 -0.5444
 1182PEP     CB43574   7.170   6.861  19.287 -0.2152 -0.1713 -0.1879
 1182PEP     CB43575   6.900   7.134  18.957  0.1536  0.0303  0.1996
 1182PEP     CB43576   6.500   7.191  18.712 -0.0130  0.2043  0.0848
 1182PEP     CB43577   6.294   7.233  18.366  0.1725  0.0454 -0.0870
 1182PEP     CB43578   6.337   6.952  17.918  0.0048 -0.2798 -0.0117
 1182PEP     CB43579   6.109   6.557  17.819  0.0670  0.1395 -0.2729
 1182PEP     CB43580   5.905   6.153  17.765  0.2353 -0.1384 -0.1693
 1182PEP     CB43581   5.781   5.821  17.482  0.1947 -0.0375 -0.1014
 1182PEP     CB43582   6.116   5.643  17.216  0.1193 -0.3543 -0.1949
 1182PEP     CB43583   6.560   5.746  17.276  0.1332 -0.0665  0.2166
 1182PEP     CB43584   7.020   5.791  17.128 -0.1071  0.0519  0.3152
 1182PEP     CB43585   7.433   5.823  16.956 -0.1637  0.0446 -0.2226
 1182PEP     CB43586   7.801   5.714  16.726 -0.0745  0.3737 -0.3419
 1182PEP     CB43587   8.123   6.045  16.486 -0.0311  0.2013 -0.0534
 1182PEP     CB43588   8.315   6.133  16.101  0.2825  0.1554  0.1919
 1182PEP     CB43589   8.613   6.041  15.755  0.1448  0.2621 -0.0911
 1182PEP     CB43590   8.422   5.916  15.310 -0.3400  0.3414  0.0192
 1182PEP     CB43591   8.082   6.098  15.239 -0.0124  0.1613  0.0915
 1182PEP     CB43592   7.732   5.993  15.031 -0.2147 -0.1908  0.0534
 1182PEP     CB43593   7.488   5.868  14.720 -0.1006 -0.1260 -0.0807
 1182PEP     CB43594   7.061   5.868  14.666  0.3212  0.0246  0.0535
 1182PEP     CB43595   6.722   6.065  14.812 -0.5425 -0.0674  0.0709
 1182PEP     CB43596   6.618   6.459  14.928 -0.0136 -0.0869 -0.2203
 1182PEP     CB43597   6.917   6.727  14.910  0.0110 -0.2037  0.0663
 1182PEP     CB43598   7.371   6.677  15.016 -0.4158  0.4800 -0.0443
 1182PEP     CB43599   7.800   6.530  14.977 -0.0798  0.0082  0.2652
 1182PEP     CB43600   8.197   6.433  14.905 -0.0779 -0.1659  0.0623
 1183PEP     CB43601   4.069   2.729  19.583 -0.3681  0.1516  0.1811
 1183PEP     CB43602   4.340   3.167  19.648 -0.0788 -0.0469 -0.2211
 1183PEP     CB43603   4.741   3.490  19.777  0.0628  0.3219  0.3623
 1183PEP     CB43604   5.189   3.503  19.869  0.0663 -0.0859 -0.5677
 1183PEP     CB43605   5.404   3.169  19.991 -0.0665  0.1952  0.0225
 1183PEP     CB43606   5.648   2.880  20.092 -0.0185 -0.2722 -0.0803
 1183PEP     CB43607   5.900   2.555  19.936  0.0712  0.2660 -0.2247
 1183PEP     CB43608   6.216   2.384  19.672 -0.0045 -0.0724 -0.2693
 1183PEP     CB43609   6.202   2.107  19.314  0.3128 -0.1336 -0.1909
 1183PEP     CB43610   6.513   1.799  19.027  0.1038  0.0291 -0.5243
 1183PEP     CB43611   6.600   1.411  18.689  0.0501 -0.2251  0.0563
 1183PEP     CB43612   6.857   1.170  18.330 -0.3334 -0.1388  0.0456
 1183PEP     CB43613   7.149   1.267  18.002  0.1509  0.2922 -0.0949
 1183PEP     CB43614   7.468   1.469  17.835  0.0541  0.2817  0.4538
 1183PEP     CB43615   7.407   1.791  17.395 -0.1404 -0.1068  0.0166
 1183PEP     CB43616   7.081   2.082  17.243 -0.2311 -0.0618 -0.1601
 1183PEP     CB43617   6.707   2.133  17.283 -0.0459  0.3255  0.3602
 1183PEP     CB43618   6.310   1.910  17.098 -0.2503 -0.1372 -0.4287
 1183PEP     CB43619   6.320   1.668  16.742  0.2488 -0.2100  0.0812
 1183PEP     CB43620   6.634   1.758  16.351  0.0736 -0.0712  0.6826
 1183PEP     CB43621   6.610   1.966  15.948 -0.0574  0.2626  0.1783
 1183PEP     CB43622   6.385   1.800  15.583  0.1143  0.1544 -0.1305
 1183PEP     CB43623   6.087   1.344  15.584 -0.1619 -0.0810 -0.1127
 1183PEP     CB43624   6.120   0.787  15.675 -0.1977 -0.0944  0.1299
 1183PEP     CB43625   6.234   0.549  15.948  0.2947 -0.1156  0.2330
 1183PEP     CB43626   6.442   0.221  16.219  0.1941  0.1657 -0.1094
 1183PEP     CB43627   6.855   0.353  16.422  0.2041  0.1393  0.1828
 1183PEP     CB43628   6.994   0.799  16.541  0.0915  0.0091 -0.1976
 1183PEP     CB43629   6.839   1.079  16.037 -0.0677  0.2902  0.2144
 1183PEP     CB43630   6.590   0.838  15.726 -0.1972  0.1489 -0.0046
 1183PEP     CB43631   6.563   0.389  15.599  0.0022  0.0117 -0.0350
 1183PEP     CB43632   6.726   0.047  15.770  0.0042 -0.1583 -0.1967
 1183PEP     CB43633   6.888  -0.082  16.188  0.1914  0.2992  0.2024
 1183PEP     CB43634   6.796  -0.107  16.590 -0.2122  0.3377 -0.0350
 1183PEP     CB43635   6.606  -0.271  16.938  0.1397  0.0256 -0.2140
 1183PEP     CB43636   6.674  -0.473  17.217  0.1253  0.5375  0.1155
 1183PEP     CB43637   6.871  -0.743  17.522 -0.1265 -0.0133  0.3966
 1183PEP     CB43638   7.224  -1.099  17.495 -0.0022  0.0717  0.2012
 1183PEP     CB43639   7.589  -1.267  17.679  0.0270 -0.5805 -0.3946
 1183PEP     CB43640   7.978  -1.357  17.668  0.2114  0.1036  0.0837
 1184PEP     CB43641  17.340   5.681  16.318  0.0027 -0.0794  0.2032
 1184PEP     CB43642  16.901   5.565  16.346  0.0572 -0.1392  0.2036
 1184PEP     CB43643  16.648   5.249  16.308 -0.2127 -0.2046 -0.0775
 1184PEP     CB43644  16.792   4.887  16.268  0.5491 -0.0407  0.0038
 1184PEP     CB43645  17.164   4.693  16.343  0.2317  0.2179 -0.1969
 1184PEP     CB43646  17.293   4.572  16.780 -0.0425  0.2773 -0.1794
 1184PEP     CB43647  17.091   4.398  17.118 -0.3042 -0.2752 -0.1375
 1184PEP     CB43648  16.924   4.154  17.453  0.3460 -0.4330  0.1628
 1184PEP     CB43649  16.759   3.920  17.773 -0.0930 -0.1031  0.0325
 1184PEP     CB43650  16.890   3.729  18.238 -0.0277  0.0899 -0.2972
 1184PEP     CB43651  17.144   3.693  18.556 -0.0326 -0.1318 -0.0600
 1184PEP     CB43652  17.400   3.537  18.789 -0.1291  0.0063 -0.1513
 1184PEP     CB43653  17.493   3.443  19.208  0.0534  0.0527 -0.2241
 1184PEP     CB43654  17.569   3.398  19.709 -0.0259  0.0022 -0.1386
 1184PEP     CB43655  17.527   3.257  20.099 -0.2505 -0.1846  0.0550
 1184PEP     CB43656  17.377   2.901  20.423 -0.5280 -0.2510 -0.0004
 1184PEP     CB43657  17.624   2.558  20.538  0.0154 -0.1659 -0.0509
 1184PEP     CB43658  17.733   2.287  20.167 -0.2633  0.1255  0.1784
 1184PEP     CB43659  17.485   2.343  19.755  0.1957 -0.1145  0.0525
 1184PEP     CB43660  17.183   2.301  19.503  0.4699  0.0679 -0.0925
 1184PEP     CB43661  17.101   2.322  19.083 -0.1449  0.0961 -0.1959
 1184PEP     CB43662  17.221   2.095  18.694 -0.0016  0.0729  0.0047
 1184PEP     CB43663  17.285   1.925  18.284  0.0778 -0.0531 -0.0093
 1184PEP     CB43664  17.297   1.646  17.950  0.0064 -0.0430  0.0102
 1184PEP     CB43665  17.281   1.222  17.785 -0.1466  0.0930 -0.3286
 1184PEP     CB43666  17.550   0.874  17.896  0.6404 -0.2974  0.3372
 1184PEP     CB43667  17.574   0.620  18.178 -0.0180 -0.1439  0.0016
 1184PEP     CB43668  17.254   0.611  18.542 -0.0109 -0.3405 -0.2149
 1184PEP     CB43669  16.979   0.378  18.888 -0.2644 -0.1280 -0.0392
 1184PEP     CB43670  16.550   0.472  18.968  0.0002  0.0692  0.1034
 1184PEP     CB43671  16.303   0.566  18.615 -0.0780 -0.3158  0.0966
 1184PEP     CB43672  16.411   0.553  18.075 -0.3005 -0.0447 -0.1159
 1184PEP     CB43673  16.723   0.823  17.923  0.2552 -0.2888  0.2636
 1184PEP     CB43674  17.114   0.907  18.178 -0.0576  0.3551 -0.2292
 1184PEP     CB43675  17.046   1.062  18.673 -0.0536  0.0986  0.2160
 1184PEP     CB43676  16.924   1.301  18.938 -0.0528  0.0208 -0.1998
 1184PEP     CB43677  16.639   1.622  18.913 -0.0875 -0.0061  0.3109
 1184PEP     CB43678  16.704   1.948  18.615  0.0043 -0.2032  0.0691
 1184PEP     CB43679  16.788   1.895  18.188 -0.0841 -0.1188  0.2721
 1184PEP     CB43680  16.745   1.504  17.978  0.3837  0.0950  0.0460
 1185PEP     CB43681  16.460  13.262   7.447 -0.1243 -0.1658  0.0544
 1185PEP     CB43682  16.045  13.171   7.654 -0.0935  0.0291 -0.1946
 1185PEP     CB43683  15.720  13.279   7.835  0.0732 -0.4237  0.2923
 1185PEP     CB43684  15.263  13.168   7.743 -0.0609  0.2031 -0.1268
 1185PEP     CB43685  15.034  12.738   7.872  0.0447  0.1856 -0.0257
 1185PEP     CB43686  15.228  12.344   7.974  0.1456 -0.4828  0.1906
 1185PEP     CB43687  15.691  12.209   8.017  0.2144 -0.0296  0.1918
 1185PEP     CB43688  15.967  12.131   7.688 -0.3592  0.2042 -0.1705
 1185PEP     CB43689  16.274  12.152   7.339  0.3270  0.1501  0.3262
 1185PEP     CB43690  16.241  12.154   6.904  0.1487 -0.0338  0.3238
 1185PEP     CB43691  16.301  11.993   6.483  0.4386 -0.0961  0.0824
 1185PEP     CB43692  16.195  12.050   6.084  0.1821  0.0435  0.1703
 1185PEP     CB43693  15.767  11.903   5.902  0.3402 -0.4832 -0.2190
 1185PEP     CB43694  15.419  12.219   5.859  0.3725  0.1190  0.0132
 1185PEP     CB43695  15.003  12.197   5.720  0.1004  0.3978 -0.2116
 1185PEP     CB43696  14.581  12.132   5.819 -0.0432  0.0347 -0.1123
 1185PEP     CB43697  14.223  12.394   5.845 -0.0347 -0.1531 -0.2564
 1185PEP     CB43698  13.869  12.652   5.877 -0.0207 -0.3581  0.0022
 1185PEP     CB43699  13.639  13.173   5.796 -0.4349 -0.1970 -0.1346
 1185PEP     CB43700  13.541  13.559   5.801  0.1360  0.1147 -0.2154
 1185PEP     CB43701  13.566  13.923   5.956  0.1839 -0.6491 -0.1501
 1185PEP     CB43702  13.604  14.352   5.898 -0.1865 -0.1339  0.0574
 1185PEP     CB43703  13.781  14.605   5.638 -0.0019 -0.3532  0.0579
 1185PEP     CB43704  14.131  14.637   5.391 -0.1032 -0.3561 -0.2789
 1185PEP     CB43705  14.548  14.869   5.208 -0.0240  0.0751 -0.5274
 1185PEP     CB43706  14.890  15.000   4.922  0.1314  0.4358 -0.1654
 1185PEP     CB43707  15.057  14.816   4.555  0.0323  0.0499 -0.0404
 1185PEP     CB43708  15.041  14.567   4.153  0.3012  0.3511  0.1615
 1185PEP     CB43709  14.894  14.265   3.940 -0.1931  0.5025 -0.4179
 1185PEP     CB43710  14.722  13.969   3.563 -0.0351 -0.2287 -0.2490
 1185PEP     CB43711  14.567  13.674   3.242  0.1237 -0.1132  0.0610
 1185PEP     CB43712  14.358  13.318   2.987  0.4184  0.1962 -0.0060
 1185PEP     CB43713  14.226  12.877   2.870  0.4437  0.0771 -0.1909
 1185PEP     CB43714  14.559  12.549   2.825 -0.2085 -0.1057 -0.0330
 1185PEP     CB43715  14.674  12.241   3.085 -0.1247  0.3787  0.0295
 1185PEP     CB43716  15.066  11.977   3.072 -0.3376 -0.1718  0.0023
 1185PEP     CB43717  15.416  11.933   2.857  0.0666 -0.2751  0.0311
 1185PEP     CB43718  15.846  11.916   2.824  0.0555  0.0411 -0.1951
 1185PEP     CB43719  16.194  12.050   2.568 -0.3510  0.2435  0.5254
 1185PEP     CB43720  16.628  12.152   2.460  0.4421  0.1609  0.1246
 1186PEP     CB43721  16.131  18.681   2.544  0.1093  0.1781  0.3195
 1186PEP     CB43722  16.616  18.680   2.494  0.2078 -0.0991  0.0052
 1186PEP     CB43723  16.894  18.953   2.358  0.0823 -0.1245  0.3991
 1186PEP     CB43724  16.905  19.344   2.176 -0.0434  0.0189 -0.4772
 1186PEP     CB43725  16.912  19.736   2.172  0.0846 -0.2955  0.2141
 1186PEP     CB43726  16.876  20.164   1.915 -0.1663  0.2046  0.2420
 1186PEP     CB43727  16.690  20.313   1.495 -0.3520  0.1113  0.1476
 1186PEP     CB43728  16.453  20.174   1.072  0.2208  0.3053  0.0335
 1186PEP     CB43729  16.012  20.111   0.932  0.2653 -0.1060  0.0205
 1186PEP     CB43730  15.613  20.352   0.769  0.1632 -0.1511 -0.1681
 1186PEP     CB43731  15.417  20.618   0.403  0.0035 -0.2418  0.1811
 1186PEP     CB43732  15.566  21.001   0.170  0.0739 -0.0184 -0.3553
 1186PEP     CB43733  15.470  21.426   0.100 -0.1072  0.2064 -0.0426
 1186PEP     CB43734  15.537  21.867   0.002  0.0105 -0.2996 -0.0732
 1186PEP     CB43735  15.498  22.223   0.296  0.4164 -0.0493  0.0286
 1186PEP     CB43736  15.584  22.684   0.380 -0.2798  0.3904  0.3585
 1186PEP     CB43737  15.369  23.115   0.667 -0.2703 -0.1729 -0.1335
 1186PEP     CB43738  14.997  23.082   0.858 -0.0360 -0.4977 -0.2627
 1186PEP     CB43739  14.749  22.665   0.942  0.0234  0.2726 -0.0803
 1186PEP     CB43740  14.783  22.251   0.589 -0.4693 -0.1963 -0.0819
 1186PEP     CB43741  14.977  22.225   0.255  0.0516 -0.2585 -0.0408
 1186PEP     CB43742  15.006  22.317  -0.205 -0.4437 -0.3026  0.1019
 1186PEP     CB43743  14.784  22.623  -0.441  0.4490 -0.0730  0.4338
 1186PEP     CB43744  14.328  22.747  -0.355  0.3279 -0.3797  0.4009
 1186PEP     CB43745  13.979  22.487  -0.143 -0.4011 -0.1444  0.1317
 1186PEP     CB43746  13.764  22.384   0.272  0.0937  0.2339  0.3160
 1186PEP     CB43747  13.556  22.420   0.657  0.3985  0.0672  0.4635
 1186PEP     CB43748  13.324  22.540   0.999 -0.4002 -0.2119 -0.2865
 1186PEP     CB43749  12.851  22.329   1.003  0.1351 -0.3021 -0.2594
 1186PEP     CB43750  12.635  22.317   0.619  0.0742  0.3820  0.0929
 1186PEP     CB43751  12.403  22.586   0.337 -0.1190  0.3889 -0.2029
 1186PEP     CB43752  12.106  22.831   0.245 -0.0681 -0.0355 -0.0991
 1186PEP     CB43753  11.730  22.963   0.457 -0.1523 -0.3215 -0.1331
 1186PEP     CB43754  11.709  23.066   0.930  0.1024  0.4929  0.4512
 1186PEP     CB43755  11.891  22.825   1.296 -0.1819 -0.4110  0.0167
 1186PEP     CB43756  12.172  22.501   1.587 -0.0419  0.0469 -0.0034
 1186PEP     CB43757  12.224  22.279   1.775  0.0534  0.1233  0.1032
 1186PEP     CB43758  12.286  21.932   1.977 -0.0749 -0.1904  0.1357
 1186PEP     CB43759  12.376  21.464   1.859 -0.1233 -0.0334  0.1902
 1186PEP     CB43760  12.279  21.129   1.624 -0.2278  0.1296  0.2646
 1187PEP     CB43761   6.679  19.091   4.861 -0.2561  0.0314  0.0901
 1187PEP     CB43762   6.430  19.466   4.756  0.1763  0.0163  0.0463
 1187PEP     CB43763   6.046  19.705   4.921  0.0842 -0.2676  0.2139
 1187PEP     CB43764   5.822  20.177   4.839 -0.2048 -0.1321  0.2135
 1187PEP     CB43765   5.699  20.617   4.808  0.4528  0.5565 -0.0817
 1187PEP     CB43766   5.731  20.962   4.578  0.3813  0.0604  0.0589
 1187PEP     CB43767   6.036  21.134   4.317  0.1843 -0.2214 -0.0034
 1187PEP     CB43768   6.473  21.284   4.545 -0.1005  0.0365 -0.3638
 1187PEP     CB43769   6.717  21.250   4.940 -0.0010 -0.3726 -0.1553
 1187PEP     CB43770   6.877  21.019   5.286 -0.0707 -0.1553  0.0116
 1187PEP     CB43771   7.290  20.900   5.375  0.2591 -0.0120 -0.1155
 1187PEP     CB43772   7.583  20.910   5.132 -0.2476 -0.0808  0.2127
 1187PEP     CB43773   7.812  21.269   5.005  0.1286  0.1502  0.2224
 1187PEP     CB43774   8.048  21.551   5.364 -0.0590  0.0203  0.2330
 1187PEP     CB43775   8.065  21.861   5.738 -0.0290  0.1734 -0.0049
 1187PEP     CB43776   7.936  22.286   5.988 -0.1548  0.0739  0.1162
 1187PEP     CB43777   7.853  22.685   6.243  0.0154  0.1297  0.1902
 1187PEP     CB43778   7.736  23.097   6.074  0.1542 -0.0928 -0.1537
 1187PEP     CB43779   7.698  23.461   6.235  0.3739  0.1026 -0.0908
 1187PEP     CB43780   7.804  23.586   6.606  0.2761 -0.2901  0.1263
 1187PEP     CB43781   7.670  23.532   6.971  0.0478 -0.0966 -0.4574
 1187PEP     CB43782   7.675  23.156   7.163 -0.1701 -0.0810  0.3870
 1187PEP     CB43783   7.685  22.809   6.871  0.1198 -0.0473  0.0335
 1187PEP     CB43784   7.963  22.541   6.728  0.1125 -0.5288  0.2398
 1187PEP     CB43785   8.181  22.228   6.447 -0.0309 -0.0924 -0.4681
 1187PEP     CB43786   8.422  22.135   6.015  0.0325  0.0984 -0.3395
 1187PEP     CB43787   8.772  22.349   5.826  0.0212  0.0806  0.0806
 1187PEP     CB43788   9.096  22.671   5.953  0.3760 -0.0554  0.0263
 1187PEP     CB43789   9.115  23.128   6.152 -0.1645  0.0076  0.1594
 1187PEP     CB43790   8.660  23.369   6.104  0.6085  0.0456  0.1031
 1187PEP     CB43791   8.291  23.140   6.156 -0.0277 -0.4203  0.2655
 1187PEP     CB43792   8.313  22.642   6.234 -0.6029 -0.1711  0.1256
 1187PEP     CB43793   8.710  22.470   6.346  0.4366  0.2806 -0.0216
 1187PEP     CB43794   9.076  22.111   6.214 -0.3067 -0.2878 -0.2395
 1187PEP     CB43795   9.039  21.670   6.139 -0.2109  0.3417  0.0616
 1187PEP     CB43796   8.706  21.551   6.183 -0.1867 -0.3676  0.0335
 1187PEP     CB43797   8.245  21.461   6.064 -0.0355 -0.1586  0.0263
 1187PEP     CB43798   7.810  21.297   6.113  0.0591  0.3267 -0.4103
 1187PEP     CB43799   7.530  21.254   6.455 -0.2812 -0.1480 -0.1846
 1187PEP     CB43800   7.190  21.529   6.629  0.2038  0.1066  0.1515
 1188PEP     CB43801  15.368   1.932  10.579 -0.0692  0.1381  0.1389
 1188PEP     CB43802  15.185   1.809  10.134  0.2307  0.1018  0.0703
 1188PEP     CB43803  14.802   1.705   9.924  0.2340  0.0393  0.0399
 1188PEP     CB43804  14.370   1.625   9.732  0.1229  0.0569  0.2833
 1188PEP     CB43805  14.004   1.743   9.606 -0.3672 -0.1782 -0.1138
 1188PEP     CB43806  13.742   1.462   9.349 -0.3671  0.0352 -0.3126
 1188PEP     CB43807  13.750   1.049   9.313  0.0998  0.1760  0.0322
 1188PEP     CB43808  13.905   0.810   9.630 -0.3070  0.0286 -0.3716
 1188PEP     CB43809  14.296   0.600   9.684 -0.1033 -0.3160  0.0339
 1188PEP     CB43810  14.306   0.176   9.555 -0.2198 -0.0487  0.0229
 1188PEP     CB43811  14.142  -0.194   9.559  0.1213 -0.0724 -0.1578
 1188PEP     CB43812  14.303  -0.642   9.731 -0.1832 -0.0080  0.0217
 1188PEP     CB43813  14.635  -0.913   9.768  0.1417 -0.1385  0.2135
 1188PEP     CB43814  15.033  -0.982   9.777  0.0586  0.1647  0.0982
 1188PEP     CB43815  15.282  -1.264   9.544  0.3081 -0.0067  0.0877
 1188PEP     CB43816  15.411  -1.693   9.495  0.1072 -0.1620  0.4082
 1188PEP     CB43817  15.721  -1.973   9.528  0.0711  0.3475  0.0140
 1188PEP     CB43818  15.978  -2.310   9.365  0.3978 -0.0524 -0.2581
 1188PEP     CB43819  16.173  -2.655   9.211 -0.2316  0.3315 -0.2747
 1188PEP     CB43820  16.381  -3.014   8.885 -0.0058 -0.2086  0.3353
 1188PEP     CB43821  16.379  -3.351   8.614 -0.0940 -0.0797 -0.0034
 1188PEP     CB43822  16.231  -3.733   8.430  0.2447  0.1250  0.0776
 1188PEP     CB43823  15.965  -3.835   8.021 -0.0816  0.1772 -0.0984
 1188PEP     CB43824  15.843  -3.423   7.816  0.1908  0.0035 -0.1396
 1188PEP     CB43825  16.174  -3.014   7.683 -0.1631  0.1746  0.0231
 1188PEP     CB43826  16.496  -3.158   7.423 -0.6654 -0.0584  0.0017
 1188PEP     CB43827  16.839  -3.510   7.581  0.2686 -0.0102 -0.0817
 1188PEP     CB43828  16.835  -3.813   7.872 -0.3596  0.1977  0.1641
 1188PEP     CB43829  16.586  -3.998   8.172 -0.0049 -0.0596  0.1308
 1188PEP     CB43830  16.200  -4.362   8.357  0.2738  0.0922 -0.0418
 1188PEP     CB43831  15.716  -4.490   8.534 -0.1989  0.0168  0.0317
 1188PEP     CB43832  15.256  -4.331   8.771 -0.2912  0.0387 -0.2600
 1188PEP     CB43833  14.798  -4.384   8.738  0.0849 -0.2204  0.0613
 1188PEP     CB43834  14.393  -4.595   8.968  0.3405  0.3590  0.2502
 1188PEP     CB43835  14.335  -4.649   9.423  0.0159  0.1573 -0.2613
 1188PEP     CB43836  14.279  -4.407   9.819  0.1956 -0.3465  0.0937
 1188PEP     CB43837  13.985  -4.285  10.096  0.2077 -0.3169  0.2135
 1188PEP     CB43838  13.652  -3.982  10.130 -0.2121 -0.1497 -0.0144
 1188PEP     CB43839  13.265  -3.985  10.376 -0.1051 -0.2867  0.1670
 1188PEP     CB43840  13.106  -4.213  10.768 -0.0880 -0.0845 -0.0114
 1189PEP     CB43841  21.653   4.653  19.750 -0.1308  0.2898  0.0049
 1189PEP     CB43842  21.434   4.219  19.614 -0.1506 -0.2825  0.2647
 1189PEP     CB43843  21.173   3.867  19.677 -0.3031 -0.1353 -0.2323
 1189PEP     CB43844  21.259   3.655  20.043 -0.5839 -0.1261 -0.1453
 1189PEP     CB43845  21.227   3.512  20.452  0.1186 -0.0956 -0.1357
 1189PEP     CB43846  21.057   3.380  20.861 -0.2136  0.3598 -0.1500
 1189PEP     CB43847  20.828   3.472  21.186  0.0177 -0.5673  0.0467
 1189PEP     CB43848  20.376   3.695  21.139 -0.0151 -0.0163  0.0760
 1189PEP     CB43849  20.172   3.759  20.724 -0.2198 -0.5162  0.4201
 1189PEP     CB43850  20.144   3.794  20.232  0.1463  0.4993 -0.0262
 1189PEP     CB43851  20.080   3.498  19.818 -0.1452 -0.0868  0.2352
 1189PEP     CB43852  20.352   3.366  19.463  0.4654  0.0979  0.0036
 1189PEP     CB43853  20.502   3.678  19.207  0.1531  0.0533  0.3151
 1189PEP     CB43854  20.630   4.013  18.927  0.1236  0.0738 -0.1391
 1189PEP     CB43855  20.862   4.323  18.737 -0.0791  0.1552  0.1265
 1189PEP     CB43856  20.832   4.688  18.469  0.1135  0.0304  0.1212
 1189PEP     CB43857  20.815   4.791  18.014  0.2025  0.2035  0.2950
 1189PEP     CB43858  20.562   4.532  17.767  0.1143 -0.1441 -0.3357
 1189PEP     CB43859  20.075   4.593  17.789 -0.5536  0.0723 -0.5229
 1189PEP     CB43860  19.881   4.837  18.140 -0.3622  0.2131  0.3214
 1189PEP     CB43861  19.776   5.259  18.254 -0.2860  0.1501 -0.6414
 1189PEP     CB43862  20.069   5.688  18.231  0.2609  0.0960 -0.1045
 1189PEP     CB43863  20.494   5.764  18.332 -0.3382  0.0287  0.0976
 1189PEP     CB43864  20.646   6.133  18.549 -0.1292 -0.1533  0.0352
 1189PEP     CB43865  20.713   6.461  18.805  0.3066 -0.0161  0.4753
 1189PEP     CB43866  20.729   6.637  19.193  0.0603 -0.2636  0.0049
 1189PEP     CB43867  20.743   6.857  19.596 -0.0684 -0.3477  0.0317
 1189PEP     CB43868  20.520   6.879  19.919 -0.3163 -0.1608  0.1377
 1189PEP     CB43869  20.275   6.574  20.170 -0.3681  0.1325  0.2833
 1189PEP     CB43870  20.446   6.268  20.403  0.1309 -0.2658 -0.0883
 1189PEP     CB43871  20.840   6.027  20.390  0.0901 -0.1038  0.3454
 1189PEP     CB43872  21.039   5.798  20.075  0.2850 -0.0425 -0.3381
 1189PEP     CB43873  21.410   5.607  19.956  0.1379 -0.0243 -0.1269
 1189PEP     CB43874  21.671   5.231  20.094  0.0975 -0.1467  0.0909
 1189PEP     CB43875  22.048   5.011  20.062  0.0727 -0.1165 -0.0846
 1189PEP     CB43876  22.504   5.108  19.886 -0.2432 -0.0314 -0.0810
 1189PEP     CB43877  22.856   5.041  19.562 -0.1488  0.0364  0.0189
 1189PEP     CB43878  23.023   4.963  19.212  0.4660 -0.1176  0.0138
 1189PEP     CB43879  23.135   5.281  18.904  0.0643 -0.0052  0.0569
 1189PEP     CB43880  23.265   5.663  18.857  0.0859  0.2101 -0.1320
 1190PEP     CB43881  17.434   6.956   1.512 -0.0143  0.0866  0.1703
 1190PEP     CB43882  17.288   6.607   1.401 -0.1490  0.0083 -0.0836
 1190PEP     CB43883  17.497   6.220   1.259 -0.0609 -0.1947 -0.0664
 1190PEP     CB43884  17.926   6.070   1.233  0.4901 -0.0537  0.2462
 1190PEP     CB43885  18.175   6.171   1.538 -0.2102 -0.1319 -0.1203
 1190PEP     CB43886  18.240   6.529   1.671  0.0327 -0.3068  0.4029
 1190PEP     CB43887  18.148   6.967   1.724 -0.2980 -0.2887 -0.0429
 1190PEP     CB43888  17.784   7.125   1.880 -0.1064 -0.0371  0.1011
 1190PEP     CB43889  17.368   7.273   1.932 -0.0513  0.1368 -0.1687
 1190PEP     CB43890  16.867   7.230   2.074 -0.2005 -0.2048  0.1582
 1190PEP     CB43891  16.466   6.914   1.952  0.1743  0.4804 -0.0554
 1190PEP     CB43892  16.356   6.525   1.786 -0.0674  0.0174  0.1543
 1190PEP     CB43893  16.572   5.989   1.648  0.1760 -0.2573 -0.4451
 1190PEP     CB43894  16.879   5.739   1.901  0.0233 -0.3417 -0.0692
 1190PEP     CB43895  17.129   5.763   2.258  0.0686  0.0791 -0.0705
 1190PEP     CB43896  17.316   5.610   2.618  0.0782  0.2164 -0.4299
 1190PEP     CB43897  17.579   5.453   2.986 -0.0371 -0.1041 -0.1842
 1190PEP     CB43898  17.964   5.160   3.047 -0.0187 -0.4677 -0.5472
 1190PEP     CB43899  18.422   5.092   3.139  0.1105 -0.1687  0.0674
 1190PEP     CB43900  18.916   5.060   2.921 -0.1180  0.2684 -0.1586
 1190PEP     CB43901  18.983   5.073   2.557 -0.0670  0.0332  0.1218
 1190PEP     CB43902  18.605   5.152   2.412 -0.0037  0.0734 -0.1521
 1190PEP     CB43903  18.226   5.239   2.660 -0.0260  0.0796 -0.2846
 1190PEP     CB43904  17.985   5.671   2.832  0.0999  0.1831  0.0181
 1190PEP     CB43905  17.917   6.085   2.606  0.1629  0.2248 -0.4089
 1190PEP     CB43906  18.173   6.423   2.614 -0.2860 -0.2285 -0.4267
 1190PEP     CB43907  18.611   6.423   2.758  0.2056 -0.0548 -0.0757
 1190PEP     CB43908  18.953   6.683   2.814 -0.0030 -0.1826 -0.1322
 1190PEP     CB43909  19.321   6.955   2.812  0.1749  0.1612 -0.7054
 1190PEP     CB43910  19.425   7.154   3.158  0.4562  0.0003 -0.2394
 1190PEP     CB43911  19.045   7.137   3.393 -0.1119  0.0073 -0.0826
 1190PEP     CB43912  18.833   6.794   3.284  0.0198 -0.1803  0.0957
 1190PEP     CB43913  18.857   6.373   3.382 -0.1886  0.2620 -0.0748
 1190PEP     CB43914  19.212   6.130   3.409  0.0901 -0.1931  0.0340
 1190PEP     CB43915  19.694   6.116   3.248  0.2030  0.2014 -0.0332
 1190PEP     CB43916  20.060   6.272   3.135  0.0474 -0.3910 -0.0794
 1190PEP     CB43917  20.497   6.235   2.935 -0.1032  0.1131 -0.0038
 1190PEP     CB43918  20.516   6.145   2.512  0.0707 -0.1611  0.0465
 1190PEP     CB43919  20.165   5.905   2.261  0.1465 -0.3118  0.2755
 1190PEP     CB43920  19.690   5.798   2.229  0.2437  0.0324  0.0391
 1191PEP     CB43921  19.560  14.933  20.338 -0.2365  0.0010 -0.0015
 1191PEP     CB43922  19.245  14.756  20.492 -0.0210  0.1256  0.3732
 1191PEP     CB43923  18.994  14.543  20.772 -0.0657  0.0037  0.2489
 1191PEP     CB43924  18.802  14.546  21.192  0.2263  0.1501 -0.0377
 1191PEP     CB43925  18.387  14.466  21.465 -0.1680  0.1675  0.1329
 1191PEP     CB43926  17.828  14.632  21.338 -0.0915  0.3036  0.1919
 1191PEP     CB43927  17.466  14.492  21.094  0.2827  0.2733  0.0680
 1191PEP     CB43928  17.184  14.227  20.798 -0.0960  0.1936  0.1447
 1191PEP     CB43929  17.167  14.115  20.342  0.2684  0.0872  0.0712
 1191PEP     CB43930  17.178  13.686  20.242  0.1367 -0.1129 -0.2855
 1191PEP     CB43931  16.955  13.295  20.165 -0.2274 -0.1630 -0.1621
 1191PEP     CB43932  16.700  12.963  19.888 -0.1010 -0.1647 -0.1786
 1191PEP     CB43933  16.755  12.568  19.799  0.1808 -0.0426  0.1591
 1191PEP     CB43934  16.892  12.195  19.635 -0.0693 -0.5555 -0.2712
 1191PEP     CB43935  17.189  11.880  19.623 -0.2205 -0.0189 -0.2093
 1191PEP     CB43936  17.457  11.537  19.521 -0.2900 -0.3355 -0.1589
 1191PEP     CB43937  17.851  11.279  19.570  0.1327  0.4159  0.0256
 1191PEP     CB43938  18.338  11.226  19.615 -0.1532 -0.1996  0.0419
 1191PEP     CB43939  18.717  11.360  19.573  0.0256 -0.0943 -0.1180
 1191PEP     CB43940  18.897  11.747  19.601  0.4627 -0.2316  0.1364
 1191PEP     CB43941  18.799  12.079  19.622 -0.0781 -0.0026 -0.2229
 1191PEP     CB43942  18.509  12.314  19.426 -0.0520 -0.0672 -0.2185
 1191PEP     CB43943  17.970  12.442  19.294  0.2760 -0.4024 -0.2102
 1191PEP     CB43944  17.582  12.636  19.210  0.3378 -0.0915  0.0607
 1191PEP     CB43945  17.558  12.893  18.844 -0.0153 -0.0761 -0.3337
 1191PEP     CB43946  17.763  13.106  18.511 -0.1202 -0.0988 -0.3688
 1191PEP     CB43947  18.074  13.282  18.240  0.4213  0.0192 -0.2277
 1191PEP     CB43948  18.407  13.404  18.153  0.2709 -0.1965 -0.0442
 1191PEP     CB43949  18.811  13.262  18.107  0.4120 -0.3383 -0.1548
 1191PEP     CB43950  19.328  13.167  18.145  0.1082 -0.0180  0.1542
 1191PEP     CB43951  19.519  12.786  18.207  0.2449 -0.0589 -0.2673
 1191PEP     CB43952  19.478  12.423  18.037 -0.3785  0.1328  0.0093
 1191PEP     CB43953  19.672  12.247  17.679 -0.1114 -0.1043 -0.1264
 1191PEP     CB43954  19.928  12.157  17.247  0.1099  0.0402 -0.4531
 1191PEP     CB43955  20.064  12.305  16.816  0.0890 -0.0511 -0.1151
 1191PEP     CB43956  20.327  12.495  16.402 -0.0365 -0.3291  0.5490
 1191PEP     CB43957  20.366  12.502  15.969  0.1392  0.0113  0.0375
 1191PEP     CB43958  20.634  12.438  15.642 -0.3504  0.0482 -0.0706
 1191PEP     CB43959  21.083  12.369  15.601  0.1032 -0.3539 -0.0404
 1191PEP     CB43960  21.421  12.075  15.704  0.2200  0.0651  0.2166
 1192PEP     CB43961   6.931   7.762  21.742  0.2983 -0.0571  0.0538
 1192PEP     CB43962   6.602   8.117  21.760 -0.1416  0.0789 -0.0114
 1192PEP     CB43963   6.527   8.479  21.959  0.2016  0.0604 -0.1452
 1192PEP     CB43964   6.431   8.742  22.369  0.0342  0.2475 -0.1380
 1192PEP     CB43965   6.125   8.548  22.727 -0.0945 -0.2927  0.3802
 1192PEP     CB43966   6.260   8.175  22.929  0.0672  0.5024  0.1142
 1192PEP     CB43967   6.446   7.785  22.629 -0.3995 -0.3248 -0.1124
 1192PEP     CB43968   6.336   7.782  22.097  0.3306  0.3592 -0.0068
 1192PEP     CB43969   6.061   8.061  21.921 -0.1871  0.0400 -0.0280
 1192PEP     CB43970   6.029   8.492  22.043 -0.2446 -0.2281 -0.1131
 1192PEP     CB43971   6.125   8.964  21.887 -0.1896  0.0626  0.1301
 1192PEP     CB43972   5.960   9.331  21.651 -0.0389  0.0273  0.1014
 1192PEP     CB43973   5.954   9.733  21.722  0.2307 -0.0607  0.3547
 1192PEP     CB43974   5.655  10.052  21.764  0.0068  0.0018 -0.1905
 1192PEP     CB43975   5.301  10.106  22.049 -0.2833  0.1737 -0.2426
 1192PEP     CB43976   5.061   9.955  22.430  0.1832  0.1325 -0.0829
 1192PEP     CB43977   5.019  10.110  22.875  0.0310  0.2533 -0.0419
 1192PEP     CB43978   4.719  10.169  23.105 -0.3169  0.1749 -0.3728
 1192PEP     CB43979   4.430  10.418  23.282 -0.1193 -0.1967 -0.2389
 1192PEP     CB43980   4.217  10.515  23.694 -0.0304  0.4077 -0.1500
 1192PEP     CB43981   4.128  10.586  24.140 -0.1437  0.2554  0.0219
 1192PEP     CB43982   3.826  10.493  24.473 -0.0179 -0.1571  0.0704
 1192PEP     CB43983   3.471  10.426  24.884  0.0449 -0.0367  0.0680
 1192PEP     CB43984   3.262  10.567  25.203 -0.0084 -0.1420  0.4708
 1192PEP     CB43985   2.915  10.829  25.056 -0.1244  0.2488  0.0979
 1192PEP     CB43986   2.716  10.738  24.646 -0.3355  0.2510  0.1170
 1192PEP     CB43987   2.670  10.371  24.364  0.2047 -0.0164  0.0411
 1192PEP     CB43988   2.528  10.074  24.169 -0.0224  0.4690 -0.0713
 1192PEP     CB43989   2.713   9.709  23.938 -0.3052  0.1247 -0.1632
 1192PEP     CB43990   3.176   9.612  23.827 -0.4095  0.1410 -0.3151
 1192PEP     CB43991   3.467   9.963  23.785  0.2361 -0.1542  0.2478
 1192PEP     CB43992   3.484  10.369  23.674 -0.4021  0.3197 -0.2541
 1192PEP     CB43993   3.702  10.758  23.610 -0.3279 -0.0866 -0.0018
 1192PEP     CB43994   3.694  11.248  23.416 -0.4686  0.2333 -0.1988
 1192PEP     CB43995   3.822  11.529  23.178 -0.0564 -0.0589  0.0428
 1192PEP     CB43996   4.211  11.835  23.083  0.4024  0.3007  0.1622
 1192PEP     CB43997   4.540  12.170  23.184  0.0872  0.0991  0.3028
 1192PEP     CB43998   4.702  12.497  23.339  0.4529  0.1283  0.1470
 1192PEP     CB43999   4.976  12.742  23.582 -0.3690  0.1640 -0.5708
 1192PEP     CB44000   5.071  13.151  23.686 -0.4287  0.1669 -0.3589
 1193PEP     CB44001  15.084   5.755  17.516  0.2165 -0.0727  0.5859
 1193PEP     CB44002  14.726   5.871  17.318 -0.1712 -0.0554 -0.0422
 1193PEP     CB44003  14.469   6.019  17.053  0.0577  0.3636  0.3935
 1193PEP     CB44004  14.330   6.069  16.649  0.0625  0.4447 -0.0334
 1193PEP     CB44005  14.454   6.248  16.287 -0.0028  0.0200 -0.1674
 1193PEP     CB44006  14.831   6.084  16.085  0.0789  0.0037 -0.1465
 1193PEP     CB44007  15.230   5.977  16.349  0.1450 -0.0880  0.3714
 1193PEP     CB44008  15.582   5.990  16.573  0.0469  0.3987 -0.3072
 1193PEP     CB44009  15.796   6.050  16.877 -0.0086  0.0304  0.0835
 1193PEP     CB44010  15.938   5.855  17.298 -0.1271 -0.4417 -0.1256
 1193PEP     CB44011  16.143   5.380  17.390  0.0471  0.0289  0.2534
 1193PEP     CB44012  16.191   5.145  17.124 -0.3503  0.0862  0.4029
 1193PEP     CB44013  16.217   5.267  16.568  0.0174  0.2775  0.2077
 1193PEP     CB44014  16.108   5.386  16.230  0.0407  0.2398  0.2072
 1193PEP     CB44015  16.090   5.420  15.681 -0.0074  0.0972  0.1272
 1193PEP     CB44016  16.193   5.352  15.293  0.0682 -0.0662 -0.0753
 1193PEP     CB44017  16.168   5.067  15.023 -0.1639 -0.2310 -0.3496
 1193PEP     CB44018  16.414   4.713  15.056  0.4766  0.0470 -0.4063
 1193PEP     CB44019  16.598   4.446  15.425 -0.3034 -0.0612 -0.1381
 1193PEP     CB44020  16.392   4.220  15.752  0.3743 -0.1756 -0.0027
 1193PEP     CB44021  16.190   4.383  16.097  0.0520 -0.0652  0.0048
 1193PEP     CB44022  15.921   4.838  16.148 -0.1093  0.0745 -0.1855
 1193PEP     CB44023  15.685   5.122  15.911 -0.1343 -0.1013  0.0411
 1193PEP     CB44024  15.394   5.238  15.728 -0.1309 -0.1523  0.2590
 1193PEP     CB44025  15.264   5.355  15.290  0.3233  0.0571 -0.2779
 1193PEP     CB44026  14.944   5.268  14.888 -0.0254 -0.2745  0.1675
 1193PEP     CB44027  14.576   5.490  14.780  0.3470 -0.1993  0.1235
 1193PEP     CB44028  14.178   5.317  14.717 -0.0456  0.1357  0.1128
 1193PEP     CB44029  13.956   5.070  15.075 -0.0253 -0.1683 -0.0597
 1193PEP     CB44030  14.128   5.042  15.467  0.4019  0.4731 -0.1247
 1193PEP     CB44031  14.442   4.756  15.573  0.0704 -0.2411  0.0836
 1193PEP     CB44032  14.619   4.445  15.368 -0.0532  0.0332 -0.1163
 1193PEP     CB44033  14.503   4.260  15.091  0.0592 -0.1015 -0.3190
 1193PEP     CB44034  14.124   4.100  14.863  0.3173  0.0414 -0.2085
 1193PEP     CB44035  13.758   3.809  14.693  0.1016 -0.2631 -0.3340
 1193PEP     CB44036  13.402   3.870  14.584  0.1424  0.2411  0.1338
 1193PEP     CB44037  13.099   3.911  14.893  0.0539  0.0979 -0.0302
 1193PEP     CB44038  13.141   3.747  15.303  0.1546 -0.0693  0.0397
 1193PEP     CB44039  13.526   3.709  15.611  0.3358 -0.6309 -0.1479
 1193PEP     CB44040  13.832   3.543  15.936  0.2562  0.2762  0.1987
 1194PEP     CB44041   6.646   3.045   2.041  0.1034  0.2275 -0.1264
 1194PEP     CB44042   6.279   2.890   2.266 -0.0935  0.2407 -0.0847
 1194PEP     CB44043   6.058   2.602   2.263 -0.1160  0.1701 -0.0542
 1194PEP     CB44044   5.816   2.481   1.916  0.0840  0.0489  0.1622
 1194PEP     CB44045   5.803   2.105   1.743  0.0594 -0.0705 -0.2088
 1194PEP     CB44046   5.704   1.769   1.877 -0.6954  0.0781 -0.2954
 1194PEP     CB44047   5.495   1.534   2.151  0.0130 -0.2787  0.1212
 1194PEP     CB44048   5.385   1.411   2.550  0.1972 -0.1981 -0.4702
 1194PEP     CB44049   5.290   1.524   2.953 -0.0648 -0.0479  0.3075
 1194PEP     CB44050   4.988   1.405   3.303  0.0206 -0.2121  0.3293
 1194PEP     CB44051   4.610   1.461   3.381  0.0729 -0.1055 -0.2660
 1194PEP     CB44052   4.219   1.586   3.193  0.1321  0.3106  0.2849
 1194PEP     CB44053   3.963   1.374   2.876 -0.1397 -0.1719 -0.1206
 1194PEP     CB44054   3.757   1.300   2.449  0.0876  0.0549 -0.0278
 1194PEP     CB44055   3.544   1.499   2.147 -0.0738 -0.2100  0.2243
 1194PEP     CB44056   3.473   1.946   2.255  0.5138 -0.1239  0.4276
 1194PEP     CB44057   3.402   2.022   2.702 -0.3793 -0.3301  0.2204
 1194PEP     CB44058   3.621   1.818   3.064 -0.1047  0.1624  0.1016
 1194PEP     CB44059   3.558   1.413   3.274 -0.2272  0.4214  0.2159
 1194PEP     CB44060   3.140   1.186   3.236  0.1918 -0.0873  0.4517
 1194PEP     CB44061   2.678   1.123   3.294 -0.1288  0.1988  0.3305
 1194PEP     CB44062   2.376   1.335   3.054  0.0910 -0.1917 -0.1689
 1194PEP     CB44063   2.373   1.564   2.518 -0.1906  0.0317 -0.0069
 1194PEP     CB44064   2.583   1.542   2.131  0.0253  0.0306  0.0813
 1194PEP     CB44065   2.698   1.611   1.714 -0.2632  0.0900  0.0837
 1194PEP     CB44066   2.985   1.802   1.336 -0.1008 -0.1828 -0.0908
 1194PEP     CB44067   3.093   2.215   1.212  0.0023  0.6639  0.6385
 1194PEP     CB44068   3.416   2.412   0.918  0.1037  0.1781  0.3546
 1194PEP     CB44069   3.350   2.743   0.645 -0.0667  0.1317 -0.1586
 1194PEP     CB44070   3.153   3.033   0.655  0.0459 -0.1090  0.1557
 1194PEP     CB44071   3.303   3.463   0.842  0.4120 -0.0893 -0.1043
 1194PEP     CB44072   3.647   3.770   1.033 -0.1503  0.4205 -0.1439
 1194PEP     CB44073   3.925   3.840   1.287  0.0828  0.0858  0.0081
 1194PEP     CB44074   4.082   3.679   1.678  0.0238  0.0662 -0.2844
 1194PEP     CB44075   4.266   3.663   2.125 -0.2416  0.2165  0.3326
 1194PEP     CB44076   4.575   3.472   2.288  0.3041  0.2358 -0.0848
 1194PEP     CB44077   4.553   3.020   2.188  0.0283  0.2338  0.1867
 1194PEP     CB44078   4.221   2.749   2.047  0.0093  0.1089 -0.2297
 1194PEP     CB44079   3.792   2.806   2.053 -0.1728  0.4370  0.0284
 1194PEP     CB44080   3.392   2.877   2.018 -0.0630 -0.0664  0.0530
 1195PEP     CB44081   5.772   2.781   9.529 -0.1534  0.1508  0.5459
 1195PEP     CB44082   5.507   3.063   9.783 -0.0038 -0.2345  0.2860
 1195PEP     CB44083   5.296   3.121  10.213  0.2061  0.0057  0.0612
 1195PEP     CB44084   4.876   3.419  10.364 -0.1833  0.2545 -0.2154
 1195PEP     CB44085   4.492   3.466  10.075  0.1567  0.1863  0.0239
 1195PEP     CB44086   4.569   3.459   9.625  0.0480  0.1270  0.1505
 1195PEP     CB44087   4.993   3.370   9.479 -0.0753 -0.2844  0.0864
 1195PEP     CB44088   5.352   3.624   9.510 -0.1607 -0.1264  0.0927
 1195PEP     CB44089   5.609   3.933   9.784 -0.2606 -0.4231  0.2031
 1195PEP     CB44090   5.462   4.273  10.108  0.0301  0.1996 -0.2237
 1195PEP     CB44091   5.051   4.397  10.392  0.2775 -0.1079  0.4614
 1195PEP     CB44092   4.927   4.518  10.793  0.1285  0.3674 -0.1869
 1195PEP     CB44093   5.040   4.641  11.179 -0.4358  0.0880 -0.1319
 1195PEP     CB44094   5.303   4.448  11.542 -0.3769  0.0270  0.2650
 1195PEP     CB44095   5.444   4.574  11.896  0.4801 -0.3337 -0.1990
 1195PEP     CB44096   5.191   4.910  12.168 -0.1228 -0.0629 -0.2381
 1195PEP     CB44097   4.877   5.268  12.376  0.1353 -0.0812  0.0466
 1195PEP     CB44098   4.640   5.680  12.441 -0.3530 -0.1629 -0.4193
 1195PEP     CB44099   4.483   5.973  12.701  0.0882 -0.1907 -0.0865
 1195PEP     CB44100   4.160   6.363  12.898 -0.1585  0.1259  0.0500
 1195PEP     CB44101   4.256   6.648  13.223  0.0363  0.0248 -0.1697
 1195PEP     CB44102   4.465   6.590  13.530  0.3369 -0.0920 -0.1078
 1195PEP     CB44103   4.520   6.165  13.547  0.0984  0.2485 -0.2433
 1195PEP     CB44104   4.341   5.933  13.238  0.0226 -0.0013 -0.0648
 1195PEP     CB44105   4.155   5.566  12.973 -0.6091 -0.2831  0.1553
 1195PEP     CB44106   3.793   5.296  13.054  0.0257  0.1968 -0.1684
 1195PEP     CB44107   3.442   5.172  13.178  0.3444  0.0469  0.1055
 1195PEP     CB44108   3.050   5.432  13.396 -0.0376  0.1712  0.0433
 1195PEP     CB44109   2.912   5.774  13.565  0.2603 -0.1764  0.0053
 1195PEP     CB44110   2.672   6.168  13.580  0.3524 -0.2260  0.3255
 1195PEP     CB44111   2.292   6.574  13.656  0.0892  0.3205  0.2265
 1195PEP     CB44112   2.161   6.999  13.935 -0.0692  0.0967  0.1727
 1195PEP     CB44113   2.026   7.015  14.376  0.0301  0.4194  0.0636
 1195PEP     CB44114   2.172   6.893  14.773 -0.3160 -0.3627 -0.2703
 1195PEP     CB44115   2.186   6.430  14.927 -0.0055 -0.2272 -0.0809
 1195PEP     CB44116   2.247   6.130  14.626  0.4839  0.0870  0.4596
 1195PEP     CB44117   2.145   5.839  14.209  0.0739 -0.0980  0.1610
 1195PEP     CB44118   1.823   5.654  14.020 -0.0426  0.3148 -0.0765
 1195PEP     CB44119   1.496   5.417  13.863 -0.0767 -0.1734  0.1504
 1195PEP     CB44120   1.248   5.159  13.633 -0.2862  0.2185 -0.2792
 1196PEP     CB44121   3.540  15.652  10.109 -0.3145  0.3150 -0.2537
 1196PEP     CB44122   3.269  15.661   9.745  0.3099  0.0888  0.0067
 1196PEP     CB44123   2.936  15.994   9.696 -0.0812  0.4139 -0.0864
 1196PEP     CB44124   2.754  16.400   9.554  0.1532 -0.1157  0.1295
 1196PEP     CB44125   2.516  16.540   9.219  0.3409 -0.2135  0.2710
 1196PEP     CB44126   2.034  16.430   9.104 -0.3251 -0.1943 -0.2063
 1196PEP     CB44127   1.571  16.348   9.289  0.4537 -0.0024  0.1558
 1196PEP     CB44128   1.281  16.129   9.526  0.2677 -0.2145 -0.0281
 1196PEP     CB44129   1.129  15.675   9.524 -0.1452 -0.1486 -0.4054
 1196PEP     CB44130   1.140  15.281   9.507  0.1324  0.2155 -0.0116
 1196PEP     CB44131   1.129  14.938   9.631 -0.1187 -0.0317 -0.0370
 1196PEP     CB44132   1.168  14.622   9.972 -0.1026  0.1287 -0.2125
 1196PEP     CB44133   1.445  14.331  10.180 -0.0923  0.1292  0.2692
 1196PEP     CB44134   1.697  13.958  10.357 -0.7272  0.2115 -0.1602
 1196PEP     CB44135   1.713  13.422  10.442  0.3303  0.0714  0.0368
 1196PEP     CB44136   1.987  13.372  10.770  0.2190  0.0370 -0.0749
 1196PEP     CB44137   2.128  13.714  10.947  0.0262 -0.0723 -0.0142
 1196PEP     CB44138   2.234  14.118  10.891  0.3657 -0.1016 -0.0647
 1196PEP     CB44139   2.439  14.478  10.917  0.2266 -0.0298 -0.1612
 1196PEP     CB44140   2.628  14.895  11.019 -0.4039  0.4787 -0.3389
 1196PEP     CB44141   2.834  15.225  10.816 -0.2455 -0.2099  0.2995
 1196PEP     CB44142   3.136  15.608  10.686  0.2330 -0.0394  0.2026
 1196PEP     CB44143   3.092  16.017  10.485  0.1546  0.0534  0.2654
 1196PEP     CB44144   3.112  16.279  10.251 -0.1009 -0.0502 -0.6523
 1196PEP     CB44145   2.899  16.613  10.045 -0.0054  0.0638  0.0846
 1196PEP     CB44146   2.529  16.821  10.086  0.5343 -0.1864 -0.1797
 1196PEP     CB44147   2.059  16.800  10.106 -0.1049  0.2729  0.0389
 1196PEP     CB44148   1.685  17.121   9.945 -0.4129 -0.1081 -0.0223
 1196PEP     CB44149   1.539  17.372   9.624  0.3542 -0.1194  0.0024
 1196PEP     CB44150   1.198  17.515   9.569 -0.0166 -0.1052 -0.0468
 1196PEP     CB44151   0.918  17.539   9.262  0.0787 -0.1385 -0.2221
 1196PEP     CB44152   1.048  17.371   8.781  0.2873 -0.0493  0.1127
 1196PEP     CB44153   1.448  17.147   8.756 -0.1509  0.2100 -0.0132
 1196PEP     CB44154   1.619  16.855   9.043  0.2476  0.1356  0.0799
 1196PEP     CB44155   1.565  16.797   9.473 -0.2425  0.1266 -0.2614
 1196PEP     CB44156   1.189  16.681   9.721 -0.0860 -0.0474  0.0285
 1196PEP     CB44157   0.764  16.679   9.634  0.5316  0.2875 -0.2079
 1196PEP     CB44158   0.387  16.722   9.392 -0.0379 -0.4375  0.0150
 1196PEP     CB44159   0.200  17.012   9.135 -0.1616 -0.0080  0.0648
 1196PEP     CB44160  -0.062  17.295   8.943  0.0574  0.1458 -0.2697
 1197PEP     CB44161  17.123   6.444  21.801 -0.2426  0.0985 -0.2698
 1197PEP     CB44162  16.983   6.508  22.272 -0.1998 -0.0127  0.5277
 1197PEP     CB44163  16.689   6.490  22.643 -0.2703 -0.2068 -0.2224
 1197PEP     CB44164  16.542   6.263  22.925 -0.1210 -0.2274 -0.1218
 1197PEP     CB44165  16.426   6.293  23.349 -0.0729  0.1033  0.0795
 1197PEP     CB44166  16.099   6.127  23.580  0.1536 -0.0203  0.1071
 1197PEP     CB44167  15.721   5.973  23.437  0.1688  0.1345 -0.1464
 1197PEP     CB44168  15.558   5.638  23.255 -0.4615  0.1748  0.1909
 1197PEP     CB44169  15.336   5.364  22.972 -0.1002 -0.0649  0.0731
 1197PEP     CB44170  15.328   5.283  22.533  0.0149 -0.0864  0.1393
 1197PEP     CB44171  15.719   5.111  22.231 -0.3129  0.1327 -0.1946
 1197PEP     CB44172  16.061   5.321  22.072 -0.0084  0.1526  0.0253
 1197PEP     CB44173  16.328   5.619  22.334  0.4416 -0.1405 -0.1652
 1197PEP     CB44174  16.713   5.554  22.497 -0.0520  0.0403  0.2653
 1197PEP     CB44175  17.133   5.452  22.313 -0.4695  0.0784  0.1288
 1197PEP     CB44176  17.286   5.487  21.862 -0.3792  0.1222 -0.0194
 1197PEP     CB44177  17.292   5.725  21.485  0.2218 -0.0339 -0.1419
 1197PEP     CB44178  17.266   6.104  21.321  0.2446  0.1074 -0.1767
 1197PEP     CB44179  17.181   6.545  21.333 -0.1370  0.1018 -0.1322
 1197PEP     CB44180  17.310   6.948  21.422 -0.0183  0.1548  0.1982
 1197PEP     CB44181  17.690   7.061  21.497 -0.0599  0.3284  0.1389
 1197PEP     CB44182  18.001   7.354  21.379 -0.0166 -0.0082 -0.1746
 1197PEP     CB44183  18.207   7.678  21.331  0.5168 -0.2061 -0.3138
 1197PEP     CB44184  18.464   8.030  21.393 -0.2112 -0.0049 -0.2222
 1197PEP     CB44185  18.529   8.453  21.135  0.2801 -0.1679 -0.1676
 1197PEP     CB44186  18.598   8.687  20.816  0.0679  0.0343 -0.0230
 1197PEP     CB44187  18.885   8.907  20.623 -0.4339 -0.0737 -0.1083
 1197PEP     CB44188  19.224   9.047  20.535 -0.2668  0.0842 -0.1453
 1197PEP     CB44189  19.473   9.368  20.608 -0.0562 -0.2072  0.2105
 1197PEP     CB44190  19.544   9.821  20.747  0.0639  0.1325  0.3066
 1197PEP     CB44191  19.619  10.213  20.804 -0.0853 -0.0042 -0.0883
 1197PEP     CB44192  19.466  10.633  20.904 -0.0945 -0.1951  0.1074
 1197PEP     CB44193  19.064  10.701  20.967  0.2675 -0.5906  0.0900
 1197PEP     CB44194  18.633  10.565  21.085  0.0294 -0.2844 -0.4334
 1197PEP     CB44195  18.306  10.418  21.210 -0.1972 -0.0766  0.1494
 1197PEP     CB44196  18.364   9.973  21.285  0.2085 -0.2569  0.1981
 1197PEP     CB44197  18.761   9.833  21.049  0.0900  0.0566 -0.2166
 1197PEP     CB44198  19.182   9.693  20.997 -0.0506  0.1337 -0.0224
 1197PEP     CB44199  19.574   9.505  21.163  0.3332  0.2442  0.1731
 1197PEP     CB44200  19.548   9.036  21.377 -0.2925 -0.2257  0.2675
 1198PEP     CB44201  21.589   4.361   4.864 -0.0173  0.0791  0.3338
 1198PEP     CB44202  21.293   4.552   5.030  0.0081 -0.1608 -0.1473
 1198PEP     CB44203  21.173   4.831   5.380 -0.1288  0.0061  0.2773
 1198PEP     CB44204  21.484   5.066   5.646 -0.0908  0.3195 -0.1755
 1198PEP     CB44205  21.941   5.164   5.563  0.2676 -0.2890 -0.0011
 1198PEP     CB44206  22.323   5.428   5.551  0.3684  0.0755  0.2724
 1198PEP     CB44207  22.709   5.546   5.430 -0.2697 -0.0237  0.2176
 1198PEP     CB44208  22.868   5.480   5.010  0.2914  0.1985  0.1784
 1198PEP     CB44209  22.825   5.092   4.817 -0.1923  0.0061  0.1800
 1198PEP     CB44210  22.814   4.679   5.028  0.2098  0.0442  0.0583
 1198PEP     CB44211  23.111   4.664   5.316  0.1384  0.3889 -0.3112
 1198PEP     CB44212  23.108   4.707   5.844 -0.2274  0.2377  0.1592
 1198PEP     CB44213  23.186   4.496   6.204 -0.2305 -0.3704 -0.3023
 1198PEP     CB44214  23.497   4.308   6.534 -0.0396 -0.2100 -0.0134
 1198PEP     CB44215  23.765   4.123   6.814 -0.3087 -0.1515  0.3020
 1198PEP     CB44216  24.163   4.171   6.849  0.1398 -0.7067 -0.1148
 1198PEP     CB44217  24.592   4.064   7.084  0.0707  0.4231  0.0420
 1198PEP     CB44218  24.834   3.764   7.358  0.2405  0.2476  0.0449
 1198PEP     CB44219  24.965   3.456   7.647  0.0149  0.0071 -0.1079
 1198PEP     CB44220  24.910   3.081   7.964 -0.2139 -0.0111 -0.1583
 1198PEP     CB44221  24.977   2.679   8.180 -0.1481 -0.0772  0.0200
 1198PEP     CB44222  24.860   2.442   8.437 -0.2043  0.0017 -0.0306
 1198PEP     CB44223  24.687   2.022   8.418  0.2692  0.0191 -0.0856
 1198PEP     CB44224  24.553   1.714   8.200  0.2151  0.2550 -0.0173
 1198PEP     CB44225  24.490   1.648   7.659 -0.3174 -0.0328 -0.0923
 1198PEP     CB44226  24.210   1.993   7.517  0.1650 -0.1805 -0.1804
 1198PEP     CB44227  23.828   1.934   7.330  0.1422 -0.1402  0.2792
 1198PEP     CB44228  23.562   1.778   6.979  0.0546  0.1140 -0.3769
 1198PEP     CB44229  23.592   1.466   6.500  0.3153 -0.2064  0.0154
 1198PEP     CB44230  23.345   1.148   6.198  0.0178 -0.1713 -0.0779
 1198PEP     CB44231  23.284   1.081   5.793 -0.3119 -0.1770 -0.1618
 1198PEP     CB44232  23.011   1.277   5.480  0.0747 -0.2019 -0.2630
 1198PEP     CB44233  22.749   1.682   5.452  0.5481  0.0860 -0.1859
 1198PEP     CB44234  22.822   2.060   5.476  0.1414  0.0622  0.1879
 1198PEP     CB44235  23.119   2.284   5.506  0.5169 -0.0246  0.3190
 1198PEP     CB44236  23.568   2.431   5.562  0.0390 -0.0160  0.2471
 1198PEP     CB44237  23.947   2.699   5.818  0.0258 -0.0769 -0.0992
 1198PEP     CB44238  24.277   2.669   5.936 -0.0593 -0.4052 -0.2911
 1198PEP     CB44239  24.701   2.445   6.005  0.3149 -0.0248 -0.2937
 1198PEP     CB44240  25.075   2.158   6.036 -0.2703  0.1262  0.3551
 1199PEP     CB44241   7.776   2.587  10.204  0.2128  0.0118 -0.0201
 1199PEP     CB44242   8.087   2.360  10.288 -0.0921 -0.0000 -0.1107
 1199PEP     CB44243   8.076   1.884  10.435 -0.0620 -0.1276  0.2575
 1199PEP     CB44244   7.963   1.621  10.772 -0.3185 -0.3443  0.0552
 1199PEP     CB44245   7.793   1.347  11.049 -0.4357 -0.1467 -0.2249
 1199PEP     CB44246   7.657   1.338  11.423  0.1909 -0.0919  0.4132
 1199PEP     CB44247   7.274   1.364  11.581  0.1187 -0.3333 -0.3591
 1199PEP     CB44248   6.949   1.448  11.970  0.0231  0.2533 -0.0563
 1199PEP     CB44249   6.582   1.572  12.237 -0.2809 -0.0548  0.0794
 1199PEP     CB44250   6.217   1.785  12.345 -0.5667  0.1878  0.0682
 1199PEP     CB44251   5.798   1.862  12.472  0.1819 -0.0903 -0.3687
 1199PEP     CB44252   5.625   2.003  12.833 -0.1156 -0.0347  0.0762
 1199PEP     CB44253   5.729   1.884  13.234 -0.0583  0.1024  0.0589
 1199PEP     CB44254   5.950   1.656  13.522 -0.3374  0.0463 -0.2127
 1199PEP     CB44255   6.126   1.470  13.847  0.2932  0.0830  0.1406
 1199PEP     CB44256   6.500   1.199  14.072  0.2828 -0.3513 -0.2240
 1199PEP     CB44257   6.770   0.837  14.140  0.0207  0.1823 -0.1670
 1199PEP     CB44258   6.933   0.658  13.930 -0.0625  0.3501  0.5433
 1199PEP     CB44259   6.871   0.441  13.508 -0.0695  0.2034  0.1156
 1199PEP     CB44260   6.875   0.542  13.038  0.0637 -0.0412  0.3554
 1199PEP     CB44261   6.659   0.274  12.693  0.2764 -0.4561 -0.0895
 1199PEP     CB44262   6.502  -0.027  12.678 -0.2615  0.1724 -0.0442
 1199PEP     CB44263   6.332  -0.245  12.401  0.2536 -0.2173 -0.0997
 1199PEP     CB44264   6.012  -0.222  12.060 -0.3143  0.0057  0.0241
 1199PEP     CB44265   5.562  -0.028  11.931 -0.5345  0.5513 -0.1297
 1199PEP     CB44266   5.320   0.398  11.860 -0.1241  0.0610 -0.2278
 1199PEP     CB44267   5.125   0.797  11.910 -0.0888 -0.1616  0.0904
 1199PEP     CB44268   5.020   1.129  11.718 -0.0506  0.1412 -0.1969
 1199PEP     CB44269   5.280   1.564  11.795  0.4473 -0.3727  0.0865
 1199PEP     CB44270   5.240   1.927  12.014 -0.3732 -0.4447 -0.0434
 1199PEP     CB44271   5.324   2.202  12.449 -0.0581  0.5517 -0.1484
 1199PEP     CB44272   5.612   2.481  12.626  0.0029 -0.2715 -0.0623
 1199PEP     CB44273   5.877   2.793  12.854 -0.0017  0.2999 -0.0190
 1199PEP     CB44274   5.956   3.124  13.198 -0.1026 -0.3810  0.2158
 1199PEP     CB44275   5.910   3.477  13.417  0.1624 -0.4862  0.0307
 1199PEP     CB44276   5.590   3.778  13.546 -0.2118  0.3105  0.0342
 1199PEP     CB44277   5.266   3.898  13.849  0.3872  0.3200 -0.1834
 1199PEP     CB44278   4.774   3.832  13.874  0.1771  0.0134 -0.1015
 1199PEP     CB44279   4.483   4.092  14.077 -0.4414  0.0017  0.0413
 1199PEP     CB44280   4.443   4.336  14.430  0.0447  0.0841  0.2851
 1200PEP     CB44281  22.004   7.869  12.954 -0.2391  0.0613 -0.2833
 1200PEP     CB44282  22.257   7.573  13.046  0.2080  0.2869 -0.3993
 1200PEP     CB44283  22.328   7.210  12.930 -0.1681 -0.0219  0.1423
 1200PEP     CB44284  22.558   6.797  12.911  0.1064 -0.6073 -0.0062
 1200PEP     CB44285  22.810   6.376  13.001  0.2926 -0.0246 -0.1129
 1200PEP     CB44286  22.836   5.932  13.040 -0.2815 -0.2637 -0.2188
 1200PEP     CB44287  22.661   5.542  12.961 -0.1408  0.3045 -0.2651
 1200PEP     CB44288  22.762   5.216  12.708  0.0231 -0.3048  0.1469
 1200PEP     CB44289  22.939   4.809  12.497  0.0049 -0.1868 -0.0583
 1200PEP     CB44290  22.879   4.375  12.339  0.2070 -0.0498 -0.0687
 1200PEP     CB44291  22.675   4.027  12.297  0.1201  0.2772  0.0477
 1200PEP     CB44292  22.489   3.997  11.946 -0.1518  0.0540  0.3095
 1200PEP     CB44293  22.490   4.343  11.721 -0.2810  0.2044 -0.2102
 1200PEP     CB44294  22.779   4.600  11.635 -0.2692  0.0421  0.0857
 1200PEP     CB44295  23.198   4.435  11.550  0.5434 -0.1415 -0.0220
 1200PEP     CB44296  23.373   4.069  11.579  0.2197  0.1639  0.0690
 1200PEP     CB44297  23.711   3.906  11.941 -0.0387  0.1833  0.4131
 1200PEP     CB44298  24.035   4.157  12.127 -0.2887  0.1698 -0.2934
 1200PEP     CB44299  24.165   4.200  12.510 -0.2261  0.1387  0.0053
 1200PEP     CB44300  23.946   4.156  12.927  0.1691 -0.2018  0.2417
 1200PEP     CB44301  23.431   4.181  12.937  0.1932  0.2294 -0.1177
 1200PEP     CB44302  23.275   4.050  12.522 -0.0240 -0.2846  0.0763
 1200PEP     CB44303  23.341   4.119  12.182  0.1655 -0.0810  0.3812
 1200PEP     CB44304  23.661   4.451  11.998 -0.2139  0.1766 -0.4331
 1200PEP     CB44305  23.956   4.789  12.088  0.0580  0.0263 -0.1979
 1200PEP     CB44306  23.972   5.230  12.270 -0.3811  0.2856 -0.1419
 1200PEP     CB44307  24.129   5.685  12.180  0.1059 -0.0055 -0.0424
 1200PEP     CB44308  24.518   5.693  12.347 -0.2171  0.0070 -0.0073
 1200PEP     CB44309  24.712   5.348  12.418  0.2063 -0.0282 -0.1408
 1200PEP     CB44310  25.015   5.017  12.500 -0.1998 -0.0940 -0.0564
 1200PEP     CB44311  25.289   4.761  12.217  0.0417 -0.0320  0.0478
 1200PEP     CB44312  25.482   4.998  11.927 -0.1810 -0.1203  0.4217
 1200PEP     CB44313  25.458   5.475  11.810  0.2435  0.1540 -0.0062
 1200PEP     CB44314  25.025   5.636  11.840 -0.1751 -0.1043  0.3524
 1200PEP     CB44315  24.650   5.381  11.928  0.1053  0.2161  0.3682
 1200PEP     CB44316  24.563   4.995  12.095  0.0564 -0.3425  0.3000
 1200PEP     CB44317  24.522   4.589  12.213  0.2250 -0.3113 -0.1438
 1200PEP     CB44318  24.566   4.145  11.969 -0.0972 -0.2883 -0.4292
 1200PEP     CB44319  24.813   3.782  12.160  0.1820  0.0310 -0.3974
 1200PEP     CB44320  25.200   3.628  12.381  0.2500 -0.0899  0.0959
 1201PEP     CB44321   1.525   6.592  19.431  0.0722 -0.3457  0.4568
 1201PEP     CB44322   1.666   6.234  19.702  0.1389 -0.0435 -0.0204
 1201PEP     CB44323   1.970   5.925  19.742 -0.0865  0.1933  0.3672
 1201PEP     CB44324   2.233   5.640  19.416 -0.1117 -0.3496 -0.2031
 1201PEP     CB44325   2.178   5.381  19.064  0.4567 -0.0417 -0.2559
 1201PEP     CB44326   2.065   5.022  18.889  0.1027  0.1649  0.1235
 1201PEP     CB44327   1.859   4.657  18.922 -0.0226  0.0033  0.2939
 1201PEP     CB44328   1.964   4.231  19.077 -0.1771 -0.0652  0.3040
 1201PEP     CB44329   2.346   4.017  19.203  0.2609 -0.0059  0.1659
 1201PEP     CB44330   2.724   4.133  19.291  0.0931 -0.2199  0.0802
 1201PEP     CB44331   3.022   4.352  19.500 -0.0006 -0.0808  0.0811
 1201PEP     CB44332   3.363   4.495  19.646  0.0301 -0.0897  0.0928
 1201PEP     CB44333   3.860   4.431  19.671 -0.3144  0.1100  0.1302
 1201PEP     CB44334   4.301   4.587  19.613 -0.1545 -0.3733  0.0491
 1201PEP     CB44335   4.660   4.473  19.384 -0.1154  0.0968 -0.1659
 1201PEP     CB44336   4.848   4.569  19.038 -0.1187 -0.0077  0.1037
 1201PEP     CB44337   4.736   4.801  18.672 -0.0597  0.2627 -0.2111
 1201PEP     CB44338   4.838   4.972  18.392 -0.3409 -0.3240  0.0950
 1201PEP     CB44339   5.138   4.953  18.153  0.3657 -0.5453 -0.4848
 1201PEP     CB44340   5.524   4.862  17.930 -0.1348 -0.0311  0.2994
 1201PEP     CB44341   5.992   4.819  17.860  0.3048 -0.5264 -0.3121
 1201PEP     CB44342   6.467   4.564  17.756 -0.3960  0.1436 -0.3057
 1201PEP     CB44343   6.842   4.388  17.726 -0.0993 -0.1118  0.3224
 1201PEP     CB44344   7.223   4.383  17.563 -0.2017  0.3734  0.1746
 1201PEP     CB44345   7.527   4.305  17.255 -0.3166  0.0211  0.0883
 1201PEP     CB44346   7.829   4.183  16.966 -0.1050 -0.0889  0.1882
 1201PEP     CB44347   7.887   3.772  16.778  0.0313  0.2465 -0.1108
 1201PEP     CB44348   7.616   3.516  16.859  0.1816  0.4019  0.4860
 1201PEP     CB44349   7.176   3.578  16.977  0.2114  0.1125  0.1477
 1201PEP     CB44350   6.901   3.733  16.581 -0.0426 -0.0972  0.2465
 1201PEP     CB44351   7.058   3.869  16.258  0.0226 -0.0652  0.0210
 1201PEP     CB44352   7.321   4.117  16.239 -0.1442  0.2424  0.0373
 1201PEP     CB44353   7.748   4.194  16.237 -0.0832  0.2254 -0.0857
 1201PEP     CB44354   8.157   4.429  16.439  0.0496 -0.3364  0.0991
 1201PEP     CB44355   8.145   4.671  16.802  0.0289 -0.0991  0.0270
 1201PEP     CB44356   7.765   4.747  17.088  0.2772  0.1450 -0.1464
 1201PEP     CB44357   7.330   4.856  17.170 -0.0302 -0.1489  0.1496
 1201PEP     CB44358   6.954   4.800  17.278 -0.3233 -0.1031  0.1061
 1201PEP     CB44359   6.480   4.666  17.211 -0.2975 -0.1141  0.1273
 1201PEP     CB44360   6.251   4.368  17.342 -0.1283  0.1448 -0.0578
 1202PEP     CB44361  13.072  17.787   2.289 -0.1321  0.1269  0.3703
 1202PEP     CB44362  12.630  17.817   2.400  0.3163 -0.0268  0.0544
 1202PEP     CB44363  12.158  17.645   2.394  0.1258  0.3523  0.0997
 1202PEP     CB44364  11.730  17.705   2.523  0.0100 -0.0102 -0.5252
 1202PEP     CB44365  11.351  17.882   2.602  0.1324 -0.0280 -0.0697
 1202PEP     CB44366  11.067  18.203   2.295  0.3794 -0.1738  0.5230
 1202PEP     CB44367  11.036  18.347   1.882 -0.0479 -0.2888 -0.0883
 1202PEP     CB44368  11.347  18.652   1.573  0.0466 -0.3258 -0.1546
 1202PEP     CB44369  11.807  18.713   1.638  0.4313  0.1518  0.3828
 1202PEP     CB44370  12.076  19.101   1.570 -0.1131 -0.1461 -0.0582
 1202PEP     CB44371  12.006  19.533   1.579  0.0098 -0.4787  0.2376
 1202PEP     CB44372  12.079  20.056   1.581  0.2613  0.2312  0.0647
 1202PEP     CB44373  12.041  20.343   1.887 -0.0688  0.3547 -0.1248
 1202PEP     CB44374  11.891  20.494   2.353 -0.2408  0.1116  0.3445
 1202PEP     CB44375  11.864  20.625   2.761  0.2365 -0.2598  0.2131
 1202PEP     CB44376  11.976  20.927   3.022  0.2408 -0.1227 -0.0641
 1202PEP     CB44377  12.085  21.261   3.401  0.0298  0.0003 -0.0800
 1202PEP     CB44378  12.087  21.740   3.509 -0.2764  0.0356  0.4467
 1202PEP     CB44379  12.321  22.034   3.407  0.1083 -0.2606  0.2319
 1202PEP     CB44380  12.502  22.326   3.169 -0.4604 -0.1740  0.0103
 1202PEP     CB44381  12.545  22.682   2.845 -0.1394 -0.4491  0.1319
 1202PEP     CB44382  12.927  22.934   2.683  0.3782  0.0541  0.0856
 1202PEP     CB44383  13.252  23.033   2.418 -0.1256  0.1776  0.1069
 1202PEP     CB44384  13.635  23.253   2.394 -0.1049  0.2652  0.0709
 1202PEP     CB44385  13.937  23.516   2.322  0.2787  0.5319  0.2339
 1202PEP     CB44386  14.370  23.765   2.262 -0.0589 -0.0834 -0.1122
 1202PEP     CB44387  14.398  24.165   2.066  0.0647  0.0337 -0.2495
 1202PEP     CB44388  13.984  24.342   2.053  0.2289  0.0142  0.2234
 1202PEP     CB44389  13.551  24.154   1.997 -0.0398 -0.0828  0.4058
 1202PEP     CB44390  13.218  24.101   2.265 -0.0054 -0.0274  0.2347
 1202PEP     CB44391  13.055  24.343   2.513 -0.2065 -0.1520  0.0391
 1202PEP     CB44392  12.702  24.203   2.800 -0.1929  0.0123 -0.1026
 1202PEP     CB44393  12.610  23.856   3.002  0.1730  0.0973  0.3521
 1202PEP     CB44394  12.201  23.811   3.276  0.1135  0.0575  0.0985
 1202PEP     CB44395  11.929  24.186   3.349  0.0482 -0.2987  0.1328
 1202PEP     CB44396  11.896  24.563   3.054 -0.0504  0.0484 -0.1895
 1202PEP     CB44397  11.844  24.856   2.694  0.1895 -0.3460  0.1597
 1202PEP     CB44398  11.808  25.177   2.341 -0.4481  0.2056 -0.4409
 1202PEP     CB44399  11.968  25.206   1.914  0.1959 -0.0421 -0.1881
 1202PEP     CB44400  11.897  25.371   1.559  0.1920 -0.0882 -0.3918
 1203PEP     CB44401  18.099  21.450  13.503 -0.1978 -0.0126 -0.2025
 1203PEP     CB44402  18.428  21.609  13.637  0.1482 -0.2022 -0.3888
 1203PEP     CB44403  18.429  21.635  14.071  0.0592  0.0267 -0.1639
 1203PEP     CB44404  18.277  21.678  14.471 -0.0445 -0.1428 -0.0509
 1203PEP     CB44405  18.129  21.797  14.847 -0.1728 -0.1492  0.1810
 1203PEP     CB44406  18.106  21.910  15.375  0.0074 -0.1204  0.0622
 1203PEP     CB44407  18.084  21.588  15.719  0.3130 -0.1921 -0.0964
 1203PEP     CB44408  18.057  21.427  15.988 -0.2519 -0.2157 -0.2060
 1203PEP     CB44409  18.240  21.128  16.284 -0.1398 -0.1060 -0.0084
 1203PEP     CB44410  18.590  21.031  16.527 -0.3001 -0.0408  0.3899
 1203PEP     CB44411  18.895  20.740  16.841  0.2128 -0.0247  0.1318
 1203PEP     CB44412  19.295  20.709  17.061 -0.2540 -0.0136  0.3468
 1203PEP     CB44413  19.673  20.720  17.427 -0.2164  0.3982  0.0936
 1203PEP     CB44414  20.091  20.471  17.326 -0.0934  0.2312  0.1064
 1203PEP     CB44415  20.479  20.373  17.106 -0.0242 -0.1446  0.2469
 1203PEP     CB44416  20.655  20.121  16.821 -0.3000 -0.2776  0.0927
 1203PEP     CB44417  20.692  19.905  16.382 -0.1029 -0.1840 -0.2169
 1203PEP     CB44418  20.701  19.989  15.961 -0.1501 -0.1229  0.2949
 1203PEP     CB44419  20.907  19.810  15.677 -0.6236 -0.3016  0.2385
 1203PEP     CB44420  21.218  19.679  15.513 -0.2356  0.0387  0.1492
 1203PEP     CB44421  21.477  19.344  15.238  0.1198 -0.0245  0.2281
 1203PEP     CB44422  21.641  18.923  15.154  0.3841 -0.1565  0.2188
 1203PEP     CB44423  21.610  18.543  14.890 -0.2031  0.0757  0.1899
 1203PEP     CB44424  21.724  18.146  15.097  0.3419 -0.1246  0.3623
 1203PEP     CB44425  21.926  18.170  15.504  0.0290  0.1255  0.1355
 1203PEP     CB44426  22.075  17.993  15.850 -0.2328  0.2246  0.2482
 1203PEP     CB44427  22.081  17.723  16.193  0.1644 -0.4616  0.5406
 1203PEP     CB44428  21.766  17.521  16.527 -0.1643 -0.0749 -0.3053
 1203PEP     CB44429  21.586  17.226  16.973 -0.0582 -0.0689 -0.1914
 1203PEP     CB44430  21.572  17.159  17.384  0.2184  0.2462 -0.3418
 1203PEP     CB44431  21.461  17.484  17.680  0.0626  0.2262  0.2922
 1203PEP     CB44432  21.279  17.879  17.615 -0.4021  0.4147 -0.1744
 1203PEP     CB44433  21.126  18.205  17.604  0.3810  0.2499  0.0437
 1203PEP     CB44434  21.120  18.468  17.231  0.0499 -0.0725  0.1378
 1203PEP     CB44435  21.350  18.234  16.851  0.1756  0.0004  0.2177
 1203PEP     CB44436  21.280  17.811  16.676  0.2350 -0.1007  0.0940
 1203PEP     CB44437  20.891  17.562  16.651 -0.1285 -0.4699 -0.1613
 1203PEP     CB44438  20.491  17.462  16.448 -0.1087  0.0151  0.0088
 1203PEP     CB44439  20.174  17.614  16.194  0.0045  0.1379 -0.0968
 1203PEP     CB44440  19.960  17.577  15.875  0.1822 -0.2709  0.0038
 1204PEP     CB44441  16.047   3.214  12.381  0.0898  0.4296  0.2241
 1204PEP     CB44442  16.480   3.445  12.419  0.2057  0.0044 -0.2375
 1204PEP     CB44443  16.969   3.355  12.385 -0.2017  0.1921  0.0527
 1204PEP     CB44444  17.364   3.349  12.137 -0.1186 -0.1138  0.0676
 1204PEP     CB44445  17.700   3.306  11.800 -0.0392  0.0361 -0.2277
 1204PEP     CB44446  18.144   3.291  11.879 -0.1160 -0.0903  0.2772
 1204PEP     CB44447  18.404   3.588  12.036  0.2086 -0.0560 -0.3661
 1204PEP     CB44448  18.417   4.032  12.180  0.0094 -0.1312  0.2418
 1204PEP     CB44449  18.686   4.181  12.616 -0.3758  0.2215  0.2960
 1204PEP     CB44450  18.837   4.046  12.948  0.1332  0.1495 -0.0107
 1204PEP     CB44451  18.946   3.868  13.262 -0.0944  0.5508 -0.2345
 1204PEP     CB44452  19.149   3.474  13.392  0.0156 -0.3189 -0.2955
 1204PEP     CB44453  19.467   3.173  13.223  0.0429 -0.0814  0.3258
 1204PEP     CB44454  19.708   3.097  12.884 -0.0452  0.4780 -0.2542
 1204PEP     CB44455  19.515   3.011  12.501  0.1894  0.0750 -0.4382
 1204PEP     CB44456  19.339   3.232  12.176 -0.1441  0.0034 -0.0995
 1204PEP     CB44457  19.212   3.206  11.824 -0.1679  0.1715  0.1458
 1204PEP     CB44458  18.924   2.859  11.606 -0.2857 -0.3257 -0.1369
 1204PEP     CB44459  18.590   2.575  11.464  0.0520 -0.0914 -0.2367
 1204PEP     CB44460  18.536   2.238  11.272 -0.1103 -0.2473  0.1292
 1204PEP     CB44461  18.828   2.084  10.988  0.3138 -0.2308 -0.0875
 1204PEP     CB44462  19.311   2.227  11.071 -0.1106  0.0949 -0.2697
 1204PEP     CB44463  19.491   2.344  11.424  0.4759  0.0830  0.1091
 1204PEP     CB44464  19.890   2.181  11.562 -0.4528  0.1601 -0.0105
 1204PEP     CB44465  20.023   1.835  11.363  0.1439 -0.0833  0.2473
 1204PEP     CB44466  19.802   1.546  11.516 -0.1622 -0.2740 -0.0002
 1204PEP     CB44467  19.442   1.540  11.852 -0.3335 -0.4789  0.1073
 1204PEP     CB44468  19.428   1.488  12.231 -0.1266 -0.1286 -0.3591
 1204PEP     CB44469  19.459   1.266  12.491  0.2582  0.0823  0.2387
 1204PEP     CB44470  19.422   1.066  12.888  0.1502  0.0938 -0.2795
 1204PEP     CB44471  19.509   0.938  13.389 -0.0421 -0.0144 -0.0726
 1204PEP     CB44472  19.547   0.652  13.684  0.1047  0.1129 -0.1868
 1204PEP     CB44473  19.717   0.223  13.864  0.0709 -0.1054 -0.2307
 1204PEP     CB44474  19.857  -0.196  13.653  0.4156 -0.0716  0.0029
 1204PEP     CB44475  19.742  -0.419  13.248  0.1617 -0.5162 -0.3311
 1204PEP     CB44476  19.413  -0.442  12.941  0.1324 -0.0894 -0.1903
 1204PEP     CB44477  19.123  -0.692  12.681  0.0964 -0.1181 -0.0839
 1204PEP     CB44478  18.727  -0.905  12.628 -0.1679 -0.0029  0.0642
 1204PEP     CB44479  18.497  -1.287  12.576  0.3996  0.1580 -0.1546
 1204PEP     CB44480  18.150  -1.541  12.514 -0.4852  0.2010 -0.1652
 1205PEP     CB44481  13.334  14.951  18.941 -0.2807 -0.0045 -0.1881
 1205PEP     CB44482  13.337  14.666  18.626  0.0658 -0.4204 -0.3886
 1205PEP     CB44483  13.262  14.352  18.346 -0.5047  0.1666 -0.1661
 1205PEP     CB44484  13.389  13.866  18.517  0.0546  0.0842  0.3261
 1205PEP     CB44485  13.548  13.978  18.922  0.0870 -0.0412 -0.1371
 1205PEP     CB44486  13.434  14.364  19.048  0.0454  0.0697 -0.0288
 1205PEP     CB44487  13.022  14.530  19.014 -0.0016 -0.0659 -0.1071
 1205PEP     CB44488  12.673  14.808  19.024  0.1063 -0.2911 -0.1503
 1205PEP     CB44489  12.561  15.213  18.976  0.1320  0.1090  0.0529
 1205PEP     CB44490  12.131  15.504  18.966  0.2356  0.1511 -0.1324
 1205PEP     CB44491  11.645  15.411  18.853 -0.1393 -0.0632 -0.0983
 1205PEP     CB44492  11.456  15.029  18.926 -0.1988 -0.2486  0.4184
 1205PEP     CB44493  11.729  14.640  19.033  0.1007  0.2227  0.0100
 1205PEP     CB44494  12.111  14.517  18.730  0.4259  0.2228 -0.0927
 1205PEP     CB44495  12.319  14.843  18.490  0.1067 -0.3602  0.0767
 1205PEP     CB44496  12.283  15.295  18.422  0.2168  0.0392 -0.2134
 1205PEP     CB44497  12.073  15.708  18.525 -0.0035 -0.1663  0.2294
 1205PEP     CB44498  11.676  15.925  18.640 -0.1844 -0.1412  0.1565
 1205PEP     CB44499  11.361  16.082  18.971 -0.2231 -0.1799  0.1057
 1205PEP     CB44500  11.037  16.051  19.219  0.0497 -0.2964  0.1024
 1205PEP     CB44501  10.665  15.841  19.209 -0.3305 -0.1639  0.0122
 1205PEP     CB44502  10.655  15.379  19.195 -0.0345 -0.2405  0.1331
 1205PEP     CB44503  10.970  15.213  19.409  0.1052 -0.2363 -0.2338
 1205PEP     CB44504  11.460  15.195  19.430  0.0132  0.4086 -0.2169
 1205PEP     CB44505  11.884  15.201  19.275  0.3210  0.2036  0.5100
 1205PEP     CB44506  12.073  14.993  18.900  0.2085 -0.0890 -0.0698
 1205PEP     CB44507  11.864  14.942  18.504 -0.0481 -0.0587 -0.0744
 1205PEP     CB44508  11.726  15.185  18.179  0.3886  0.2042 -0.0131
 1205PEP     CB44509  11.873  15.165  17.767 -0.1868  0.0759  0.0582
 1205PEP     CB44510  12.148  14.898  17.536 -0.1708 -0.3362 -0.3065
 1205PEP     CB44511  12.462  14.645  17.381 -0.2102  0.0094 -0.2140
 1205PEP     CB44512  12.703  14.340  17.185  0.0681 -0.2083  0.0242
 1205PEP     CB44513  12.760  13.922  17.065  0.1657 -0.0502  0.1254
 1205PEP     CB44514  12.943  13.498  17.140 -0.1258 -0.1146  0.2592
 1205PEP     CB44515  12.798  13.127  17.212  0.0805 -0.0715  0.4311
 1205PEP     CB44516  12.785  12.663  17.128  0.5403 -0.2521  0.3996
 1205PEP     CB44517  13.057  12.318  17.018  0.0930  0.3333 -0.2690
 1205PEP     CB44518  13.338  12.323  16.609  0.2810 -0.0226 -0.0650
 1205PEP     CB44519  13.479  12.653  16.356  0.3631 -0.4261  0.0870
 1205PEP     CB44520  13.748  12.974  16.253  0.0174 -0.2766 -0.0225
 1206PEP     CB44521  11.152  10.940  16.340 -0.2646 -0.2139  0.1038
 1206PEP     CB44522  11.444  10.594  16.305  0.1204 -0.3052 -0.3528
 1206PEP     CB44523  11.847  10.426  16.413  0.4836 -0.1215 -0.1199
 1206PEP     CB44524  11.999  10.132  16.719  0.1542  0.1236  0.0204
 1206PEP     CB44525  12.269  10.121  17.111 -0.0927  0.0091 -0.2995
 1206PEP     CB44526  12.428  10.294  17.537  0.0089 -0.0242 -0.0136
 1206PEP     CB44527  12.702  10.142  17.914  0.0927  0.0926  0.0747
 1206PEP     CB44528  13.041  10.097  18.188 -0.3100 -0.2033  0.1130
 1206PEP     CB44529  13.412   9.984  18.360 -0.4329  0.0408 -0.1318
 1206PEP     CB44530  13.954  10.011  18.360  0.1970 -0.2640  0.5280
 1206PEP     CB44531  14.293   9.899  18.566  0.0264  0.2099  0.0624
 1206PEP     CB44532  14.431   9.516  18.553 -0.0113 -0.2358  0.4873
 1206PEP     CB44533  14.389   9.140  18.415 -0.3173  0.0505 -0.5676
 1206PEP     CB44534  14.116   8.830  18.289  0.0090  0.0249  0.0105
 1206PEP     CB44535  13.786   8.516  18.398  0.3870 -0.1595  0.0325
 1206PEP     CB44536  13.580   8.372  18.675 -0.1582  0.0028 -0.0564
 1206PEP     CB44537  13.265   8.188  18.877  0.0457  0.5400 -0.0799
 1206PEP     CB44538  12.853   8.295  18.915  0.0594  0.1747 -0.2121
 1206PEP     CB44539  12.397   8.582  18.980 -0.0426 -0.0614  0.0013
 1206PEP     CB44540  12.035   8.590  18.761  0.1015  0.0496 -0.0096
 1206PEP     CB44541  11.911   8.514  18.351  0.3909  0.4165 -0.2305
 1206PEP     CB44542  12.125   8.704  17.932 -0.0227  0.0229  0.5217
 1206PEP     CB44543  12.450   8.896  17.915 -0.2010 -0.1533 -0.1482
 1206PEP     CB44544  12.662   9.169  18.262 -0.2262  0.4764  0.1423
 1206PEP     CB44545  12.642   9.235  18.662 -0.0158 -0.1657  0.0012
 1206PEP     CB44546  12.681   9.148  19.097 -0.3831  0.0195 -0.2755
 1206PEP     CB44547  12.720   8.728  19.343 -0.1260  0.0456  0.1451
 1206PEP     CB44548  12.561   8.377  19.665 -0.0540 -0.0826 -0.0982
 1206PEP     CB44549  12.687   8.054  19.897 -0.0347 -0.4423 -0.1196
 1206PEP     CB44550  12.700   7.654  19.993  0.4226  0.1329 -0.0484
 1206PEP     CB44551  12.638   7.488  20.344  0.0703 -0.2051 -0.1713
 1206PEP     CB44552  12.897   7.455  20.643 -0.0926 -0.3107  0.2820
 1206PEP     CB44553  13.298   7.463  20.714  0.2183 -0.0490 -0.2815
 1206PEP     CB44554  13.629   7.564  20.867 -0.0228 -0.4809  0.0578
 1206PEP     CB44555  13.897   7.809  20.963  0.5434  0.1289 -0.2536
 1206PEP     CB44556  13.844   8.150  21.127  0.0807  0.2713  0.1280
 1206PEP     CB44557  13.462   8.186  21.363 -0.0654 -0.4040  0.2498
 1206PEP     CB44558  13.019   8.169  21.396 -0.3305 -0.3103 -0.2682
 1206PEP     CB44559  12.721   8.629  21.410  0.0115  0.1771 -0.2308
 1206PEP     CB44560  13.064   8.957  21.473 -0.3394  0.0011  0.3978
 1207PEP     CB44561  14.904   5.197  16.698 -0.3314 -0.1100  0.1319
 1207PEP     CB44562  14.800   5.569  16.882  0.2485 -0.3348  0.2400
 1207PEP     CB44563  14.887   6.051  16.751 -0.1109 -0.0774  0.1945
 1207PEP     CB44564  14.729   6.451  16.626  0.1247 -0.1411  0.0415
 1207PEP     CB44565  14.846   6.818  16.805  0.0968 -0.0435 -0.3711
 1207PEP     CB44566  14.790   7.350  16.779  0.2658  0.2282  0.0755
 1207PEP     CB44567  14.935   7.660  16.578 -0.0849  0.0213  0.0115
 1207PEP     CB44568  15.199   7.980  16.283 -0.6372 -0.1115  0.1788
 1207PEP     CB44569  15.586   7.928  16.030 -0.4349 -0.0973 -0.1088
 1207PEP     CB44570  15.831   8.130  15.746  0.0913 -0.0122  0.5034
 1207PEP     CB44571  16.215   7.941  15.397 -0.3504 -0.0207 -0.2118
 1207PEP     CB44572  16.484   7.712  15.130 -0.3638 -0.2217  0.0371
 1207PEP     CB44573  16.528   7.285  15.090 -0.1834 -0.0589  0.4447
 1207PEP     CB44574  16.264   6.923  14.907 -0.2084  0.1667  0.0289
 1207PEP     CB44575  16.047   6.587  14.719  0.1926  0.2436 -0.3988
 1207PEP     CB44576  15.698   6.433  14.506  0.0900  0.3101 -0.3413
 1207PEP     CB44577  15.283   6.407  14.666  0.4758  0.3010  0.4291
 1207PEP     CB44578  15.193   6.297  15.168  0.0421  0.2766 -0.0923
 1207PEP     CB44579  15.427   6.484  15.443 -0.3206 -0.0377 -0.1153
 1207PEP     CB44580  15.691   6.892  15.494  0.2651  0.4847  0.1070
 1207PEP     CB44581  16.123   6.940  15.455  0.2603  0.2324  0.1070
 1207PEP     CB44582  16.464   6.951  15.718 -0.1413  0.0303 -0.3303
 1207PEP     CB44583  16.929   7.123  15.871  0.6306  0.1803  0.0240
 1207PEP     CB44584  17.250   7.108  16.150  0.1492  0.0571  0.1041
 1207PEP     CB44585  17.504   7.254  16.505  0.1425 -0.0127 -0.0890
 1207PEP     CB44586  17.393   7.538  16.853 -0.0498  0.0962  0.1974
 1207PEP     CB44587  16.991   7.644  16.871  0.0171  0.4254  0.1432
 1207PEP     CB44588  16.589   7.412  16.803 -0.2433 -0.1494 -0.3548
 1207PEP     CB44589  16.425   7.073  17.135  0.2435 -0.0598 -0.0350
 1207PEP     CB44590  16.526   7.153  17.609  0.1934 -0.2144 -0.2486
 1207PEP     CB44591  16.734   6.962  17.934  0.0492 -0.1610  0.0654
 1207PEP     CB44592  17.182   6.907  18.234 -0.1123 -0.0537  0.2444
 1207PEP     CB44593  17.568   7.157  18.043 -0.0004 -0.0330  0.4112
 1207PEP     CB44594  17.582   7.283  17.575 -0.2892  0.2004  0.3738
 1207PEP     CB44595  17.443   7.154  17.168 -0.2135 -0.2992 -0.3533
 1207PEP     CB44596  17.396   6.751  17.022 -0.3093 -0.0246  0.1658
 1207PEP     CB44597  17.131   6.389  16.940  0.3000  0.1711  0.1237
 1207PEP     CB44598  16.728   6.106  16.861  0.3863  0.0054  0.0965
 1207PEP     CB44599  16.585   5.602  16.833  0.1543  0.3644  0.0533
 1207PEP     CB44600  16.669   5.197  16.782  0.4178  0.1762 -0.1466
 1208PEP     CB44601   4.710   8.777   0.642  0.2340  0.0955  0.1156
 1208PEP     CB44602   4.950   8.378   0.390  0.1574  0.1874 -0.1349
 1208PEP     CB44603   5.080   8.050   0.153  0.5306  0.3520  0.2993
 1208PEP     CB44604   5.042   7.812  -0.034 -0.0136  0.0770  0.2200
 1208PEP     CB44605   4.752   7.585  -0.371 -0.1972 -0.3033 -0.1708
 1208PEP     CB44606   4.522   7.222  -0.492 -0.1093 -0.1634  0.3271
 1208PEP     CB44607   4.382   6.991  -0.932 -0.1614 -0.3045  0.6521
 1208PEP     CB44608   4.510   6.910  -1.350  0.2770 -0.1527  0.1530
 1208PEP     CB44609   4.916   6.936  -1.525 -0.2540 -0.0819 -0.0363
 1208PEP     CB44610   5.205   6.827  -1.773 -0.0004  0.0583  0.2269
 1208PEP     CB44611   5.647   6.795  -1.801 -0.0988  0.0883 -0.2770
 1208PEP     CB44612   5.927   6.932  -2.102  0.2286 -0.0446  0.1721
 1208PEP     CB44613   6.259   7.074  -2.262 -0.5424 -0.3578 -0.0129
 1208PEP     CB44614   6.422   7.118  -2.585  0.3023 -0.0422 -0.0325
 1208PEP     CB44615   6.352   7.022  -2.874  0.1445 -0.1426 -0.2036
 1208PEP     CB44616   6.083   6.935  -3.177 -0.1617 -0.0095 -0.1811
 1208PEP     CB44617   5.897   6.793  -3.545 -0.3871  0.1057 -0.1585
 1208PEP     CB44618   5.420   6.581  -3.634 -0.3343 -0.0046  0.3681
 1208PEP     CB44619   5.334   6.373  -4.036  0.2822 -0.0491  0.4570
 1208PEP     CB44620   5.354   6.489  -4.463 -0.2976  0.2017  0.1938
 1208PEP     CB44621   5.319   6.617  -4.925  0.0312 -0.3765 -0.1455
 1208PEP     CB44622   5.237   6.729  -5.345  0.0869  0.1194 -0.1177
 1208PEP     CB44623   5.332   6.624  -5.752 -0.0410  0.0824  0.0460
 1208PEP     CB44624   5.229   6.399  -6.137  0.0627 -0.1315  0.0547
 1208PEP     CB44625   5.364   6.241  -6.515  0.0468 -0.0725 -0.2780
 1208PEP     CB44626   5.380   6.018  -6.925 -0.3010  0.2239 -0.4085
 1208PEP     CB44627   5.387   5.589  -7.077  0.1543 -0.0821 -0.2937
 1208PEP     CB44628   5.084   5.291  -7.197  0.1072  0.3649 -0.0104
 1208PEP     CB44629   4.907   5.010  -7.377  0.0700 -0.2041 -0.3442
 1208PEP     CB44630   4.628   4.689  -7.155 -0.1229 -0.1109 -0.1690
 1208PEP     CB44631   4.602   4.556  -6.754 -0.3590  0.1782 -0.0447
 1208PEP     CB44632   4.990   4.702  -6.365 -0.0927  0.1640 -0.2697
 1208PEP     CB44633   5.399   4.865  -6.397 -0.4490  0.3586 -0.0911
 1208PEP     CB44634   5.744   4.773  -6.286 -0.1895  0.2332 -0.1523
 1208PEP     CB44635   5.881   4.442  -6.015 -0.2830 -0.1675  0.1353
 1208PEP     CB44636   5.738   4.090  -5.827 -0.2152  0.1339 -0.0897
 1208PEP     CB44637   5.398   3.760  -5.816 -0.2802  0.1459  0.1485
 1208PEP     CB44638   5.405   3.365  -6.062 -0.6804  0.0473 -0.1283
 1208PEP     CB44639   5.781   3.105  -6.210  0.0576 -0.1008 -0.2622
 1208PEP     CB44640   6.200   3.144  -6.186 -0.1456  0.1919 -0.1020
 1209PEP     CB44641   0.691  15.465   4.125 -0.0461  0.1941 -0.2480
 1209PEP     CB44642   0.877  15.269   4.478 -0.2923 -0.0521 -0.3500
 1209PEP     CB44643   0.788  15.092   4.946  0.0623  0.0231  0.0932
 1209PEP     CB44644   0.675  14.915   5.357 -0.1066  0.1046 -0.1223
 1209PEP     CB44645   0.490  14.569   5.561  0.2526 -0.4586  0.0007
 1209PEP     CB44646   0.048  14.440   5.396  0.3082  0.3735 -0.4026
 1209PEP     CB44647  -0.307  14.710   5.224 -0.0859  0.1383  0.0936
 1209PEP     CB44648  -0.619  15.002   5.280 -0.0620  0.2691 -0.0623
 1209PEP     CB44649  -1.128  15.038   5.270 -0.3067  0.2358  0.1957
 1209PEP     CB44650  -1.389  15.309   5.455 -0.1754  0.2769 -0.2433
 1209PEP     CB44651  -1.333  15.728   5.565  0.1108 -0.5729 -0.1894
 1209PEP     CB44652  -0.986  15.938   5.840 -0.3508  0.0815 -0.1428
 1209PEP     CB44653  -0.916  16.238   6.226  0.2694  0.0010  0.2379
 1209PEP     CB44654  -0.645  16.361   6.588 -0.0622 -0.0421 -0.0163
 1209PEP     CB44655  -0.190  16.110   6.767  0.0744 -0.3602  0.1481
 1209PEP     CB44656   0.143  15.843   7.017  0.4308 -0.3093  0.2191
 1209PEP     CB44657   0.141  15.651   7.423 -0.1086  0.1614 -0.4097
 1209PEP     CB44658   0.089  15.852   7.759  0.0324 -0.5059 -0.0410
 1209PEP     CB44659  -0.232  15.978   8.045 -0.0587 -0.0113  0.0508
 1209PEP     CB44660  -0.660  15.787   8.238 -0.0179  0.0335  0.2933
 1209PEP     CB44661  -0.898  15.559   8.629 -0.1422  0.0586 -0.0393
 1209PEP     CB44662  -0.829  15.348   9.072  0.0492  0.2230  0.3084
 1209PEP     CB44663  -0.359  15.218   9.194 -0.1497 -0.0986 -0.2660
 1209PEP     CB44664   0.067  15.069   9.085 -0.3282  0.3169 -0.1497
 1209PEP     CB44665   0.400  14.973   8.843  0.3849  0.0532  0.0561
 1209PEP     CB44666   0.665  14.688   8.637 -0.1478  0.1586  0.2177
 1209PEP     CB44667   0.783  14.349   8.540 -0.0996  0.3535  0.0690
 1209PEP     CB44668   1.029  14.046   8.307  0.0164 -0.0357  0.1042
 1209PEP     CB44669   1.271  13.916   7.977 -0.1095 -0.1200 -0.3219
 1209PEP     CB44670   1.642  14.179   7.834 -0.1940 -0.0542  0.1944
 1209PEP     CB44671   1.989  14.396   7.968  0.3683  0.3996 -0.2081
 1209PEP     CB44672   2.459  14.293   7.995 -0.0782  0.2871 -0.2887
 1209PEP     CB44673   2.819  14.107   8.131 -0.1130  0.0621  0.3141
 1209PEP     CB44674   2.993  13.701   8.391 -0.1785  0.3053 -0.2154
 1209PEP     CB44675   3.177  13.467   8.589 -0.1050  0.1751 -0.2153
 1209PEP     CB44676   3.601  13.266   8.810  0.3896 -0.0440  0.1338
 1209PEP     CB44677   3.979  13.108   9.048  0.0728  0.0368  0.1269
 1209PEP     CB44678   4.390  13.037   8.867  0.3431 -0.0387  0.1119
 1209PEP     CB44679   4.639  12.974   8.540 -0.2083  0.0358  0.1871
 1209PEP     CB44680   5.022  12.966   8.376  0.1466  0.1691  0.2894
 1210PEP     CB44681   5.061   9.302  17.743 -0.3398  0.0342  0.0480
 1210PEP     CB44682   5.039   9.323  17.250 -0.1151 -0.0584  0.2826
 1210PEP     CB44683   5.055   9.003  16.845 -0.0360  0.1369 -0.5330
 1210PEP     CB44684   5.200   8.859  16.504 -0.1046  0.0899  0.2975
 1210PEP     CB44685   5.160   8.567  16.145 -0.0206 -0.0283 -0.2803
 1210PEP     CB44686   5.541   8.171  16.227 -0.3343  0.4364 -0.0881
 1210PEP     CB44687   5.898   8.000  16.101  0.1892  0.1840 -0.2583
 1210PEP     CB44688   6.308   7.939  16.163 -0.3616 -0.1789 -0.2501
 1210PEP     CB44689   6.670   7.726  16.419 -0.2735 -0.2883 -0.2683
 1210PEP     CB44690   7.003   7.461  16.583  0.1662  0.1279 -0.1235
 1210PEP     CB44691   7.366   7.323  16.895  0.3816  0.1919  0.5785
 1210PEP     CB44692   7.726   7.310  16.883  0.1953  0.3126 -0.1932
 1210PEP     CB44693   8.287   7.247  16.968 -0.1716 -0.5100  0.0048
 1210PEP     CB44694   8.689   7.207  16.888 -0.2427  0.4085  0.2872
 1210PEP     CB44695   9.128   7.116  16.926  0.5220 -0.2008 -0.0907
 1210PEP     CB44696   9.667   7.040  16.980  0.3028 -0.0497 -0.1561
 1210PEP     CB44697   9.968   7.401  17.206  0.1162  0.2178  0.0563
 1210PEP     CB44698   9.783   7.728  17.325 -0.2067 -0.2420 -0.0748
 1210PEP     CB44699   9.445   7.945  17.200  0.1476 -0.0046 -0.2442
 1210PEP     CB44700   8.914   8.100  17.086  0.0147  0.2563  0.3701
 1210PEP     CB44701   8.778   8.427  17.016  0.0689  0.0631  0.3343
 1210PEP     CB44702   8.931   8.893  17.022  0.0091  0.2853 -0.0397
 1210PEP     CB44703   8.993   9.397  17.055  0.3473  0.3748  0.1364
 1210PEP     CB44704   8.983   9.881  17.064 -0.0652  0.1393 -0.0727
 1210PEP     CB44705   9.340  10.134  16.903  0.1679  0.0072  0.0061
 1210PEP     CB44706   9.669  10.057  16.858 -0.1112 -0.0478 -0.1317
 1210PEP     CB44707   9.946   9.759  16.648 -0.0551  0.3438  0.0333
 1210PEP     CB44708  10.139   9.678  16.319  0.1299 -0.1843 -0.4266
 1210PEP     CB44709  10.196   9.513  15.880 -0.2793 -0.3439 -0.1627
 1210PEP     CB44710  10.058   9.119  15.770 -0.1311  0.0289  0.6259
 1210PEP     CB44711   9.903   8.935  15.318  0.0435 -0.0731 -0.1337
 1210PEP     CB44712   9.613   9.198  15.040  0.2631 -0.2901 -0.0698
 1210PEP     CB44713   9.242   9.402  14.926 -0.3106  0.2058  0.0267
 1210PEP     CB44714   8.817   9.537  14.855 -0.0768  0.3665  0.1064
 1210PEP     CB44715   8.384   9.611  14.692 -0.2541  0.0559 -0.3027
 1210PEP     CB44716   8.130   9.785  14.374  0.3385 -0.2630 -0.0086
 1210PEP     CB44717   7.815   9.823  14.251  0.4594  0.0961  0.0650
 1210PEP     CB44718   7.394  10.006  14.129 -0.4707  0.2386 -0.3245
 1210PEP     CB44719   6.975  10.294  13.979  0.5018  0.3535 -0.1584
 1210PEP     CB44720   6.801  10.410  13.542 -0.2833 -0.1295  0.0260
 1211PEP     CB44721  19.427   9.842   3.416 -0.0251  0.3646 -0.5075
 1211PEP     CB44722  19.534   9.677   3.875  0.0080 -0.0964  0.2825
 1211PEP     CB44723  19.669   9.419   4.086 -0.0343 -0.2265 -0.0618
 1211PEP     CB44724  19.597   9.313   4.509  0.0138  0.1426  0.1117
 1211PEP     CB44725  19.543   9.503   4.852 -0.0190  0.5020  0.1709
 1211PEP     CB44726  19.552   9.951   5.143 -0.4147 -0.1345  0.0694
 1211PEP     CB44727  19.464  10.327   5.423  0.2456  0.3996  0.4199
 1211PEP     CB44728  19.459  10.658   5.888  0.2438 -0.1546 -0.1626
 1211PEP     CB44729  19.533  10.772   6.305  0.3114 -0.2892 -0.5219
 1211PEP     CB44730  19.795  11.035   6.571  0.2539  0.1182  0.0600
 1211PEP     CB44731  19.915  11.382   6.899 -0.1269 -0.1228  0.0293
 1211PEP     CB44732  19.931  11.400   7.319  0.1263 -0.1742  0.2287
 1211PEP     CB44733  20.153  11.645   7.637 -0.1312  0.1214  0.0113
 1211PEP     CB44734  20.287  11.962   7.966  0.0584  0.2532  0.3144
 1211PEP     CB44735  20.372  12.433   8.141  0.0393 -0.5490  0.2678
 1211PEP     CB44736  20.477  12.846   8.083 -0.0158 -0.0197 -0.3359
 1211PEP     CB44737  20.608  13.161   8.241 -0.2407 -0.0008 -0.0729
 1211PEP     CB44738  20.587  13.337   8.685  0.2253 -0.0742  0.1391
 1211PEP     CB44739  20.345  13.584   8.980  0.3609  0.0844 -0.1647
 1211PEP     CB44740  19.995  13.591   9.150 -0.1068  0.1434 -0.1790
 1211PEP     CB44741  19.569  13.421   9.073 -0.0940  0.0689  0.0148
 1211PEP     CB44742  19.325  13.107   8.889 -0.2408  0.2249 -0.1037
 1211PEP     CB44743  19.086  12.674   8.756 -0.4183 -0.3377 -0.0331
 1211PEP     CB44744  18.997  12.268   8.615 -0.3399  0.4971  0.1316
 1211PEP     CB44745  19.104  11.886   8.518  0.4214  0.4809 -0.2950
 1211PEP     CB44746  19.270  11.525   8.341 -0.2823  0.3304 -0.2799
 1211PEP     CB44747  19.194  11.354   7.885  0.0961 -0.3045 -0.1180
 1211PEP     CB44748  18.890  11.381   7.530  0.4743  0.2184 -0.0950
 1211PEP     CB44749  18.732  11.395   7.137 -0.0128  0.6432  0.0226
 1211PEP     CB44750  18.677  11.100   6.777 -0.2006  0.3976  0.3835
 1211PEP     CB44751  18.499  10.763   6.382 -0.0054 -0.0165  0.2031
 1211PEP     CB44752  18.228  10.415   6.302 -0.1072  0.1330 -0.2718
 1211PEP     CB44753  18.209  10.063   5.997 -0.1639  0.2463 -0.1647
 1211PEP     CB44754  18.005   9.753   5.847  0.1935 -0.0723  0.0644
 1211PEP     CB44755  17.699   9.543   5.914  0.0254 -0.2623  0.1161
 1211PEP     CB44756  17.385   9.209   6.080  0.2029  0.0989  0.0371
 1211PEP     CB44757  16.981   8.952   5.999  0.1597  0.0090  0.1035
 1211PEP     CB44758  16.511   8.855   6.022  0.1405 -0.0006  0.2079
 1211PEP     CB44759  16.073   8.798   5.939  0.1663 -0.4069 -0.1005
 1211PEP     CB44760  15.707   8.815   5.771 -0.1253  0.3802  0.1896
 1212PEP     CB44761  11.446  13.247   1.099 -0.1364  0.1082  0.1138
 1212PEP     CB44762  11.306  13.488   0.751  0.4404  0.1642 -0.2484
 1212PEP     CB44763  10.949  13.644   0.415 -0.0812  0.1349  0.4994
 1212PEP     CB44764  10.648  13.548   0.190  0.1343 -0.0972 -0.1992
 1212PEP     CB44765  10.330  13.757  -0.016 -0.0914 -0.1791  0.3359
 1212PEP     CB44766  10.017  13.642  -0.383  0.2366  0.1740  0.1950
 1212PEP     CB44767   9.720  13.496  -0.640  0.0844  0.1764  0.0597
 1212PEP     CB44768   9.379  13.781  -0.872  0.1682  0.0906  0.2831
 1212PEP     CB44769   9.008  13.996  -1.115 -0.0068  0.6397 -0.2909
 1212PEP     CB44770   8.549  14.049  -1.134  0.1429  0.0352  0.2367
 1212PEP     CB44771   8.132  14.023  -0.947  0.0994 -0.1487  0.0870
 1212PEP     CB44772   7.707  14.116  -1.020  0.1792 -0.0675  0.0058
 1212PEP     CB44773   7.431  14.172  -1.368 -0.1576  0.1536 -0.1740
 1212PEP     CB44774   7.417  14.383  -1.768 -0.0437 -0.1120 -0.2269
 1212PEP     CB44775   7.641  14.277  -2.185 -0.2277 -0.1001  0.0041
 1212PEP     CB44776   8.076  14.162  -2.208  0.4725  0.0773 -0.0288
 1212PEP     CB44777   8.413  14.226  -1.878  0.0007  0.0662 -0.1080
 1212PEP     CB44778   8.443  14.540  -1.628 -0.0454  0.1072  0.0513
 1212PEP     CB44779   8.598  14.996  -1.367 -0.0262 -0.7819 -0.2547
 1212PEP     CB44780   8.937  15.220  -1.137  0.0663  0.2896  0.2047
 1212PEP     CB44781   9.170  15.316  -0.722 -0.6461 -0.4155  0.2855
 1212PEP     CB44782   9.331  15.707  -0.660 -0.2010 -0.4059 -0.0024
 1212PEP     CB44783   9.420  16.176  -0.635 -0.3076 -0.0045 -0.1116
 1212PEP     CB44784   9.419  16.642  -0.680  0.0141 -0.2728  0.6976
 1212PEP     CB44785   9.517  17.000  -0.880  0.2677  0.2151 -0.3485
 1212PEP     CB44786   9.817  17.213  -1.175  0.3541 -0.0752 -0.2456
 1212PEP     CB44787  10.167  17.375  -1.356  0.3872 -0.1482  0.2686
 1212PEP     CB44788  10.670  17.317  -1.359  0.0452  0.2639  0.2067
 1212PEP     CB44789  11.102  17.549  -1.422 -0.1516 -0.1416  0.1036
 1212PEP     CB44790  11.396  17.861  -1.538 -0.0007  0.3206  0.0535
 1212PEP     CB44791  11.773  18.176  -1.673  0.0939  0.0122 -0.2495
 1212PEP     CB44792  12.212  18.261  -1.856 -0.3006 -0.3140 -0.3992
 1212PEP     CB44793  12.470  18.462  -2.110 -0.0152 -0.1582  0.0666
 1212PEP     CB44794  12.603  18.870  -2.106 -0.1549  0.3322 -0.2045
 1212PEP     CB44795  12.741  19.222  -2.147  0.0903  0.0270  0.0259
 1212PEP     CB44796  12.707  19.605  -2.431  0.1997 -0.3082  0.0571
 1212PEP     CB44797  12.447  19.767  -2.760  0.0695 -0.2340 -0.0322
 1212PEP     CB44798  12.100  19.565  -2.913 -0.1777  0.1149  0.2580
 1212PEP     CB44799  11.945  19.227  -2.721 -0.0938  0.0144  0.0849
 1212PEP     CB44800  11.740  18.854  -2.558 -0.5505 -0.0675  0.2546
 1213PEP     CB44801  10.051   1.817   3.920  0.1240  0.1066 -0.1484
 1213PEP     CB44802   9.666   1.778   4.184 -0.1634  0.3276  0.0827
 1213PEP     CB44803   9.301   1.957   4.169  0.0360  0.0713 -0.1303
 1213PEP     CB44804   8.900   1.898   4.198  0.0842  0.2503  0.1230
 1213PEP     CB44805   8.575   1.723   4.025  0.0391 -0.2681  0.0018
 1213PEP     CB44806   8.205   1.596   4.047  0.2990  0.0956 -0.2646
 1213PEP     CB44807   7.847   1.426   3.705  0.2056  0.0370  0.1001
 1213PEP     CB44808   7.687   1.507   3.298  0.0393  0.2426 -0.2643
 1213PEP     CB44809   7.934   1.592   2.887 -0.4364 -0.1656  0.0556
 1213PEP     CB44810   7.804   1.788   2.471 -0.0906  0.1163 -0.2609
 1213PEP     CB44811   7.619   1.922   2.104  0.0521 -0.1150 -0.3444
 1213PEP     CB44812   7.547   1.834   1.641  0.2265  0.1464 -0.3499
 1213PEP     CB44813   7.660   1.390   1.519  0.2566 -0.0027 -0.1346
 1213PEP     CB44814   8.043   1.198   1.513 -0.0432  0.0554  0.2270
 1213PEP     CB44815   8.420   1.183   1.710 -0.0976 -0.1201  0.0101
 1213PEP     CB44816   8.823   1.317   1.848 -0.0657  0.0396  0.0351
 1213PEP     CB44817   9.089   1.364   2.153 -0.2464  0.0809  0.0405
 1213PEP     CB44818   9.426   1.572   2.358  0.5219 -0.2133  0.0465
 1213PEP     CB44819   9.771   1.810   2.207  0.2287  0.0154  0.3851
 1213PEP     CB44820   9.911   2.144   1.910  0.0275  0.2347 -0.1064
 1213PEP     CB44821  10.233   2.266   1.667  0.1661  0.2777 -0.5244
 1213PEP     CB44822  10.683   2.216   1.541 -0.3923 -0.1827  0.2029
 1213PEP     CB44823  10.977   2.449   1.547 -0.2457 -0.0756  0.0644
 1213PEP     CB44824  10.930   2.887   1.338  0.2029 -0.1262  0.3141
 1213PEP     CB44825  10.753   3.169   1.101  0.2256  0.0088  0.0554
 1213PEP     CB44826  10.865   3.355   0.697 -0.2219  0.2542  0.2833
 1213PEP     CB44827  11.214   3.304   0.492  0.0450 -0.0681 -0.2823
 1213PEP     CB44828  11.725   3.243   0.559  0.2195  0.0982  0.2340
 1213PEP     CB44829  12.100   2.961   0.409  0.5208 -0.2939  0.4624
 1213PEP     CB44830  12.494   2.652   0.347 -0.4526 -0.0846 -0.0315
 1213PEP     CB44831  12.650   2.367   0.651  0.0188 -0.0426 -0.2364
 1213PEP     CB44832  12.867   2.564   0.959 -0.1625  0.1686 -0.2493
 1213PEP     CB44833  12.975   3.056   1.095  0.1772  0.2949 -0.1839
 1213PEP     CB44834  12.651   3.405   0.977  0.1925  0.2965  0.0273
 1213PEP     CB44835  12.302   3.359   0.717  0.1809  0.0852 -0.4618
 1213PEP     CB44836  12.054   3.582   0.399 -0.3108 -0.4728 -0.2525
 1213PEP     CB44837  11.945   3.768   0.070  0.2388 -0.3391 -0.1941
 1213PEP     CB44838  11.893   4.034  -0.223  0.2112 -0.3530  0.0597
 1213PEP     CB44839  12.184   4.284  -0.478 -0.1087 -0.0201  0.3416
 1213PEP     CB44840  12.424   4.389  -0.854  0.1319  0.0293 -0.0643
 1214PEP     CB44841  15.277   9.887  20.183 -0.0398 -0.0840 -0.1309
 1214PEP     CB44842  15.583   9.782  19.955 -0.1735 -0.1246  0.0213
 1214PEP     CB44843  15.656   9.440  19.674 -0.0550 -0.0875 -0.2022
 1214PEP     CB44844  15.447   9.064  19.662  0.2113  0.4949  0.0108
 1214PEP     CB44845  14.998   9.017  19.886 -0.1702  0.2313  0.0632
 1214PEP     CB44846  14.835   9.460  19.997  0.1083 -0.5712 -0.1259
 1214PEP     CB44847  14.941   9.767  19.746 -0.0324 -0.1305  0.1363
 1214PEP     CB44848  15.069   9.616  19.395 -0.2334 -0.0659  0.2010
 1214PEP     CB44849  15.435   9.546  19.187  0.1024 -0.0034 -0.2266
 1214PEP     CB44850  15.875   9.583  19.136  0.1395  0.0806 -0.0930
 1214PEP     CB44851  16.289   9.731  19.165  0.3147  0.1058 -0.2212
 1214PEP     CB44852  16.637   9.760  19.119  0.3344 -0.3268  0.3370
 1214PEP     CB44853  17.027   9.950  19.156 -0.0073  0.1751  0.3093
 1214PEP     CB44854  17.473   9.851  19.261 -0.2494  0.2695 -0.0174
 1214PEP     CB44855  17.837  10.005  19.099 -0.0491 -0.0749  0.3753
 1214PEP     CB44856  18.062   9.838  18.758  0.1929  0.3543  0.0737
 1214PEP     CB44857  18.313   9.533  18.578  0.2154 -0.1124 -0.0078
 1214PEP     CB44858  18.433   9.193  18.651  0.4907  0.2034  0.1431
 1214PEP     CB44859  18.560   8.848  18.808  0.0054  0.4393  0.1092
 1214PEP     CB44860  18.575   8.522  19.082 -0.4240 -0.0520  0.0642
 1214PEP     CB44861  18.542   8.413  19.469  0.0343 -0.0176  0.0961
 1214PEP     CB44862  18.301   8.584  19.788  0.0632 -0.0251 -0.2889
 1214PEP     CB44863  18.020   8.438  20.119 -0.0804 -0.0120 -0.1686
 1214PEP     CB44864  17.740   8.066  20.236  0.0114 -0.0040  0.0270
 1214PEP     CB44865  17.779   7.649  20.046 -0.2338  0.2053  0.2509
 1214PEP     CB44866  18.047   7.695  19.664 -0.1830 -0.2051  0.1589
 1214PEP     CB44867  18.159   8.149  19.595  0.0576 -0.0902  0.1952
 1214PEP     CB44868  17.804   8.450  19.608 -0.2253 -0.0064  0.3624
 1214PEP     CB44869  17.506   8.315  19.828 -0.0572  0.0123 -0.3076
 1214PEP     CB44870  17.365   7.993  20.023 -0.2379  0.0002 -0.5108
 1214PEP     CB44871  17.396   7.640  20.334  0.0255 -0.1788 -0.0937
 1214PEP     CB44872  17.357   7.675  20.805  0.1347  0.2888  0.1526
 1214PEP     CB44873  17.304   8.018  21.072 -0.2699 -0.3431 -0.0242
 1214PEP     CB44874  17.457   8.381  21.224 -0.2289  0.3816  0.2225
 1214PEP     CB44875  17.628   8.551  21.576 -0.2103 -0.0430 -0.1206
 1214PEP     CB44876  17.700   8.609  21.963  0.2185  0.0376 -0.3685
 1214PEP     CB44877  17.942   8.741  22.280  0.2105 -0.1501 -0.0664
 1214PEP     CB44878  17.992   8.658  22.787 -0.1971 -0.2693  0.3202
 1214PEP     CB44879  18.236   8.476  23.087 -0.3931 -0.3399 -0.1436
 1214PEP     CB44880  18.665   8.291  22.983  0.3189 -0.3268 -0.2183
 1215PEP     CB44881   0.244   4.770  15.551  0.4144  0.1353 -0.2640
 1215PEP     CB44882   0.543   4.751  15.980 -0.3060 -0.3381 -0.2694
 1215PEP     CB44883   0.877   4.421  16.184 -0.1597 -0.0857  0.0690
 1215PEP     CB44884   1.336   4.577  16.241  0.0167 -0.1995 -0.2932
 1215PEP     CB44885   1.419   4.961  16.432 -0.0643 -0.1410  0.0482
 1215PEP     CB44886   1.506   5.381  16.267  0.4727 -0.0874  0.2547
 1215PEP     CB44887   1.748   5.482  15.811  0.2695  0.1295 -0.2028
 1215PEP     CB44888   1.754   5.609  15.360 -0.1003  0.0161 -0.0407
 1215PEP     CB44889   1.934   5.815  14.977  0.0247 -0.0867  0.0219
 1215PEP     CB44890   1.791   6.284  14.737 -0.2414  0.0541  0.1128
 1215PEP     CB44891   1.782   6.668  14.887  0.0680  0.0940  0.2271
 1215PEP     CB44892   1.699   7.054  14.824  0.3080 -0.0149 -0.0356
 1215PEP     CB44893   1.658   7.455  14.691 -0.1138 -0.1167 -0.1467
 1215PEP     CB44894   1.805   7.937  14.565  0.1444  0.5222  0.0748
 1215PEP     CB44895   2.086   8.344  14.644 -0.0240 -0.0963  0.1459
 1215PEP     CB44896   2.016   8.613  14.338  0.1560 -0.0535 -0.2121
 1215PEP     CB44897   1.685   8.449  14.081 -0.1665  0.0718  0.2388
 1215PEP     CB44898   1.517   8.058  14.069 -0.0466 -0.1657 -0.4313
 1215PEP     CB44899   1.493   7.664  14.170  0.1954  0.1571 -0.0270
 1215PEP     CB44900   1.424   7.220  14.372  0.1628 -0.1535  0.1367
 1215PEP     CB44901   1.209   6.930  14.724  0.2043  0.0091  0.5275
 1215PEP     CB44902   1.211   6.563  15.002 -0.0138 -0.2019 -0.1449
 1215PEP     CB44903   0.868   6.429  15.386  0.0734  0.1755  0.4515
 1215PEP     CB44904   0.579   6.364  15.592  0.3278 -0.1052  0.0395
 1215PEP     CB44905   0.251   6.554  15.818 -0.2587 -0.0653 -0.1603
 1215PEP     CB44906   0.030   6.493  16.170 -0.1122  0.0842 -0.0592
 1215PEP     CB44907   0.184   6.366  16.632 -0.1091 -0.2346  0.3536
 1215PEP     CB44908   0.228   5.977  16.793 -0.1192 -0.3011  0.0023
 1215PEP     CB44909   0.091   5.658  16.521  0.1414 -0.4636 -0.1210
 1215PEP     CB44910  -0.076   5.635  16.068  0.0300 -0.3135 -0.0454
 1215PEP     CB44911  -0.075   6.006  15.774 -0.0979  0.2328 -0.0310
 1215PEP     CB44912  -0.349   6.336  15.720 -0.0344  0.0821 -0.2603
 1215PEP     CB44913  -0.738   6.607  15.749 -0.1934  0.0143 -0.2700
 1215PEP     CB44914  -0.837   7.008  15.661 -0.3263  0.0165  0.5407
 1215PEP     CB44915  -0.829   7.460  15.889 -0.1931  0.4510  0.1242
 1215PEP     CB44916  -0.949   7.803  16.040  0.0934  0.2340  0.2121
 1215PEP     CB44917  -1.027   8.123  16.192 -0.1870  0.1256 -0.1314
 1215PEP     CB44918  -1.121   8.446  16.477  0.0771 -0.2552 -0.1740
 1215PEP     CB44919  -0.930   8.669  16.743  0.1176  0.3202  0.1028
 1215PEP     CB44920  -0.847   8.924  17.196  0.0145 -0.2313 -0.1650
 1216PEP     CB44921   2.138   5.949  18.564  0.5973 -0.1950 -0.1260
 1216PEP     CB44922   2.367   5.857  18.869 -0.0024 -0.0024 -0.1003
 1216PEP     CB44923   2.808   5.709  19.055  0.5595 -0.5984 -0.0711
 1216PEP     CB44924   3.146   5.522  19.335 -0.1597 -0.1072  0.1942
 1216PEP     CB44925   3.231   5.497  19.803 -0.0648 -0.0325 -0.0475
 1216PEP     CB44926   3.035   5.653  20.139  0.1758  0.0962  0.4162
 1216PEP     CB44927   2.660   5.932  20.344  0.1747 -0.3684  0.0190
 1216PEP     CB44928   2.465   6.076  20.738 -0.4809  0.5010  0.2799
 1216PEP     CB44929   2.394   6.207  21.168 -0.0579 -0.2545 -0.1127
 1216PEP     CB44930   2.223   6.059  21.555 -0.4018 -0.1086 -0.1960
 1216PEP     CB44931   2.212   5.611  21.743 -0.1504 -0.3159  0.0886
 1216PEP     CB44932   1.777   5.401  21.798 -0.0594 -0.0897  0.3079
 1216PEP     CB44933   1.283   5.348  21.729 -0.0169  0.2774  0.0857
 1216PEP     CB44934   1.083   5.449  21.406 -0.1075 -0.1297  0.0430
 1216PEP     CB44935   1.131   5.557  20.997  0.2085  0.0890 -0.2477
 1216PEP     CB44936   1.369   5.445  20.673 -0.0240  0.1605  0.1110
 1216PEP     CB44937   1.483   5.214  20.339  0.0982  0.3308 -0.0350
 1216PEP     CB44938   1.496   4.870  20.051 -0.1932  0.0071 -0.1329
 1216PEP     CB44939   1.743   4.633  19.959  0.0898 -0.1591 -0.0928
 1216PEP     CB44940   2.189   4.632  19.849 -0.1015 -0.3598  0.0976
 1216PEP     CB44941   2.283   4.237  19.670 -0.3171  0.3868  0.2035
 1216PEP     CB44942   2.083   3.803  19.771  0.0679 -0.3612  0.0194
 1216PEP     CB44943   1.983   3.388  19.646  0.0380  0.0180  0.0440
 1216PEP     CB44944   2.064   3.049  19.400  0.0222 -0.1735  0.1714
 1216PEP     CB44945   2.375   2.847  18.981  0.1375  0.3687 -0.0793
 1216PEP     CB44946   2.816   2.823  18.858 -0.1531 -0.0336  0.0811
 1216PEP     CB44947   3.151   2.976  19.072 -0.3867 -0.1150 -0.1448
 1216PEP     CB44948   3.348   3.171  19.413  0.1265 -0.0914 -0.0516
 1216PEP     CB44949   3.451   3.579  19.498 -0.1465 -0.5343 -0.1733
 1216PEP     CB44950   3.374   4.058  19.368  0.1177  0.0327  0.2397
 1216PEP     CB44951   3.540   4.488  19.200  0.1545  0.0549  0.0496
 1216PEP     CB44952   3.929   4.630  19.103  0.1988  0.1359  0.3405
 1216PEP     CB44953   4.325   4.765  19.098 -0.2928 -0.4342 -0.1072
 1216PEP     CB44954   4.742   4.961  19.282  0.1931  0.3493 -0.3411
 1216PEP     CB44955   5.151   4.948  19.331  0.0705  0.2788 -0.2683
 1216PEP     CB44956   5.443   5.056  19.657  0.0760 -0.3233  0.1803
 1216PEP     CB44957   5.498   5.370  19.994  0.0163 -0.0122  0.2048
 1216PEP     CB44958   5.296   5.455  20.418  0.0960  0.2377 -0.1722
 1216PEP     CB44959   5.101   5.741  20.658 -0.1713  0.1485 -0.1591
 1216PEP     CB44960   4.830   6.140  20.737  0.0365  0.0944 -0.2078
 1217PEP     CB44961   4.676  11.941  20.084  0.0624 -0.1320 -0.1043
 1217PEP     CB44962   4.727  12.126  20.452  0.3448  0.3497  0.1451
 1217PEP     CB44963   4.573  12.179  20.781 -0.3754 -0.0861 -0.4426
 1217PEP     CB44964   4.201  11.928  21.016  0.3654  0.4644 -0.2544
 1217PEP     CB44965   3.826  11.728  20.794  0.1596  0.0077 -0.1100
 1217PEP     CB44966   3.508  12.003  20.623 -0.2896 -0.0209 -0.4697
 1217PEP     CB44967   3.258  12.237  20.829  0.1177  0.1438  0.3045
 1217PEP     CB44968   3.325  12.482  21.230  0.2341  0.6388 -0.1065
 1217PEP     CB44969   3.289  12.826  21.491  0.4583 -0.4028  0.2000
 1217PEP     CB44970   2.987  13.066  21.535  0.0572 -0.0780 -0.1254
 1217PEP     CB44971   2.582  13.014  21.705  0.1665  0.2190 -0.0445
 1217PEP     CB44972   2.159  12.957  21.618 -0.0066 -0.1489 -0.4499
 1217PEP     CB44973   1.910  12.980  21.279  0.2060 -0.2511 -0.0552
 1217PEP     CB44974   1.873  12.757  20.846 -0.0724  0.1005  0.4312
 1217PEP     CB44975   1.694  12.673  20.499 -0.0444 -0.1587 -0.0731
 1217PEP     CB44976   1.672  12.299  20.255 -0.0662 -0.1236  0.2363
 1217PEP     CB44977   1.927  11.986  20.328 -0.0398  0.3312 -0.1275
 1217PEP     CB44978   1.827  11.682  20.649  0.0170  0.2097 -0.1446
 1217PEP     CB44979   1.547  11.415  20.762  0.0840 -0.2351 -0.0870
 1217PEP     CB44980   1.352  11.098  20.940  0.3622  0.2734 -0.1404
 1217PEP     CB44981   1.167  10.844  21.243 -0.1434 -0.1113  0.1308
 1217PEP     CB44982   1.120  10.618  21.559  0.0763 -0.0504 -0.0521
 1217PEP     CB44983   1.326  10.306  21.854  0.2733 -0.1485  0.1094
 1217PEP     CB44984   1.571  10.138  22.141 -0.1087 -0.0215  0.0736
 1217PEP     CB44985   1.654  10.014  22.562  0.0539  0.0096 -0.1902
 1217PEP     CB44986   1.710   9.740  22.816  0.0085 -0.3046  0.1975
 1217PEP     CB44987   1.500   9.329  22.852  0.1586 -0.1025 -0.0836
 1217PEP     CB44988   1.136   9.338  22.983 -0.0209 -0.1332 -0.0859
 1217PEP     CB44989   0.779   9.428  22.827 -0.3060 -0.3382  0.1201
 1217PEP     CB44990   0.670   9.457  22.354  0.1440 -0.0293  0.2077
 1217PEP     CB44991   1.031   9.408  22.055 -0.2592 -0.1278  0.0378
 1217PEP     CB44992   1.341   9.103  21.870 -0.1037  0.1313  0.1176
 1217PEP     CB44993   1.676   8.811  21.827 -0.0675  0.1786 -0.1786
 1217PEP     CB44994   1.911   8.652  21.534  0.1428  0.4819 -0.3225
 1217PEP     CB44995   1.873   8.747  21.069  0.3048  0.0352  0.1037
 1217PEP     CB44996   1.690   8.999  20.731 -0.2478  0.1995  0.3975
 1217PEP     CB44997   1.320   8.965  20.646  0.1259 -0.1476  0.0916
 1217PEP     CB44998   0.917   9.123  20.818 -0.3948  0.0834  0.0447
 1217PEP     CB44999   0.938   9.439  21.110 -0.5027  0.1581 -0.1894
 1217PEP     CB45000   1.195   9.617  21.454  0.0199 -0.1222 -0.1140
 1218PEP     CB45001  21.658  12.864  19.784 -0.1982 -0.1189 -0.1723
 1218PEP     CB45002  21.642  13.320  19.707 -0.3176  0.1566  0.2121
 1218PEP     CB45003  21.460  13.705  19.827 -0.0824  0.0779  0.1087
 1218PEP     CB45004  21.346  13.910  20.143  0.2799 -0.1377  0.0045
 1218PEP     CB45005  21.353  13.931  20.503  0.0954 -0.1385 -0.0679
 1218PEP     CB45006  21.515  13.831  20.834 -0.1758 -0.1547  0.3010
 1218PEP     CB45007  21.467  13.700  21.254  0.0530  0.1535 -0.0046
 1218PEP     CB45008  21.790  13.822  21.586 -0.0332 -0.1177 -0.0359
 1218PEP     CB45009  22.071  14.166  21.811  0.0653 -0.3843  0.3704
 1218PEP     CB45010  21.983  14.590  22.019  0.0152  0.1019 -0.3315
 1218PEP     CB45011  21.659  14.911  21.934  0.3220 -0.2387  0.0113
 1218PEP     CB45012  21.502  15.279  21.996 -0.4209  0.5099  0.0767
 1218PEP     CB45013  21.354  15.631  21.798  0.0733 -0.0527  0.2022
 1218PEP     CB45014  21.382  16.042  21.727 -0.0134 -0.1110 -0.0514
 1218PEP     CB45015  21.150  16.471  21.842  0.1030  0.3549 -0.1410
 1218PEP     CB45016  21.362  16.794  21.956  0.1872  0.1960  0.2259
 1218PEP     CB45017  21.654  16.873  22.294  0.0712  0.0715  0.0018
 1218PEP     CB45018  21.860  17.119  22.489  0.3046 -0.0114 -0.4090
 1218PEP     CB45019  21.815  17.263  22.943  0.1695  0.0766 -0.3183
 1218PEP     CB45020  21.706  17.047  23.289  0.0223  0.0428 -0.0682
 1218PEP     CB45021  21.814  16.839  23.727  0.0409  0.2878  0.0018
 1218PEP     CB45022  21.728  16.441  23.963 -0.1585  0.0636 -0.1996
 1218PEP     CB45023  21.426  16.185  23.895 -0.3760  0.2852 -0.0841
 1218PEP     CB45024  21.318  15.788  23.738  0.0056 -0.1198 -0.0675
 1218PEP     CB45025  21.378  15.584  23.323  0.0543  0.1458 -0.1728
 1218PEP     CB45026  21.241  15.573  22.888 -0.2196 -0.3826 -0.2561
 1218PEP     CB45027  20.833  15.568  22.867  0.1628 -0.2400  0.1735
 1218PEP     CB45028  20.658  15.357  23.151 -0.1222  0.0787  0.1238
 1218PEP     CB45029  20.884  15.209  23.536 -0.2509 -0.1802 -0.0207
 1218PEP     CB45030  21.358  15.120  23.513  0.0184 -0.0882 -0.1323
 1218PEP     CB45031  21.600  14.816  23.255  0.1878  0.3878 -0.3393
 1218PEP     CB45032  21.427  14.614  22.897  0.1754  0.3143  0.0836
 1218PEP     CB45033  21.004  14.380  22.858 -0.0401  0.0769 -0.0976
 1218PEP     CB45034  20.648  14.640  22.892  0.0449  0.1109 -0.0683
 1218PEP     CB45035  20.317  14.900  22.778 -0.0255  0.1540 -0.2067
 1218PEP     CB45036  20.207  15.372  22.818  0.1841 -0.0134 -0.0225
 1218PEP     CB45037  20.360  15.793  22.863  0.0325 -0.2034 -0.3843
 1218PEP     CB45038  20.752  16.096  22.829  0.1057 -0.0063 -0.1436
 1218PEP     CB45039  21.000  16.559  22.839  0.1214 -0.5437  0.1121
 1218PEP     CB45040  21.187  16.978  22.820 -0.2746  0.1357 -0.1736
 1219PEP     CB45041  18.806  12.669  16.087  0.2862 -0.2004 -0.5162
 1219PEP     CB45042  19.126  12.670  16.332  0.2276 -0.5001 -0.2190
 1219PEP     CB45043  19.510  12.736  16.599 -0.0797  0.1507  0.0317
 1219PEP     CB45044  19.769  12.979  17.035 -0.3180  0.0410  0.0838
 1219PEP     CB45045  19.767  13.005  17.479 -0.2258  0.1048 -0.0994
 1219PEP     CB45046  19.854  13.015  17.934 -0.2821  0.1667  0.0744
 1219PEP     CB45047  19.879  13.176  18.409  0.0428 -0.1945  0.3496
 1219PEP     CB45048  19.857  13.243  18.842  0.2444  0.1100  0.0130
 1219PEP     CB45049  19.570  13.534  19.088  0.0994  0.3197 -0.0219
 1219PEP     CB45050  19.142  13.406  19.195 -0.0250 -0.2576 -0.1621
 1219PEP     CB45051  18.712  13.477  19.247 -0.1903  0.4941 -0.0168
 1219PEP     CB45052  18.389  13.729  19.037  0.1019  0.1718  0.1613
 1219PEP     CB45053  18.299  13.893  18.631 -0.3065 -0.0206 -0.2211
 1219PEP     CB45054  18.653  13.864  18.331 -0.0642  0.2265  0.0952
 1219PEP     CB45055  19.053  13.757  18.311  0.3189 -0.2042  0.1125
 1219PEP     CB45056  19.435  13.685  18.092  0.0117  0.2696 -0.1699
 1219PEP     CB45057  19.894  13.682  18.304  0.1179 -0.0304  0.1021
 1219PEP     CB45058  20.371  13.657  18.511 -0.0591 -0.2392  0.2773
 1219PEP     CB45059  20.616  13.361  18.720  0.3462 -0.0554  0.1109
 1219PEP     CB45060  20.793  13.034  18.752  0.1123  0.1132 -0.0856
 1219PEP     CB45061  20.981  12.777  18.409 -0.4510 -0.0457  0.0958
 1219PEP     CB45062  20.971  12.683  17.975  0.1417  0.2188  0.1682
 1219PEP     CB45063  21.053  12.853  17.458 -0.1483  0.0210 -0.0186
 1219PEP     CB45064  21.107  12.614  17.065 -0.0952  0.0835  0.3235
 1219PEP     CB45065  20.985  12.219  17.032  0.1548  0.0318  0.3072
 1219PEP     CB45066  20.817  11.862  17.247  0.0035 -0.1419  0.1138
 1219PEP     CB45067  20.622  11.632  17.600 -0.3092 -0.2248  0.0928
 1219PEP     CB45068  20.545  11.480  18.012  0.0462 -0.1503  0.1837
 1219PEP     CB45069  20.685  11.411  18.440  0.3034 -0.1849  0.2955
 1219PEP     CB45070  20.858  11.111  18.747  0.0424  0.3337 -0.0540
 1219PEP     CB45071  21.310  10.973  18.863  0.1884  0.4490  0.1440
 1219PEP     CB45072  21.631  11.174  18.646 -0.6282  0.1287 -0.2930
 1219PEP     CB45073  21.673  11.452  18.248  0.0182 -0.2166 -0.1168
 1219PEP     CB45074  21.361  11.532  17.862 -0.2749 -0.1884 -0.1912
 1219PEP     CB45075  21.032  11.360  17.717  0.1133  0.2191 -0.5302
 1219PEP     CB45076  21.101  10.911  17.534  0.3716  0.1232 -0.0150
 1219PEP     CB45077  21.152  10.435  17.445  0.0223  0.0417 -0.2494
 1219PEP     CB45078  21.227  10.113  17.542  0.2598 -0.0558  0.2088
 1219PEP     CB45079  21.579   9.720  17.467 -0.1165 -0.1760 -0.0530
 1219PEP     CB45080  21.847   9.424  17.301  0.2553 -0.2225  0.3398
 1220PEP     CB45081  12.202  13.330   2.736 -0.0628 -0.3270 -0.0386
 1220PEP     CB45082  11.817  13.231   2.454  0.1560  0.0816 -0.1768
 1220PEP     CB45083  11.452  13.271   2.175  0.1186  0.1268  0.3485
 1220PEP     CB45084  11.078  13.309   1.944  0.0341  0.1165 -0.1078
 1220PEP     CB45085  10.976  13.628   1.592  0.2214  0.1968  0.1201
 1220PEP     CB45086  10.657  13.950   1.464  0.2980 -0.1569 -0.0067
 1220PEP     CB45087  10.295  14.106   1.704  0.0501 -0.4087 -0.1779
 1220PEP     CB45088   9.946  14.118   1.947 -0.2613  0.1687 -0.1022
 1220PEP     CB45089   9.525  13.776   1.931 -0.3260  0.1773  0.0362
 1220PEP     CB45090   9.164  13.472   1.922 -0.4354 -0.0523 -0.0009
 1220PEP     CB45091   9.237  13.086   2.127  0.3205  0.0193  0.5062
 1220PEP     CB45092   9.314  12.975   2.534 -0.0660 -0.0063  0.1527
 1220PEP     CB45093   9.598  13.199   2.808  0.0408  0.0230 -0.2005
 1220PEP     CB45094   9.711  13.633   2.970  0.1453  0.1077  0.3586
 1220PEP     CB45095  10.016  13.812   3.246 -0.0029  0.1204 -0.3241
 1220PEP     CB45096  10.155  13.827   3.581  0.2286 -0.1912 -0.2797
 1220PEP     CB45097  10.089  13.977   4.014 -0.3730 -0.0351  0.2360
 1220PEP     CB45098  10.028  13.961   4.430 -0.2316  0.0588 -0.2578
 1220PEP     CB45099  10.145  13.884   4.872  0.0963 -0.2440 -0.1526
 1220PEP     CB45100  10.375  13.932   5.195 -0.0533 -0.0061 -0.3257
 1220PEP     CB45101  10.611  14.037   5.611 -0.0513 -0.3727  0.0994
 1220PEP     CB45102  10.823  13.963   6.026  0.0175  0.6384 -0.7589
 1220PEP     CB45103  10.904  13.878   6.470  0.1193 -0.4087 -0.1224
 1220PEP     CB45104  11.231  13.850   6.791 -0.2619  0.1013 -0.2161
 1220PEP     CB45105  11.428  14.069   7.063 -0.3066  0.5052 -0.0999
 1220PEP     CB45106  11.212  14.414   7.312  0.0117  0.0654  0.1811
 1220PEP     CB45107  10.903  14.676   7.033  0.1703 -0.2110 -0.3484
 1220PEP     CB45108  10.632  14.993   6.816 -0.1195 -0.2424  0.2097
 1220PEP     CB45109  10.365  15.298   6.816  0.1588  0.3193  0.2062
 1220PEP     CB45110  10.303  15.629   6.491 -0.0734 -0.1338  0.0710
 1220PEP     CB45111  10.583  15.849   6.245 -0.2007 -0.3314  0.1797
 1220PEP     CB45112  10.805  15.644   5.951 -0.1067 -0.1684 -0.2294
 1220PEP     CB45113  10.655  15.305   5.688  0.0451 -0.2393  0.0590
 1220PEP     CB45114  10.402  14.940   5.820  0.0913 -0.0108  0.1958
 1220PEP     CB45115  10.132  14.719   6.179 -0.0628 -0.4416  0.3051
 1220PEP     CB45116   9.992  14.844   6.508 -0.2880  0.0117  0.2901
 1220PEP     CB45117   9.900  15.259   6.601  0.3579  0.2182 -0.4085
 1220PEP     CB45118   9.539  15.451   6.467  0.0606 -0.3583 -0.0460
 1220PEP     CB45119   9.287  15.658   6.267  0.0730  0.1382 -0.1519
 1220PEP     CB45120   9.155  15.719   5.778 -0.1297  0.1047 -0.0951
 1221PEP     CB45121   3.077  11.225  11.869  0.0216 -0.2722 -0.3805
 1221PEP     CB45122   3.037  10.991  11.445 -0.3769  0.0970 -0.0640
 1221PEP     CB45123   2.859  11.173  11.058  0.1221 -0.0608  0.0445
 1221PEP     CB45124   2.814  11.542  10.884 -0.3319 -0.0193  0.0240
 1221PEP     CB45125   2.703  11.981  11.202 -0.0093  0.0994 -0.2803
 1221PEP     CB45126   2.580  11.850  11.707  0.0050 -0.0968 -0.1426
 1221PEP     CB45127   2.801  11.695  12.108  0.1249  0.0624 -0.2099
 1221PEP     CB45128   2.721  12.006  12.480  0.7676  0.1304 -0.1413
 1221PEP     CB45129   2.781  12.411  12.503 -0.0618  0.3897 -0.0876
 1221PEP     CB45130   3.046  12.739  12.414  0.0585  0.0707 -0.0147
 1221PEP     CB45131   3.478  13.012  12.544 -0.1614  0.1885 -0.0354
 1221PEP     CB45132   3.907  13.365  12.464 -0.3297  0.2850  0.2029
 1221PEP     CB45133   4.348  13.134  12.526 -0.1420 -0.1703  0.0998
 1221PEP     CB45134   4.370  12.670  12.530  0.1690  0.1487 -0.0628
 1221PEP     CB45135   4.337  12.403  12.877 -0.2099 -0.0689  0.0991
 1221PEP     CB45136   4.492  12.391  13.273  0.4843 -0.0619  0.1533
 1221PEP     CB45137   4.761  12.779  13.459 -0.2823  0.2717 -0.2423
 1221PEP     CB45138   4.971  13.121  13.276  0.0539 -0.2939  0.0909
 1221PEP     CB45139   4.735  13.366  12.958 -0.1223  0.0397  0.6689
 1221PEP     CB45140   4.264  13.421  12.970  0.3127 -0.2898 -0.3809
 1221PEP     CB45141   3.884  13.329  13.213  0.5918 -0.2721  0.0762
 1221PEP     CB45142   3.692  13.294  13.618  0.3427  0.1217 -0.1941
 1221PEP     CB45143   3.601  12.973  13.881 -0.0297 -0.0211 -0.0515
 1221PEP     CB45144   3.779  12.589  14.031 -0.0223  0.2079 -0.3591
 1221PEP     CB45145   3.995  12.261  14.287  0.1992  0.2165  0.3381
 1221PEP     CB45146   3.848  12.298  14.695 -0.2357 -0.0790 -0.0739
 1221PEP     CB45147   3.825  12.757  14.922 -0.1219 -0.1699 -0.1191
 1221PEP     CB45148   4.184  13.079  14.807  0.1920  0.1389 -0.0147
 1221PEP     CB45149   4.368  13.198  14.444  0.0618  0.1027  0.0801
 1221PEP     CB45150   4.799  13.306  14.218  0.0857 -0.1041  0.1004
 1221PEP     CB45151   5.217  13.427  14.066  0.0901 -0.2693 -0.0739
 1221PEP     CB45152   5.562  13.740  13.983 -0.5461 -0.0409  0.3279
 1221PEP     CB45153   6.023  13.859  14.090 -0.1298 -0.0996 -0.1020
 1221PEP     CB45154   6.330  14.054  13.801  0.2340 -0.0662  0.0238
 1221PEP     CB45155   6.253  14.023  13.359  0.0810  0.3839 -0.0290
 1221PEP     CB45156   5.881  13.888  13.049  0.1178 -0.0008 -0.2157
 1221PEP     CB45157   5.417  13.778  13.044  0.1164 -0.3388 -0.2628
 1221PEP     CB45158   5.179  13.588  13.383  0.0359  0.0655 -0.3762
 1221PEP     CB45159   5.067  13.831  13.666 -0.5584 -0.2371  0.0956
 1221PEP     CB45160   5.014  13.863  14.146 -0.2352  0.2324 -0.2336
 1222PEP     CB45161   4.683  20.059   0.290 -0.0699  0.2611 -0.0361
 1222PEP     CB45162   4.464  20.251   0.603  0.2505  0.1011  0.1087
 1222PEP     CB45163   4.292  20.450   1.022 -0.1780  0.1193  0.5448
 1222PEP     CB45164   4.236  20.806   1.249 -0.0708  0.2056  0.0959
 1222PEP     CB45165   4.557  21.140   1.386 -0.1167  0.0930  0.2660
 1222PEP     CB45166   4.943  20.955   1.570  0.0148 -0.0994 -0.0071
 1222PEP     CB45167   5.129  20.573   1.404 -0.0160 -0.2805  0.2203
 1222PEP     CB45168   5.228  20.110   1.170  0.3415  0.1955  0.0609
 1222PEP     CB45169   5.200  19.664   1.212  0.1697  0.0202 -0.2205
 1222PEP     CB45170   5.014  19.216   1.096  0.5134 -0.2015 -0.3387
 1222PEP     CB45171   4.923  19.044   0.803  0.0346 -0.1526  0.2133
 1222PEP     CB45172   5.006  18.822   0.428 -0.0663 -0.0809  0.2499
 1222PEP     CB45173   5.100  18.410   0.406 -0.0630  0.0277  0.2075
 1222PEP     CB45174   4.996  18.040   0.620  0.0940  0.0991 -0.0147
 1222PEP     CB45175   4.887  17.565   0.668  0.3095  0.0099 -0.0074
 1222PEP     CB45176   4.690  17.270   0.627 -0.2792 -0.3247  0.0706
 1222PEP     CB45177   4.374  16.999   0.810  0.0654 -0.0851  0.4531
 1222PEP     CB45178   4.441  16.794   1.227 -0.2103  0.0594  0.3090
 1222PEP     CB45179   4.749  16.830   1.602 -0.0714  0.2350  0.3496
 1222PEP     CB45180   5.078  17.186   1.696  0.0003 -0.1434  0.1154
 1222PEP     CB45181   5.272  17.491   1.418 -0.1240  0.1522  0.0556
 1222PEP     CB45182   5.238  17.525   1.030 -0.0411  0.0132  0.0319
 1222PEP     CB45183   5.287  17.178   0.797 -0.3978  0.1253 -0.0117
 1222PEP     CB45184   5.470  16.824   0.930  0.0312  0.2897 -0.3280
 1222PEP     CB45185   5.829  16.774   0.987 -0.1959  0.1015  0.0850
 1222PEP     CB45186   6.237  16.820   0.722 -0.1614 -0.2615  0.2394
 1222PEP     CB45187   6.166  17.029   0.376 -0.3133  0.1600  0.0998
 1222PEP     CB45188   5.933  17.424   0.181  0.0177  0.1282 -0.3261
 1222PEP     CB45189   5.786  17.802   0.282  0.1089 -0.1141 -0.1998
 1222PEP     CB45190   5.848  18.224   0.044 -0.1096  0.0326  0.2717
 1222PEP     CB45191   6.191  18.339  -0.268  0.3078  0.2828  0.4465
 1222PEP     CB45192   6.337  18.164  -0.624  0.1797 -0.2680  0.0899
 1222PEP     CB45193   6.217  18.040  -1.029  0.1603 -0.0996 -0.1022
 1222PEP     CB45194   5.984  17.824  -1.349 -0.1068  0.2802  0.2228
 1222PEP     CB45195   5.627  17.615  -1.505  0.1888 -0.3045  0.2439
 1222PEP     CB45196   5.231  17.485  -1.634  0.2141  0.1453  0.0130
 1222PEP     CB45197   4.949  17.744  -1.501  0.2498  0.3345 -0.1099
 1222PEP     CB45198   5.202  18.024  -1.158  0.0855 -0.2309  0.0654
 1222PEP     CB45199   5.645  18.096  -1.133  0.1961  0.1420 -0.1502
 1222PEP     CB45200   6.000  18.357  -1.296  0.0680  0.0464  0.2610
 1223PEP     CB45201   3.193  19.206   1.823  0.1336  0.1711  0.0611
 1223PEP     CB45202   3.609  19.460   1.870  0.0773 -0.3142 -0.5274
 1223PEP     CB45203   3.779  19.859   1.831  0.2841 -0.1482 -0.3833
 1223PEP     CB45204   3.827  20.237   1.619 -0.0256 -0.1509 -0.1376
 1223PEP     CB45205   3.834  20.360   1.168  0.5056  0.1840 -0.1086
 1223PEP     CB45206   3.908  20.576   0.750 -0.0743  0.3454 -0.0775
 1223PEP     CB45207   4.134  20.764   0.509  0.3423 -0.0210  0.0504
 1223PEP     CB45208   4.256  20.973   0.156  0.3753 -0.2045 -0.2150
 1223PEP     CB45209   4.312  21.174  -0.173  0.0021  0.3406 -0.1835
 1223PEP     CB45210   4.463  21.444  -0.519 -0.1125  0.2221  0.0761
 1223PEP     CB45211   4.335  21.687  -0.888  0.3384 -0.1642  0.0268
 1223PEP     CB45212   3.925  21.794  -1.076 -0.1218 -0.1137  0.2305
 1223PEP     CB45213   3.863  21.959  -1.510  0.0172  0.0063 -0.1327
 1223PEP     CB45214   4.174  22.219  -1.678 -0.2448  0.0758  0.0736
 1223PEP     CB45215   4.571  22.365  -1.594 -0.3986  0.2945 -0.2782
 1223PEP     CB45216   4.937  22.486  -1.757  0.1521 -0.1008 -0.0726
 1223PEP     CB45217   5.239  22.702  -1.977  0.0271  0.4532  0.1790
 1223PEP     CB45218   5.434  22.943  -2.357 -0.0017  0.0096 -0.0696
 1223PEP     CB45219   5.530  23.322  -2.565 -0.1367  0.1150 -0.2073
 1223PEP     CB45220   5.310  23.649  -2.809 -0.0279 -0.0978 -0.0667
 1223PEP     CB45221   5.139  23.674  -3.226 -0.0114  0.4379  0.3185
 1223PEP     CB45222   5.380  23.476  -3.597  0.3196 -0.0151  0.0190
 1223PEP     CB45223   5.853  23.405  -3.630 -0.0844 -0.4005 -0.0051
 1223PEP     CB45224   6.053  23.303  -3.269  0.6032 -0.1958 -0.1689
 1223PEP     CB45225   6.367  23.231  -2.968  0.1959 -0.2765  0.3492
 1223PEP     CB45226   6.764  23.491  -2.791  0.2004 -0.0451  0.0454
 1223PEP     CB45227   7.065  23.763  -2.953  0.0353 -0.0062 -0.3047
 1223PEP     CB45228   7.005  23.983  -3.226  0.0500 -0.1459 -0.1229
 1223PEP     CB45229   6.567  23.948  -3.509  0.2854  0.0979  0.1024
 1223PEP     CB45230   6.134  23.747  -3.374  0.0395 -0.2172  0.0222
 1223PEP     CB45231   6.036  23.596  -2.879  0.2816 -0.2164 -0.0365
 1223PEP     CB45232   5.955  23.712  -2.428  0.1913 -0.1309 -0.0566
 1223PEP     CB45233   5.675  23.667  -2.142  0.0049  0.4783 -0.1139
 1223PEP     CB45234   5.251  23.634  -1.877  0.2289 -0.1546  0.0317
 1223PEP     CB45235   5.095  23.455  -1.559  0.2455  0.3318  0.4236
 1223PEP     CB45236   4.786  23.222  -1.413  0.1959 -0.0416 -0.0773
 1223PEP     CB45237   4.859  22.735  -1.226  0.0744 -0.0440 -0.0138
 1223PEP     CB45238   5.293  22.605  -1.103  0.1910 -0.2069  0.1812
 1223PEP     CB45239   5.656  22.798  -1.245  0.2775  0.2005  0.1116
 1223PEP     CB45240   6.023  22.958  -1.362 -0.1388 -0.2206 -0.0195
 1224PEP     CB45241   9.235  18.896  20.488  0.2730 -0.0211  0.2272
 1224PEP     CB45242   9.637  19.127  20.523 -0.3155  0.0023  0.0109
 1224PEP     CB45243   9.920  19.469  20.741  0.1275  0.4476  0.1744
 1224PEP     CB45244   9.771  19.802  21.113 -0.6667  0.4560 -0.0630
 1224PEP     CB45245   9.480  19.698  21.383  0.0624  0.1425 -0.2582
 1224PEP     CB45246   9.117  19.491  21.359 -0.4474  0.3068 -0.1390
 1224PEP     CB45247   8.731  19.312  21.182  0.0698 -0.1949 -0.0899
 1224PEP     CB45248   8.476  18.855  20.987  0.0422 -0.4035  0.1009
 1224PEP     CB45249   8.442  18.605  20.603  0.0563  0.1865  0.2111
 1224PEP     CB45250   8.221  18.689  20.216 -0.0225  0.1573  0.1580
 1224PEP     CB45251   7.979  19.132  20.141  0.0352  0.3173  0.3952
 1224PEP     CB45252   7.940  19.453  20.535 -0.1121  0.0001 -0.3409
 1224PEP     CB45253   8.084  19.297  20.983  0.3512 -0.2639  0.5077
 1224PEP     CB45254   8.274  19.289  21.385  0.5354  0.0112  0.3127
 1224PEP     CB45255   8.530  19.015  21.518  0.1776 -0.1584  0.2615
 1224PEP     CB45256   8.484  18.613  21.565 -0.2837 -0.2203  0.0403
 1224PEP     CB45257   8.051  18.321  21.642  0.1719 -0.2122  0.0902
 1224PEP     CB45258   7.854  17.984  21.728 -0.3150  0.1135 -0.1071
 1224PEP     CB45259   7.699  17.904  22.129  0.0531 -0.1620 -0.0981
 1224PEP     CB45260   7.645  18.235  22.456  0.2719  0.2467  0.3576
 1224PEP     CB45261   7.998  18.493  22.560  0.2167 -0.3967  0.1533
 1224PEP     CB45262   8.342  18.424  22.371  0.0704 -0.0703 -0.2363
 1224PEP     CB45263   8.536  18.363  21.960 -0.0600 -0.0874 -0.0191
 1224PEP     CB45264   8.728  18.069  21.687 -0.2156 -0.0696 -0.0037
 1224PEP     CB45265   8.950  17.979  21.247 -0.2825  0.3724 -0.0962
 1224PEP     CB45266   8.966  17.773  20.909 -0.0513 -0.1190  0.0671
 1224PEP     CB45267   8.693  17.561  20.676 -0.0366  0.0996 -0.4472
 1224PEP     CB45268   8.429  17.748  20.367  0.3142 -0.2450 -0.1387
 1224PEP     CB45269   8.087  17.738  20.121  0.5259  0.3416 -0.0295
 1224PEP     CB45270   7.769  18.065  20.029 -0.2056  0.0905  0.0697
 1224PEP     CB45271   7.723  18.263  19.624 -0.1774  0.3618 -0.0701
 1224PEP     CB45272   7.677  18.092  19.212 -0.1200  0.0785  0.1967
 1224PEP     CB45273   7.514  18.247  18.830  0.1203  0.2220 -0.1568
 1224PEP     CB45274   7.104  18.301  18.857  0.1686 -0.0817  0.3844
 1224PEP     CB45275   7.089  18.248  19.313  0.0671 -0.0055 -0.1785
 1224PEP     CB45276   7.270  17.996  19.738 -0.2627 -0.4523 -0.1010
 1224PEP     CB45277   7.479  17.596  19.951  0.0136  0.0427 -0.1555
 1224PEP     CB45278   7.254  17.258  20.163 -0.4247  0.1290 -0.2532
 1224PEP     CB45279   7.099  16.885  20.131 -0.5125 -0.0579  0.0750
 1224PEP     CB45280   6.984  16.428  20.299 -0.2100 -0.3718  0.2042
 1225PEP     CB45281  10.508  10.933   5.908 -0.0958  0.2094 -0.1304
 1225PEP     CB45282  10.125  10.702   6.019 -0.0653  0.0892 -0.0381
 1225PEP     CB45283   9.767  10.568   6.263 -0.0534 -0.1243 -0.3473
 1225PEP     CB45284   9.302  10.507   6.252 -0.4596 -0.1515  0.5133
 1225PEP     CB45285   9.064  10.314   6.339 -0.1769 -0.5663 -0.0829
 1225PEP     CB45286   8.902   9.914   6.359  0.2569 -0.0725 -0.3213
 1225PEP     CB45287   9.078   9.575   6.599 -0.0347 -0.1536 -0.0331
 1225PEP     CB45288   9.425   9.258   6.707 -0.3061  0.2020 -0.0908
 1225PEP     CB45289   9.684   8.910   6.750 -0.2010  0.6395 -0.4256
 1225PEP     CB45290   9.950   8.600   7.022 -0.0691 -0.0959 -0.4731
 1225PEP     CB45291  10.242   8.220   6.925 -0.0091 -0.2105 -0.0061
 1225PEP     CB45292  10.193   7.783   7.040 -0.2844 -0.1886  0.0720
 1225PEP     CB45293   9.919   7.505   7.195  0.0705  0.0981  0.1558
 1225PEP     CB45294   9.738   7.465   7.559  0.2219 -0.0262  0.3720
 1225PEP     CB45295   9.363   7.243   7.758 -0.0635 -0.3541 -0.2409
 1225PEP     CB45296   8.929   7.315   7.920 -0.0897 -0.2965  0.2099
 1225PEP     CB45297   8.530   7.529   7.811  0.0342 -0.0426 -0.2777
 1225PEP     CB45298   8.143   7.695   7.635 -0.0809 -0.4665 -0.3715
 1225PEP     CB45299   7.679   7.679   7.557  0.0241  0.2057  0.0958
 1225PEP     CB45300   7.353   7.612   7.296  0.0095 -0.5599 -0.0146
 1225PEP     CB45301   7.187   7.427   6.882 -0.0962  0.1711 -0.0713
 1225PEP     CB45302   6.884   7.517   6.500  0.1465 -0.2168  0.1138
 1225PEP     CB45303   6.751   7.415   6.109  0.2342  0.3925 -0.5531
 1225PEP     CB45304   6.505   7.420   5.770 -0.4169 -0.4817  0.0677
 1225PEP     CB45305   6.050   7.515   5.639  0.1452 -0.4501  0.4182
 1225PEP     CB45306   5.806   7.788   5.477  0.3339  0.1559 -0.1494
 1225PEP     CB45307   5.349   7.887   5.328  0.1082 -0.2925  0.0090
 1225PEP     CB45308   5.004   8.012   5.627  0.0408  0.0234  0.1179
 1225PEP     CB45309   4.999   8.090   6.166 -0.0647  0.7831  0.2225
 1225PEP     CB45310   4.773   7.861   6.529  0.1880  0.2110  0.2117
 1225PEP     CB45311   4.463   7.570   6.383 -0.2353  0.2677  0.0203
 1225PEP     CB45312   4.262   7.476   5.921  0.0950 -0.0815 -0.2697
 1225PEP     CB45313   4.013   7.660   5.655  0.0384  0.3113 -0.4834
 1225PEP     CB45314   3.830   7.760   5.282 -0.0265  0.3006  0.0493
 1225PEP     CB45315   3.643   7.613   4.847  0.1295  0.3673 -0.3321
 1225PEP     CB45316   3.373   7.271   4.568  0.4120 -0.1774 -0.2297
 1225PEP     CB45317   3.010   7.267   4.486 -0.2891 -0.2154 -0.3695
 1225PEP     CB45318   2.608   7.262   4.230  0.1557 -0.0954 -0.0601
 1225PEP     CB45319   2.252   7.198   4.334 -0.1082 -0.1801  0.2778
 1225PEP     CB45320   2.171   6.889   4.713 -0.1329  0.0488 -0.0262
 1226PEP     CB45321   9.645  12.353   5.788 -0.1885 -0.0059  0.0425
 1226PEP     CB45322   9.758  12.803   5.861 -0.1143  0.0248  0.0465
 1226PEP     CB45323   9.744  13.161   6.053 -0.2561 -0.0146 -0.0465
 1226PEP     CB45324  10.088  13.412   6.182  0.0030 -0.1721 -0.0819
 1226PEP     CB45325  10.225  13.831   6.256 -0.2413 -0.4696  0.1375
 1226PEP     CB45326  10.408  14.218   6.436 -0.2624 -0.1214 -0.0288
 1226PEP     CB45327  10.594  14.664   6.505 -0.1063  0.1534 -0.0945
 1226PEP     CB45328  10.983  14.864   6.538 -0.2717  0.0232  0.0057
 1226PEP     CB45329  11.150  15.165   6.842 -0.3630  0.1317 -0.1339
 1226PEP     CB45330  10.881  15.403   7.039 -0.1583  0.3111  0.0000
 1226PEP     CB45331  10.635  15.717   6.939 -0.2068  0.0186  0.3814
 1226PEP     CB45332  10.638  16.081   6.733 -0.2025 -0.1896 -0.3439
 1226PEP     CB45333  10.730  16.292   6.321  0.0119 -0.0080  0.3622
 1226PEP     CB45334  10.658  16.679   6.181  0.1325  0.4100  0.0713
 1226PEP     CB45335  10.381  16.911   5.817 -0.2146 -0.3325  0.2871
 1226PEP     CB45336   9.955  16.875   5.822 -0.3401  0.2271 -0.2307
 1226PEP     CB45337   9.668  16.648   6.093  0.3061  0.1364 -0.2027
 1226PEP     CB45338   9.241  16.597   6.282 -0.0542 -0.2618 -0.0756
 1226PEP     CB45339   9.009  16.357   6.658  0.0629  0.3779 -0.1811
 1226PEP     CB45340   8.786  16.110   6.979  0.0124 -0.1017  0.2476
 1226PEP     CB45341   8.461  15.867   7.141 -0.3218 -0.1140 -0.0844
 1226PEP     CB45342   8.322  15.507   7.187 -0.4701  0.1469  0.1580
 1226PEP     CB45343   8.064  15.189   6.936  0.0669 -0.1603  0.2052
 1226PEP     CB45344   7.758  15.183   6.536 -0.2796  0.1576  0.2821
 1226PEP     CB45345   7.719  15.566   6.265  0.1266  0.0572  0.2314
 1226PEP     CB45346   7.960  16.006   6.252  0.3111  0.2019  0.2461
 1226PEP     CB45347   8.391  16.171   6.402  0.0558  0.2299  0.6279
 1226PEP     CB45348   8.504  16.524   6.553  0.1648  0.2448  0.0058
 1226PEP     CB45349   8.150  16.769   6.811  0.3818 -0.2198  0.3530
 1226PEP     CB45350   7.847  16.479   7.059 -0.0267  0.2263 -0.1038
 1226PEP     CB45351   7.692  16.018   6.982  0.0917  0.1390 -0.3159
 1226PEP     CB45352   7.668  15.667   7.298  0.1259  0.2528  0.0402
 1226PEP     CB45353   7.810  15.622   7.632 -0.1363 -0.0290  0.2088
 1226PEP     CB45354   8.229  15.300   7.764 -0.1011 -0.2056 -0.1134
 1226PEP     CB45355   8.677  15.386   7.681  0.0111 -0.0497  0.1273
 1226PEP     CB45356   8.771  15.363   7.248 -0.4160  0.5935  0.0777
 1226PEP     CB45357   8.546  15.210   6.861 -0.1531  0.5549 -0.0451
 1226PEP     CB45358   8.334  15.159   6.538  0.6376 -0.3442  0.3078
 1226PEP     CB45359   8.168  15.300   6.186 -0.2755  0.0109  0.1550
 1226PEP     CB45360   7.922  15.270   5.737 -0.1459  0.1890 -0.2116
 1227PEP     CB45361   3.087   1.374  14.418  0.2130 -0.0633  0.2843
 1227PEP     CB45362   3.435   1.707  14.280 -0.0491  0.3799 -0.0246
 1227PEP     CB45363   3.738   1.782  14.630 -0.0846 -0.2738  0.2090
 1227PEP     CB45364   3.795   1.596  15.021  0.3171  0.2507 -0.1365
 1227PEP     CB45365   3.853   1.482  15.411  0.2480 -0.2858 -0.0372
 1227PEP     CB45366   3.779   1.680  15.850 -0.0357 -0.3033  0.2641
 1227PEP     CB45367   3.373   1.677  15.965 -0.1327 -0.0962 -0.0475
 1227PEP     CB45368   3.136   1.312  15.840 -0.3911 -0.3318 -0.2050
 1227PEP     CB45369   3.394   1.066  15.503  0.0785 -0.1449  0.3995
 1227PEP     CB45370   3.793   1.042  15.525 -0.1221 -0.3343  0.0915
 1227PEP     CB45371   4.229   1.016  15.373  0.1897 -0.0445 -0.0497
 1227PEP     CB45372   4.411   0.704  15.089  0.0864 -0.0091  0.1514
 1227PEP     CB45373   4.203   0.540  14.705  0.5733 -0.0974 -0.0545
 1227PEP     CB45374   3.890   0.677  14.339 -0.1095 -0.2154  0.1525
 1227PEP     CB45375   3.801   1.119  14.091  0.0430  0.0848 -0.2868
 1227PEP     CB45376   4.002   1.471  14.068 -0.1148 -0.3328 -0.2394
 1227PEP     CB45377   3.997   1.831  14.202 -0.0725 -0.2020 -0.0112
 1227PEP     CB45378   3.817   2.119  14.017  0.0601  0.2622 -0.4646
 1227PEP     CB45379   3.921   2.457  13.780  0.1260  0.1982 -0.1607
 1227PEP     CB45380   4.147   2.876  13.633 -0.4892 -0.0324 -0.3684
 1227PEP     CB45381   4.025   3.262  13.565 -0.0763  0.0012  0.1307
 1227PEP     CB45382   3.615   3.547  13.710 -0.1841 -0.2035 -0.1787
 1227PEP     CB45383   3.275   3.908  13.604  0.1025  0.1364 -0.2192
 1227PEP     CB45384   3.189   4.231  13.684  0.2045  0.0967  0.1015
 1227PEP     CB45385   3.230   4.632  13.599  0.2242  0.0593  0.2000
 1227PEP     CB45386   3.456   5.020  13.649  0.5138  0.3234  0.2690
 1227PEP     CB45387   3.443   5.368  13.729  0.0693  0.1988 -0.0559
 1227PEP     CB45388   3.360   5.741  13.797 -0.0536 -0.1158 -0.2984
 1227PEP     CB45389   3.058   6.104  13.879 -0.2016  0.2628 -0.1876
 1227PEP     CB45390   2.861   6.580  13.923 -0.1495 -0.3655 -0.2619
 1227PEP     CB45391   2.628   6.907  14.030  0.2743  0.0029  0.0825
 1227PEP     CB45392   2.447   7.204  14.315 -0.2985  0.3589  0.0824
 1227PEP     CB45393   2.515   7.276  14.810 -0.2107 -0.1372 -0.0421
 1227PEP     CB45394   2.538   7.583  15.152  0.0090  0.0978  0.1272
 1227PEP     CB45395   2.593   7.822  15.605  0.2089  0.0119  0.1034
 1227PEP     CB45396   2.537   7.691  16.063 -0.0043 -0.1753 -0.0448
 1227PEP     CB45397   2.246   7.567  16.213 -0.0220 -0.0302  0.0655
 1227PEP     CB45398   1.889   7.341  16.105 -0.1584  0.0103  0.3277
 1227PEP     CB45399   1.879   6.906  15.895  0.0293  0.2815  0.2106
 1227PEP     CB45400   2.134   6.503  15.911 -0.3519 -0.0272 -0.1246
 1228PEP     CB45401   3.249   6.964  10.615 -0.1722 -0.1536 -0.0617
 1228PEP     CB45402   3.384   6.598  10.827  0.0146 -0.3134 -0.3128
 1228PEP     CB45403   3.701   6.342  10.662 -0.2059  0.1977  0.1119
 1228PEP     CB45404   4.074   6.435  10.363 -0.3843 -0.0383 -0.1263
 1228PEP     CB45405   4.319   6.392   9.909 -0.0328  0.0888  0.0381
 1228PEP     CB45406   4.408   6.172   9.559  0.1869 -0.3095  0.4571
 1228PEP     CB45407   4.557   5.800   9.373 -0.1020 -0.1835 -0.1756
 1228PEP     CB45408   4.558   5.603   8.975 -0.1559  0.0248 -0.1581
 1228PEP     CB45409   4.323   5.519   8.677 -0.1898 -0.0952  0.1632
 1228PEP     CB45410   3.905   5.550   8.420 -0.3447 -0.2578  0.5140
 1228PEP     CB45411   3.527   5.281   8.234 -0.0183  0.0965  0.6357
 1228PEP     CB45412   3.370   4.946   8.113  0.1574  0.0028  0.0242
 1228PEP     CB45413   3.309   4.568   8.076  0.0198 -0.0243 -0.1421
 1228PEP     CB45414   3.519   4.154   8.024 -0.1567 -0.0431  0.4666
 1228PEP     CB45415   3.587   3.746   8.094 -0.0192  0.1281 -0.2564
 1228PEP     CB45416   3.417   3.412   8.268  0.2481  0.0971 -0.1745
 1228PEP     CB45417   3.392   2.902   8.376 -0.0546 -0.0780 -0.1463
 1228PEP     CB45418   3.276   2.753   8.758  0.0028  0.1051  0.1299
 1228PEP     CB45419   3.411   2.806   9.199  0.3748  0.2275  0.0986
 1228PEP     CB45420   3.301   3.074   9.564 -0.1034  0.4691  0.0383
 1228PEP     CB45421   3.038   3.436   9.749 -0.1583  0.0194  0.1325
 1228PEP     CB45422   2.825   3.727   9.417  0.4962  0.1542  0.0262
 1228PEP     CB45423   2.882   4.147   9.124 -0.0545 -0.0462 -0.0165
 1228PEP     CB45424   2.871   4.177   8.675  0.0884  0.3396 -0.6658
 1228PEP     CB45425   2.994   3.898   8.332 -0.0974  0.2266 -0.0828
 1228PEP     CB45426   3.130   3.865   7.925  0.1385 -0.1499  0.2700
 1228PEP     CB45427   3.318   3.803   7.491 -0.0375  0.4791 -0.0889
 1228PEP     CB45428   3.416   3.483   7.150  0.3387  0.0808  0.1365
 1228PEP     CB45429   3.743   3.176   7.074 -0.0695  0.3373  0.1319
 1228PEP     CB45430   3.799   2.747   6.913 -0.4365 -0.1773  0.2898
 1228PEP     CB45431   3.592   2.470   6.852  0.1308 -0.1496  0.0931
 1228PEP     CB45432   3.375   2.179   6.729 -0.0535 -0.3047  0.1045
 1228PEP     CB45433   3.106   2.019   6.946 -0.2889 -0.0502  0.1108
 1228PEP     CB45434   3.152   1.787   7.301  0.1952  0.0372  0.0996
 1228PEP     CB45435   3.131   1.299   7.358  0.1497 -0.3041  0.4030
 1228PEP     CB45436   3.016   0.973   7.102 -0.1480  0.3837  0.1108
 1228PEP     CB45437   2.639   1.008   6.815 -0.0257 -0.0234  0.0994
 1228PEP     CB45438   2.483   1.362   6.856  0.3453  0.0804  0.1435
 1228PEP     CB45439   2.637   1.762   6.629 -0.0123 -0.0070 -0.2271
 1228PEP     CB45440   3.072   1.888   6.518 -0.1526  0.0821 -0.1070
 1229PEP     CB45441   5.586   1.832   3.743  0.0917 -0.2423 -0.0029
 1229PEP     CB45442   5.405   1.890   3.371  0.0867 -0.0047 -0.2110
 1229PEP     CB45443   5.282   2.125   3.082 -0.3974  0.1571  0.2505
 1229PEP     CB45444   5.130   2.105   2.652 -0.3661  0.0051 -0.4877
 1229PEP     CB45445   5.063   2.447   2.391  0.0193 -0.3277 -0.2738
 1229PEP     CB45446   4.869   2.832   2.510 -0.0671  0.0925  0.1092
 1229PEP     CB45447   4.945   3.114   2.781 -0.0823  0.4169 -0.0487
 1229PEP     CB45448   4.930   3.319   3.147  0.3147 -0.1672  0.2638
 1229PEP     CB45449   5.076   3.113   3.486  0.4898 -0.2770  0.1414
 1229PEP     CB45450   5.073   2.654   3.445 -0.3694  0.1887 -0.2018
 1229PEP     CB45451   4.840   2.233   3.238 -0.0811 -0.2640 -0.5982
 1229PEP     CB45452   4.808   1.904   3.126  0.0304 -0.1130 -0.2028
 1229PEP     CB45453   4.703   1.584   2.822  0.2626 -0.2196  0.0044
 1229PEP     CB45454   4.423   1.290   2.678 -0.2089 -0.0681  0.1749
 1229PEP     CB45455   4.246   0.975   2.313  0.2379  0.1846  0.3533
 1229PEP     CB45456   4.214   0.647   2.032  0.2733  0.0963 -0.5025
 1229PEP     CB45457   4.380   0.723   1.618 -0.3949 -0.1143  0.0799
 1229PEP     CB45458   4.756   1.018   1.490  0.1467  0.1704  0.2510
 1229PEP     CB45459   4.681   1.535   1.674  0.3263  0.0294 -0.4135
 1229PEP     CB45460   4.295   1.800   1.784 -0.6208  0.4807 -0.0623
 1229PEP     CB45461   3.838   1.904   1.801 -0.2052  0.0999  0.1757
 1229PEP     CB45462   3.478   1.741   1.636 -0.1897 -0.2040 -0.2887
 1229PEP     CB45463   3.178   1.392   1.641  0.0276 -0.1631  0.1860
 1229PEP     CB45464   2.870   1.294   1.264 -0.1008 -0.2445 -0.0284
 1229PEP     CB45465   2.523   1.175   0.927 -0.2960  0.2368 -0.3274
 1229PEP     CB45466   2.156   1.119   0.696  0.1985  0.1235 -0.0816
 1229PEP     CB45467   1.858   0.761   0.617 -0.0392  0.1595  0.0955
 1229PEP     CB45468   1.775   0.359   0.605 -0.4735  0.1862  0.1651
 1229PEP     CB45469   1.530  -0.048   0.505  0.3888 -0.2578 -0.1058
 1229PEP     CB45470   1.302  -0.196   0.192 -0.0551 -0.0754 -0.0532
 1229PEP     CB45471   1.174  -0.256  -0.262  0.0346 -0.0802  0.1050
 1229PEP     CB45472   0.978  -0.611  -0.335  0.1342 -0.2776 -0.0641
 1229PEP     CB45473   0.705  -0.903  -0.098 -0.1320 -0.1773 -0.0157
 1229PEP     CB45474   0.320  -1.065  -0.170  0.4112  0.1905  0.0782
 1229PEP     CB45475   0.194  -1.120  -0.581 -0.1482 -0.0162 -0.0313
 1229PEP     CB45476   0.575  -1.182  -0.862 -0.1097  0.2132  0.1702
 1229PEP     CB45477   0.697  -1.127  -1.348 -0.0508 -0.1560 -0.0191
 1229PEP     CB45478   0.737  -0.741  -1.537  0.0615  0.2106 -0.0431
 1229PEP     CB45479   0.716  -0.376  -1.662  0.0280  0.1550  0.1429
 1229PEP     CB45480   0.523   0.012  -1.833 -0.4296 -0.1218  0.0162
 1230PEP     CB45481  10.502  14.604   5.490  0.0452  0.5052  0.1948
 1230PEP     CB45482  10.129  14.640   5.314  0.2201 -0.1198 -0.1428
 1230PEP     CB45483   9.836  14.760   5.010 -0.1023  0.3443 -0.2241
 1230PEP     CB45484   9.545  14.990   4.716  0.2135  0.3268 -0.1899
 1230PEP     CB45485   9.229  14.888   4.450 -0.1715  0.1775 -0.4587
 1230PEP     CB45486   8.852  15.017   4.331 -0.1101  0.3882 -0.0875
 1230PEP     CB45487   8.656  14.923   3.929 -0.0934 -0.1171 -0.2158
 1230PEP     CB45488   8.821  14.873   3.441 -0.1064 -0.1023 -0.3156
 1230PEP     CB45489   8.896  14.841   3.030  0.1722 -0.1050  0.1103
 1230PEP     CB45490   9.177  14.930   2.709 -0.1909  0.2873  0.1093
 1230PEP     CB45491   9.437  14.791   2.447  0.1227 -0.1390 -0.1659
 1230PEP     CB45492   9.481  14.444   2.142  0.3367  0.1211 -0.2743
 1230PEP     CB45493   9.228  14.171   1.878 -0.2314 -0.5046  0.0320
 1230PEP     CB45494   8.939  13.864   1.802 -0.2975  0.3574  0.0828
 1230PEP     CB45495   8.548  13.605   1.671 -0.0039  0.0117  0.4217
 1230PEP     CB45496   8.125  13.527   1.777  0.0232 -0.1257 -0.1739
 1230PEP     CB45497   7.771  13.735   1.748  0.2429 -0.4101 -0.1744
 1230PEP     CB45498   7.669  14.111   2.000 -0.1230  0.2561 -0.0906
 1230PEP     CB45499   7.789  14.569   1.906  0.0508 -0.2312 -0.4432
 1230PEP     CB45500   8.048  14.775   1.595  0.0193  0.2430 -0.2589
 1230PEP     CB45501   8.410  14.915   1.469  0.1767  0.1706 -0.1938
 1230PEP     CB45502   8.716  15.171   1.589 -0.4686 -0.4243 -0.0818
 1230PEP     CB45503   9.118  15.427   1.752  0.0748 -0.1092 -0.2331
 1230PEP     CB45504   9.365  15.861   1.799 -0.4051  0.3607  0.0573
 1230PEP     CB45505   9.536  16.279   1.599  0.2284  0.0047  0.0467
 1230PEP     CB45506   9.631  16.742   1.381 -0.0507 -0.1562 -0.2937
 1230PEP     CB45507   9.599  17.136   1.546 -0.4498  0.2813 -0.1553
 1230PEP     CB45508   9.536  17.304   2.003 -0.0462 -0.2200 -0.2914
 1230PEP     CB45509   9.312  16.941   2.284  0.0000  0.3065 -0.0198
 1230PEP     CB45510   9.002  16.729   2.516 -0.3591 -0.2280  0.0534
 1230PEP     CB45511   8.809  16.363   2.583  0.3048 -0.1549  0.2147
 1230PEP     CB45512   8.597  16.034   2.684 -0.0951 -0.1349  0.0170
 1230PEP     CB45513   8.616  15.679   2.519  0.5782  0.2385  0.0665
 1230PEP     CB45514   8.345  15.312   2.298  0.0687  0.4064  0.1941
 1230PEP     CB45515   8.345  14.817   2.473 -0.2441 -0.3587 -0.1884
 1230PEP     CB45516   8.334  14.391   2.698 -0.1614  0.4099  0.0327
 1230PEP     CB45517   7.937  14.087   2.637  0.0273  0.0116 -0.0695
 1230PEP     CB45518   7.541  14.253   2.496 -0.2390 -0.1974 -0.1587
 1230PEP     CB45519   7.452  14.628   2.582  0.2020  0.1047  0.2670
 1230PEP     CB45520   7.329  14.980   2.439 -0.0228 -0.2351 -0.0123
 1231PEP     CB45521   5.373   9.212  14.842 -0.1521 -0.3033  0.0787
 1231PEP     CB45522   5.115   8.897  14.980  0.2444  0.4708 -0.2998
 1231PEP     CB45523   4.876   8.609  14.889 -0.3433  0.1001  0.3249
 1231PEP     CB45524   4.431   8.537  14.625  0.3170  0.0071 -0.0332
 1231PEP     CB45525   4.134   8.203  14.551 -0.1400  0.2511 -0.3302
 1231PEP     CB45526   4.156   7.839  14.387 -0.0739 -0.3250  0.1267
 1231PEP     CB45527   4.185   7.424  14.359  0.1732 -0.1151  0.1684
 1231PEP     CB45528   4.047   7.008  14.179 -0.2894 -0.2362  0.1427
 1231PEP     CB45529   3.874   6.616  14.207  0.2523 -0.1586 -0.0962
 1231PEP     CB45530   3.757   6.203  14.033  0.1077  0.0478 -0.0803
 1231PEP     CB45531   3.592   6.224  13.674 -0.0293  0.2074 -0.4146
 1231PEP     CB45532   3.392   6.458  13.152  0.1560  0.0542  0.0714
 1231PEP     CB45533   3.152   6.672  12.752 -0.5494  0.2935 -0.0347
 1231PEP     CB45534   2.785   6.707  12.454 -0.1309 -0.1892 -0.2330
 1231PEP     CB45535   2.665   6.568  11.991  0.6564 -0.3464 -0.2427
 1231PEP     CB45536   2.432   6.576  11.662 -0.2092  0.2143  0.2049
 1231PEP     CB45537   2.161   6.530  11.299 -0.0080  0.2365  0.2902
 1231PEP     CB45538   1.828   6.736  10.976 -0.1174  0.5445 -0.1567
 1231PEP     CB45539   1.463   6.698  10.773 -0.3373  0.1270 -0.2290
 1231PEP     CB45540   1.144   6.625  10.504  0.0178  0.1888 -0.1848
 1231PEP     CB45541   0.814   6.394  10.323  0.2216  0.3759  0.3297
 1231PEP     CB45542   0.386   6.345  10.348  0.0097 -0.1869  0.2145
 1231PEP     CB45543   0.004   6.537  10.218 -0.2973 -0.0869 -0.2963
 1231PEP     CB45544  -0.376   6.368  10.029  0.2716 -0.0268  0.0452
 1231PEP     CB45545  -0.792   6.088   9.948  0.3273  0.3180  0.6148
 1231PEP     CB45546  -1.096   5.840  10.169  0.1770  0.1153  0.1219
 1231PEP     CB45547  -1.404   5.644  10.434 -0.3080  0.0568  0.0323
 1231PEP     CB45548  -1.870   5.466  10.436  0.1507 -0.0751  0.0789
 1231PEP     CB45549  -2.080   5.032  10.259 -0.4225  0.0724 -0.1750
 1231PEP     CB45550  -2.064   4.653  10.075 -0.0502 -0.1077  0.1037
 1231PEP     CB45551  -2.132   4.276  10.221  0.2557 -0.1558  0.1043
 1231PEP     CB45552  -1.957   4.010  10.555  0.0568 -0.0347 -0.1307
 1231PEP     CB45553  -1.631   4.167  10.773  0.1656  0.0766  0.2780
 1231PEP     CB45554  -1.615   4.557  10.941 -0.1899 -0.4452  0.1904
 1231PEP     CB45555  -1.760   4.889  10.783  0.1984  0.3087  0.2178
 1231PEP     CB45556  -1.476   5.296  10.767 -0.1711  0.3660 -0.0475
 1231PEP     CB45557  -1.071   5.354  10.760  0.0227  0.3150  0.0378
 1231PEP     CB45558  -0.627   5.132  10.638 -0.1906  0.0691 -0.0654
 1231PEP     CB45559  -0.303   4.932  10.833 -0.0460 -0.2044  0.0123
 1231PEP     CB45560  -0.129   4.493  10.979 -0.4505  0.1844 -0.3430
 1232PEP     CB45561  14.753  19.196   7.123 -0.0322  0.4211 -0.1742
 1232PEP     CB45562  14.644  18.983   6.835 -0.1860 -0.0448  0.3504
 1232PEP     CB45563  14.686  18.577   6.729 -0.0730 -0.1765 -0.0981
 1232PEP     CB45564  15.004  18.362   6.443 -0.1455  0.3634 -0.1578
 1232PEP     CB45565  15.512  18.488   6.478 -0.2061  0.6533 -0.2871
 1232PEP     CB45566  15.680  18.723   6.758  0.1571  0.5598  0.0069
 1232PEP     CB45567  15.544  18.755   7.114  0.0088 -0.1702 -0.2281
 1232PEP     CB45568  15.512  18.393   7.460 -0.1005  0.1349  0.0238
 1232PEP     CB45569  15.295  18.028   7.363  0.0028  0.0880 -0.1254
 1232PEP     CB45570  15.304  17.833   6.912  0.4101  0.1616  0.3289
 1232PEP     CB45571  15.614  17.928   6.547 -0.2065 -0.0560 -0.4072
 1232PEP     CB45572  15.967  18.268   6.409 -0.2099 -0.3652 -0.2743
 1232PEP     CB45573  16.142  18.596   6.658  0.2164 -0.2250 -0.1315
 1232PEP     CB45574  16.487  18.653   6.886  0.3034 -0.1874  0.1744
 1232PEP     CB45575  16.912  18.555   7.076 -0.0363 -0.2715  0.0659
 1232PEP     CB45576  17.259  18.382   7.351 -0.0096  0.0116 -0.1731
 1232PEP     CB45577  17.491  18.290   7.772  0.1498 -0.0510 -0.1283
 1232PEP     CB45578  17.723  18.023   8.114 -0.1752  0.2669  0.3884
 1232PEP     CB45579  18.010  17.720   8.405  0.3997  0.0794  0.0460
 1232PEP     CB45580  18.478  17.735   8.499  0.0258 -0.0733  0.0520
 1232PEP     CB45581  18.764  17.658   8.125 -0.2485 -0.0887 -0.1097
 1232PEP     CB45582  18.886  17.538   7.637  0.4607  0.1677 -0.0159
 1232PEP     CB45583  19.227  17.596   7.377 -0.1097 -0.2572  0.1760
 1232PEP     CB45584  19.521  17.308   7.297  0.2653  0.4330 -0.0931
 1232PEP     CB45585  19.871  17.151   7.363  0.3694 -0.2027 -0.4266
 1232PEP     CB45586  20.273  17.017   7.609 -0.3583  0.1605  0.1023
 1232PEP     CB45587  20.726  16.798   7.663  0.1345  0.0650  0.2038
 1232PEP     CB45588  21.133  16.642   7.890  0.1331  0.0512  0.0855
 1232PEP     CB45589  21.365  16.604   8.188  0.1539 -0.3440 -0.2711
 1232PEP     CB45590  21.296  16.828   8.613 -0.0032 -0.1805  0.1360
 1232PEP     CB45591  20.871  17.112   8.584  0.2555 -0.0924  0.1138
 1232PEP     CB45592  20.582  17.252   8.323  0.2320  0.2300 -0.0937
 1232PEP     CB45593  20.297  17.326   7.980  0.0715  0.4155  0.0207
 1232PEP     CB45594  20.192  17.504   7.592  0.0043  0.0385  0.2327
 1232PEP     CB45595  20.341  17.874   7.388  0.3203 -0.1717 -0.3290
 1232PEP     CB45596  20.594  18.119   7.305 -0.3388  0.1380 -0.1947
 1232PEP     CB45597  21.023  18.282   7.361  0.0906  0.0737 -0.1626
 1232PEP     CB45598  21.399  18.471   7.633  0.0317 -0.4078 -0.0199
 1232PEP     CB45599  21.763  18.675   7.813 -0.1880 -0.2025 -0.0917
 1232PEP     CB45600  22.049  18.959   7.648  0.2007 -0.3790 -0.0126
 1233PEP     CB45601  16.039  17.707  12.477  0.1920  0.1617 -0.0110
 1233PEP     CB45602  16.125  17.244  12.344 -0.2344  0.0177  0.1108
 1233PEP     CB45603  16.254  16.835  12.424 -0.0465 -0.0494  0.1375
 1233PEP     CB45604  16.097  16.356  12.396  0.0636 -0.3592  0.4501
 1233PEP     CB45605  16.215  15.980  12.583  0.0103  0.0144  0.0687
 1233PEP     CB45606  16.397  15.594  12.746  0.5173  0.0807 -0.0404
 1233PEP     CB45607  16.710  15.606  13.078 -0.1299 -0.0909  0.0634
 1233PEP     CB45608  16.818  15.886  13.404 -0.3856  0.3526  0.0275
 1233PEP     CB45609  17.027  16.171  13.595  0.2433  0.1789 -0.0427
 1233PEP     CB45610  17.317  16.242  13.865  0.1423 -0.3637 -0.3349
 1233PEP     CB45611  17.310  16.485  14.221  0.0890  0.4020  0.3412
 1233PEP     CB45612  17.317  16.944  14.417  0.1790 -0.3798 -0.5745
 1233PEP     CB45613  17.203  17.375  14.491 -0.4322 -0.2669 -0.1287
 1233PEP     CB45614  16.867  17.521  14.683  0.1649 -0.1655 -0.2448
 1233PEP     CB45615  16.738  17.370  15.156  0.4497  0.0537 -0.2284
 1233PEP     CB45616  16.556  17.218  15.658  0.0516 -0.4248 -0.0483
 1233PEP     CB45617  16.766  17.146  16.051 -0.3261  0.0218  0.0008
 1233PEP     CB45618  16.842  16.754  16.241 -0.1160  0.1508  0.0466
 1233PEP     CB45619  16.824  16.420  16.462  0.0728 -0.0534 -0.1453
 1233PEP     CB45620  17.085  16.089  16.541 -0.3310  0.0210 -0.4023
 1233PEP     CB45621  17.451  15.906  16.672 -0.2134 -0.1367  0.6790
 1233PEP     CB45622  17.792  15.838  16.920  0.4265  0.5457 -0.2815
 1233PEP     CB45623  18.020  15.578  17.269 -0.1259 -0.1866 -0.0929
 1233PEP     CB45624  18.058  15.672  17.679 -0.0100 -0.0789 -0.1131
 1233PEP     CB45625  17.764  15.822  18.031  0.1476  0.2295 -0.1754
 1233PEP     CB45626  17.559  15.920  18.370 -0.1500 -0.2650 -0.2919
 1233PEP     CB45627  17.244  15.800  18.709  0.1836 -0.0846 -0.1000
 1233PEP     CB45628  17.079  15.567  19.160  0.1235  0.1004  0.4271
 1233PEP     CB45629  17.143  15.129  19.433  0.1376  0.1093  0.1620
 1233PEP     CB45630  17.611  15.134  19.662 -0.1749  0.0604  0.4754
 1233PEP     CB45631  17.946  15.412  19.533 -0.1383  0.2453 -0.0049
 1233PEP     CB45632  18.038  15.820  19.318  0.6112 -0.0377  0.0908
 1233PEP     CB45633  18.422  15.885  19.044 -0.0338 -0.4086  0.0060
 1233PEP     CB45634  18.944  15.828  18.795  0.5525 -0.2416  0.2861
 1233PEP     CB45635  19.190  15.938  18.645  0.3195 -0.1894  0.0914
 1233PEP     CB45636  19.577  15.955  18.492 -0.0036  0.0208 -0.1148
 1233PEP     CB45637  19.791  16.105  18.095  0.2971 -0.1410 -0.4823
 1233PEP     CB45638  19.871  16.450  17.880 -0.0058 -0.1238 -0.0724
 1233PEP     CB45639  19.908  16.836  17.744 -0.3528  0.1497 -0.1326
 1233PEP     CB45640  19.882  17.285  17.790  0.0686  0.2006  0.0281
 1234PEP     CB45641   3.815  21.972  10.566 -0.1359 -0.1876  0.0051
 1234PEP     CB45642   3.998  21.737  10.936  0.0112 -0.2831  0.0688
 1234PEP     CB45643   3.889  21.646  11.354  0.0110  0.4326 -0.1837
 1234PEP     CB45644   3.718  21.841  11.702 -0.1908  0.1154  0.1244
 1234PEP     CB45645   3.393  22.189  11.730  0.2402  0.3079 -0.1927
 1234PEP     CB45646   3.038  22.491  11.964 -0.0300 -0.1743 -0.0220
 1234PEP     CB45647   2.640  22.662  11.894  0.1415 -0.0514 -0.1937
 1234PEP     CB45648   2.319  22.973  11.775 -0.0471  0.1057  0.2269
 1234PEP     CB45649   1.960  23.199  11.752 -0.1182  0.3184 -0.0577
 1234PEP     CB45650   1.505  23.201  11.694  0.0920  0.3912  0.0060
 1234PEP     CB45651   1.118  23.205  11.727  0.3248  0.0302  0.2669
 1234PEP     CB45652   0.792  23.005  12.057 -0.1417 -0.5005  0.1310
 1234PEP     CB45653   0.386  23.028  12.209 -0.0440  0.3416  0.1956
 1234PEP     CB45654   0.010  23.029  11.955 -0.3765  0.1633 -0.1058
 1234PEP     CB45655  -0.062  22.893  11.509 -0.0627  0.0420  0.1709
 1234PEP     CB45656   0.259  22.971  11.171 -0.0847  0.1371 -0.0526
 1234PEP     CB45657   0.673  23.265  11.136  0.2254 -0.0236  0.1101
 1234PEP     CB45658   0.955  23.528  11.146  0.0068 -0.1736  0.1152
 1234PEP     CB45659   1.419  23.514  10.950  0.2016  0.3469  0.0387
 1234PEP     CB45660   1.567  23.385  10.526 -0.1238  0.1041  0.0929
 1234PEP     CB45661   1.948  23.097  10.369 -0.2601  0.1427  0.4622
 1234PEP     CB45662   2.352  22.902  10.137  0.3921 -0.5217  0.0682
 1234PEP     CB45663   2.531  22.768   9.726  0.2894 -0.2080  0.0988
 1234PEP     CB45664   2.844  22.859   9.357 -0.0331 -0.1823  0.0248
 1234PEP     CB45665   3.017  23.169   8.993  0.1412 -0.0362 -0.0012
 1234PEP     CB45666   3.283  23.540   8.720  0.0773  0.0068 -0.0937
 1234PEP     CB45667   3.514  23.801   8.389  0.0822  0.3681 -0.0340
 1234PEP     CB45668   3.836  24.065   8.139  0.1590 -0.1658  0.4677
 1234PEP     CB45669   4.165  24.306   8.043  0.3568  0.2225 -0.3641
 1234PEP     CB45670   4.603  24.314   7.881 -0.1658  0.1669  0.0639
 1234PEP     CB45671   5.003  24.344   7.767 -0.1377 -0.1670 -0.0990
 1234PEP     CB45672   5.400  24.537   7.863  0.4230 -0.1890 -0.2267
 1234PEP     CB45673   5.718  24.728   8.083  0.3426  0.1261  0.0211
 1234PEP     CB45674   5.997  24.874   8.396  0.1507  0.4386  0.0796
 1234PEP     CB45675   6.381  24.697   8.473  0.1924 -0.4178  0.2776
 1234PEP     CB45676   6.648  24.348   8.470 -0.0696  0.1320  0.2075
 1234PEP     CB45677   7.122  24.322   8.586 -0.2393  0.1291  0.0244
 1234PEP     CB45678   7.395  24.260   9.000  0.0029  0.2347  0.0813
 1234PEP     CB45679   7.528  23.863   9.278  0.1884  0.0864 -0.1627
 1234PEP     CB45680   7.784  23.512   9.114  0.2862 -0.1124 -0.5412
 1235PEP     CB45681  21.660  19.068   8.079  0.3859  0.1530 -0.2633
 1235PEP     CB45682  21.466  19.086   8.369 -0.2400  0.5780 -0.0787
 1235PEP     CB45683  21.213  19.246   8.728 -0.2105 -0.1293  0.0102
 1235PEP     CB45684  20.787  19.156   8.885 -0.2560  0.0314 -0.1692
 1235PEP     CB45685  20.633  19.134   9.249  0.0223 -0.0820  0.3712
 1235PEP     CB45686  20.561  19.347   9.583  0.1889  0.0954  0.0824
 1235PEP     CB45687  20.621  19.374  10.024  0.1493 -0.4235  0.2191
 1235PEP     CB45688  20.460  19.150  10.491  0.0430 -0.2034 -0.0579
 1235PEP     CB45689  20.267  18.955  10.820 -0.0759 -0.1184 -0.1942
 1235PEP     CB45690  20.095  18.819  11.201 -0.1370 -0.0300 -0.3018
 1235PEP     CB45691  19.683  18.729  11.393 -0.2515 -0.1760 -0.0109
 1235PEP     CB45692  19.279  18.953  11.571  0.4224  0.2204 -0.1985
 1235PEP     CB45693  19.149  19.275  11.778 -0.1264 -0.0036 -0.1638
 1235PEP     CB45694  19.292  19.549  12.083 -0.0671 -0.1072  0.1236
 1235PEP     CB45695  19.571  19.867  12.041 -0.0837  0.3687 -0.2469
 1235PEP     CB45696  19.680  20.272  12.136  0.1810  0.1313  0.0363
 1235PEP     CB45697  19.784  20.624  12.338  0.4188 -0.0015 -0.1124
 1235PEP     CB45698  20.203  20.773  12.413 -0.2705 -0.0133  0.1134
 1235PEP     CB45699  20.574  20.761  12.606 -0.0752  0.1460  0.1915
 1235PEP     CB45700  20.814  20.865  12.967  0.0651  0.2600  0.1384
 1235PEP     CB45701  21.016  21.124  13.229 -0.2662  0.0166 -0.1795
 1235PEP     CB45702  21.230  21.214  13.613 -0.2003  0.0017 -0.2855
 1235PEP     CB45703  21.284  21.159  14.070  0.1508  0.1750 -0.0689
 1235PEP     CB45704  21.470  21.319  14.429  0.1566  0.0351 -0.0762
 1235PEP     CB45705  21.827  21.520  14.536  0.2814 -0.0139  0.2591
 1235PEP     CB45706  22.119  21.648  14.219  0.4999  0.1681 -0.0684
 1235PEP     CB45707  22.000  21.699  13.729  0.3745 -0.1424 -0.0352
 1235PEP     CB45708  21.615  21.827  13.597  0.2706  0.4146  0.1848
 1235PEP     CB45709  21.307  22.068  13.386 -0.1959  0.0780  0.2853
 1235PEP     CB45710  21.324  22.532  13.462 -0.0803 -0.1052  0.2412
 1235PEP     CB45711  21.676  22.741  13.641  0.1185  0.2492 -0.0344
 1235PEP     CB45712  21.768  22.783  14.147  0.1806  0.0453 -0.0627
 1235PEP     CB45713  21.658  22.480  14.440 -0.1788 -0.2206  0.6423
 1235PEP     CB45714  21.515  22.034  14.278  0.3610  0.1669  0.2480
 1235PEP     CB45715  21.576  21.658  14.051  0.2399 -0.2837 -0.0547
 1235PEP     CB45716  21.890  21.336  13.970  0.3117  0.2824  0.6641
 1235PEP     CB45717  22.146  21.021  14.106 -0.0572  0.1952 -0.5736
 1235PEP     CB45718  22.600  21.090  14.270  0.2538  0.3467  0.1530
 1235PEP     CB45719  22.647  21.061  14.695 -0.0551 -0.1694 -0.3973
 1235PEP     CB45720  22.668  20.863  15.079 -0.1626 -0.1300 -0.2010
 1236PEP     CB45721  19.349  15.383   3.232  0.1429  0.2576  0.1531
 1236PEP     CB45722  18.883  15.205   3.224 -0.0187  0.0898 -0.0902
 1236PEP     CB45723  18.460  15.044   3.340 -0.1592 -0.0054  0.2898
 1236PEP     CB45724  18.147  15.003   3.658 -0.2614  0.3274  0.1145
 1236PEP     CB45725  17.887  14.855   4.011  0.1515 -0.1964  0.0541
 1236PEP     CB45726  17.557  14.580   4.057  0.2648  0.6338 -0.0352
 1236PEP     CB45727  17.295  14.562   3.715 -0.0955 -0.2120 -0.0320
 1236PEP     CB45728  17.251  14.975   3.569 -0.1410  0.1043  0.3057
 1236PEP     CB45729  17.168  15.361   3.393 -0.1931  0.2644  0.0053
 1236PEP     CB45730  17.036  15.800   3.705  0.3705 -0.1558  0.1169
 1236PEP     CB45731  16.864  15.792   4.049  0.0319  0.1006 -0.1773
 1236PEP     CB45732  16.549  15.472   4.075 -0.0063 -0.0654  0.1033
 1236PEP     CB45733  16.637  15.009   4.085  0.1945  0.0855 -0.1223
 1236PEP     CB45734  17.088  14.834   4.059 -0.2730 -0.2224  0.4463
 1236PEP     CB45735  17.473  15.126   4.074 -0.2087  0.0514 -0.5817
 1236PEP     CB45736  17.651  15.291   3.759 -0.1521  0.2629 -0.0151
 1236PEP     CB45737  17.651  15.540   3.533 -0.0618  0.4306  0.2948
 1236PEP     CB45738  17.333  15.833   3.227 -0.1822 -0.2019 -0.1415
 1236PEP     CB45739  16.967  15.704   3.051 -0.0375 -0.1028 -0.0176
 1236PEP     CB45740  16.590  15.567   3.277  0.3326 -0.1254 -0.0952
 1236PEP     CB45741  16.231  15.638   3.226  0.0351 -0.0646  0.2185
 1236PEP     CB45742  15.810  15.562   2.969  0.5638 -0.0385 -0.0005
 1236PEP     CB45743  15.612  15.444   2.580 -0.1041 -0.1533 -0.2836
 1236PEP     CB45744  15.772  15.081   2.270  0.1367  0.0164  0.2429
 1236PEP     CB45745  16.138  15.020   2.146  0.0660  0.0384  0.1768
 1236PEP     CB45746  16.630  14.877   2.229 -0.6519 -0.0188  0.0612
 1236PEP     CB45747  17.129  14.807   2.191  0.0311 -0.1751  0.0665
 1236PEP     CB45748  17.565  15.013   2.091  0.2877 -0.1515  0.0752
 1236PEP     CB45749  17.861  14.981   1.713 -0.1856 -0.6495 -0.2598
 1236PEP     CB45750  17.995  14.851   1.304  0.1673 -0.3533  0.1362
 1236PEP     CB45751  17.953  14.530   0.961 -0.1136 -0.1527 -0.1473
 1236PEP     CB45752  18.079  14.397   0.505 -0.1371  0.3956 -0.3920
 1236PEP     CB45753  18.002  14.428   0.088  0.0190  0.3344  0.4405
 1236PEP     CB45754  17.794  14.546  -0.221 -0.2030  0.1718 -0.8800
 1236PEP     CB45755  17.544  14.776  -0.297 -0.1542 -0.0633  0.0859
 1236PEP     CB45756  17.216  15.112  -0.200 -0.2030  0.3209 -0.0167
 1236PEP     CB45757  17.054  15.543   0.086  0.0028 -0.0015 -0.0602
 1236PEP     CB45758  17.293  15.907   0.385  0.1733 -0.1155  0.1989
 1236PEP     CB45759  17.674  15.888   0.557 -0.1083  0.0373 -0.2160
 1236PEP     CB45760  18.057  15.589   0.668 -0.0978  0.0934 -0.1085
 1237PEP     CB45761   1.198  19.751  10.342 -0.1498  0.1956  0.3439
 1237PEP     CB45762   0.945  19.877  10.684  0.4772 -0.0847  0.2660
 1237PEP     CB45763   0.733  20.028  10.899  0.0100  0.1416  0.1396
 1237PEP     CB45764   0.421  20.195  11.074  0.1015  0.4065 -0.0654
 1237PEP     CB45765   0.034  20.463  10.915  0.0207 -0.1231 -0.2858
 1237PEP     CB45766  -0.072  20.576  10.485 -0.2945 -0.4055  0.3856
 1237PEP     CB45767  -0.048  20.270  10.177  0.1662 -0.3271  0.3047
 1237PEP     CB45768   0.261  20.034  10.110 -0.1459  0.3475 -0.0910
 1237PEP     CB45769   0.505  19.743  10.316 -0.1214  0.2209  0.0597
 1237PEP     CB45770   0.650  19.472  10.412 -0.2006  0.1639 -0.2358
 1237PEP     CB45771   0.908  19.153  10.389  0.0202 -0.2041 -0.2605
 1237PEP     CB45772   1.081  18.807  10.094 -0.0272  0.3749  0.0914
 1237PEP     CB45773   0.958  18.692   9.664  0.0534 -0.1994 -0.1767
 1237PEP     CB45774   0.660  18.994   9.415 -0.2908  0.1179  0.0680
 1237PEP     CB45775   0.847  19.362   9.459  0.0609 -0.0327 -0.0241
 1237PEP     CB45776   1.285  19.387   9.446  0.1210 -0.0227 -0.1140
 1237PEP     CB45777   1.562  19.529   9.089 -0.0311  0.0788  0.3207
 1237PEP     CB45778   1.772  19.748   8.733  0.0475 -0.1636 -0.4854
 1237PEP     CB45779   1.686  20.070   8.400  0.0399 -0.1118  0.1242
 1237PEP     CB45780   1.378  20.383   8.302  0.4055 -0.5017 -0.2398
 1237PEP     CB45781   1.096  20.449   8.527 -0.0305 -0.2798  0.1032
 1237PEP     CB45782   1.090  20.349   9.034 -0.3151  0.0183 -0.0134
 1237PEP     CB45783   1.253  20.279   9.466 -0.3822 -0.1043 -0.1552
 1237PEP     CB45784   1.104  20.156   9.976 -0.1287 -0.1033 -0.4461
 1237PEP     CB45785   0.815  20.153  10.209 -0.0236  0.2111 -0.1695
 1237PEP     CB45786   0.396  20.469  10.210 -0.1801  0.1121 -0.1061
 1237PEP     CB45787   0.269  20.930  10.428  0.0316 -0.3540 -0.0906
 1237PEP     CB45788   0.167  20.988  10.826 -0.3141 -0.0380 -0.0974
 1237PEP     CB45789   0.298  20.818  11.230 -0.3373 -0.1053  0.0571
 1237PEP     CB45790   0.529  20.564  11.357  0.0498 -0.2238 -0.0053
 1237PEP     CB45791   0.715  20.304  11.661 -0.1193  0.3073  0.2575
 1237PEP     CB45792   0.641  20.010  11.935  0.1355  0.3585 -0.0890
 1237PEP     CB45793   0.405  19.806  12.359  0.1303 -0.1886 -0.2883
 1237PEP     CB45794  -0.015  19.571  12.563  0.4435 -0.0129 -0.0439
 1237PEP     CB45795  -0.350  19.812  12.791 -0.1942  0.4275  0.2765
 1237PEP     CB45796  -0.449  20.240  12.772 -0.0029  0.0407 -0.1040
 1237PEP     CB45797  -0.296  20.650  12.851  0.1116 -0.0841  0.2613
 1237PEP     CB45798  -0.029  20.880  13.129 -0.1269  0.1389 -0.1043
 1237PEP     CB45799   0.046  21.359  13.167  0.0639 -0.0180 -0.6696
 1237PEP     CB45800  -0.139  21.812  13.175  0.4011  0.0286 -0.2801
 1238PEP     CB45801  17.742  20.012  19.087  0.1753 -0.3241 -0.1923
 1238PEP     CB45802  17.610  19.817  18.849 -0.1625 -0.1041  0.1893
 1238PEP     CB45803  17.630  19.649  18.473  0.4211  0.1049 -0.0536
 1238PEP     CB45804  17.641  19.244  18.369 -0.0127  0.5051 -0.1979
 1238PEP     CB45805  17.786  18.885  18.392  0.2148 -0.3461 -0.1910
 1238PEP     CB45806  18.019  18.583  18.501  0.0352 -0.0571  0.3225
 1238PEP     CB45807  18.185  18.235  18.659 -0.1874 -0.0791  0.1345
 1238PEP     CB45808  18.055  17.926  19.040  0.3408  0.0227  0.4428
 1238PEP     CB45809  17.685  17.854  19.149  0.0343 -0.1222 -0.5260
 1238PEP     CB45810  17.434  18.142  19.318 -0.1913 -0.2065  0.1923
 1238PEP     CB45811  17.440  18.561  19.527 -0.0503 -0.2473 -0.0299
 1238PEP     CB45812  17.398  18.955  19.775 -0.4921  0.0983  0.3025
 1238PEP     CB45813  17.822  19.096  19.939  0.1148 -0.3502 -0.2899
 1238PEP     CB45814  18.245  18.930  19.834  0.2744  0.3351 -0.4838
 1238PEP     CB45815  18.273  18.492  19.866  0.6317  0.3676  0.4298
 1238PEP     CB45816  18.176  18.046  20.071 -0.0847  0.0830 -0.0187
 1238PEP     CB45817  18.173  17.635  20.029 -0.0917  0.4710  0.0402
 1238PEP     CB45818  18.342  17.265  19.950  0.5324  0.7070  0.3665
 1238PEP     CB45819  18.610  16.870  19.838  0.3130 -0.0927 -0.4517
 1238PEP     CB45820  18.557  16.350  19.883 -0.0124  0.0964 -0.1682
 1238PEP     CB45821  18.460  16.074  20.210 -0.2490  0.3009 -0.0373
 1238PEP     CB45822  18.415  15.658  20.335 -0.1419  0.0113 -0.5547
 1238PEP     CB45823  18.504  15.266  20.123 -0.3060 -0.1462  0.4872
 1238PEP     CB45824  18.392  15.251  19.723 -0.0087  0.0820 -0.1731
 1238PEP     CB45825  18.589  15.508  19.378  0.0849 -0.0107  0.3886
 1238PEP     CB45826  18.966  15.747  19.331  0.2161 -0.0383  0.1009
 1238PEP     CB45827  19.398  15.717  19.291 -0.3523  0.4372 -0.0462
 1238PEP     CB45828  19.671  15.351  19.292  0.0633 -0.2348 -0.0822
 1238PEP     CB45829  19.344  14.956  19.325  0.0135 -0.0051  0.2286
 1238PEP     CB45830  18.973  15.069  19.210  0.3267  0.0567 -0.2210
 1238PEP     CB45831  18.546  15.143  19.123 -0.1984  0.4434  0.0090
 1238PEP     CB45832  18.184  15.404  19.037 -0.0545 -0.1933  0.1783
 1238PEP     CB45833  18.172  15.734  18.641  0.1502  0.1791  0.4722
 1238PEP     CB45834  18.491  15.752  18.303 -0.0322  0.0903  0.0954
 1238PEP     CB45835  18.898  15.820  18.240 -0.3437 -0.0822 -0.2514
 1238PEP     CB45836  19.238  15.950  17.892  0.3210 -0.1291  0.1981
 1238PEP     CB45837  19.450  16.264  17.668 -0.1927 -0.1913 -0.2531
 1238PEP     CB45838  19.396  16.637  17.511 -0.0492 -0.0766 -0.2577
 1238PEP     CB45839  19.022  16.838  17.151  0.3809 -0.1970 -0.1031
 1238PEP     CB45840  18.787  16.951  16.781 -0.3237  0.4289 -0.0901
 1239PEP     CB45841  21.735  10.620  18.145 -0.3313  0.1010 -0.0988
 1239PEP     CB45842  22.070  10.959  18.276 -0.1784  0.1927 -0.2300
 1239PEP     CB45843  22.435  11.290  18.406 -0.2647  0.0647 -0.0137
 1239PEP     CB45844  22.523  11.708  18.730  0.1838  0.0433  0.0580
 1239PEP     CB45845  22.199  12.064  18.902  0.0697  0.1476  0.0810
 1239PEP     CB45846  21.795  12.202  18.841  0.0419 -0.2801  0.1942
 1239PEP     CB45847  21.629  12.358  18.446 -0.0136  0.3034  0.3531
 1239PEP     CB45848  21.452  12.755  18.317 -0.0113  0.0378 -0.1911
 1239PEP     CB45849  21.732  13.077  18.116  0.1817  0.4076 -0.3757
 1239PEP     CB45850  22.121  13.223  18.051 -0.0342 -0.0054  0.2009
 1239PEP     CB45851  22.465  13.147  18.242  0.0426  0.2000  0.1983
 1239PEP     CB45852  22.618  12.800  18.453  0.0366 -0.1951 -0.0927
 1239PEP     CB45853  22.423  12.310  18.460 -0.4261 -0.0663 -0.3904
 1239PEP     CB45854  22.042  12.253  18.225 -0.0156  0.3010 -0.1176
 1239PEP     CB45855  21.703  12.421  17.909  0.0234  0.0514  0.2438
 1239PEP     CB45856  21.495  12.798  17.765 -0.3319 -0.1626 -0.1120
 1239PEP     CB45857  21.209  13.154  17.927  0.1001 -0.0605 -0.0773
 1239PEP     CB45858  21.158  13.567  18.098 -0.1603  0.0204 -0.0890
 1239PEP     CB45859  21.362  13.987  18.044 -0.1024  0.0650  0.3054
 1239PEP     CB45860  21.693  14.230  17.992 -0.0908  0.0244 -0.2856
 1239PEP     CB45861  22.104  14.415  17.838  0.3568 -0.1546 -0.2302
 1239PEP     CB45862  22.581  14.384  17.798  0.1500 -0.0288 -0.2259
 1239PEP     CB45863  22.980  14.544  18.034 -0.0653 -0.1581  0.3205
 1239PEP     CB45864  23.183  14.911  18.310  0.1864  0.2456 -0.1502
 1239PEP     CB45865  23.134  15.306  18.398 -0.5580  0.3110 -0.3836
 1239PEP     CB45866  22.831  15.637  18.265  0.0660 -0.0471 -0.5725
 1239PEP     CB45867  22.633  15.615  17.850  0.0266 -0.1501  0.0727
 1239PEP     CB45868  22.276  15.484  17.649 -0.4732  0.0209 -0.4582
 1239PEP     CB45869  22.127  15.131  17.431 -0.0552 -0.0320 -0.2282
 1239PEP     CB45870  22.246  14.891  17.085  0.1343 -0.0997  0.2135
 1239PEP     CB45871  22.363  14.610  16.895 -0.1620  0.0063  0.0211
 1239PEP     CB45872  22.471  14.130  16.761  0.0133  0.0533  0.2024
 1239PEP     CB45873  22.471  13.690  16.790 -0.3543  0.1290  0.0956
 1239PEP     CB45874  22.540  13.535  17.155 -0.1458 -0.5370 -0.0143
 1239PEP     CB45875  22.547  13.370  17.484 -0.0086 -0.1694  0.0951
 1239PEP     CB45876  22.441  13.007  17.778  0.1748 -0.0964 -0.1081
 1239PEP     CB45877  22.108  12.735  17.938  0.2047  0.5307  0.1568
 1239PEP     CB45878  21.995  12.766  18.429  0.2795 -0.0138  0.1490
 1239PEP     CB45879  21.886  12.770  18.900 -0.0146  0.0247 -0.1209
 1239PEP     CB45880  21.653  12.695  19.234 -0.1269  0.4391 -0.5159
 1240PEP     CB45881  21.773   5.443  11.038  0.1443  0.1093 -0.1080
 1240PEP     CB45882  21.863   5.490  10.637 -0.2459  0.3107  0.0963
 1240PEP     CB45883  21.987   5.150  10.452 -0.0326  0.0480 -0.2420
 1240PEP     CB45884  21.707   4.800  10.298 -0.5424 -0.2535  0.0449
 1240PEP     CB45885  21.296   4.616  10.530  0.3528 -0.1976  0.0727
 1240PEP     CB45886  21.104   4.713  10.852 -0.1659  0.0585 -0.3777
 1240PEP     CB45887  20.765   4.973  11.051 -0.0671  0.0627 -0.4102
 1240PEP     CB45888  20.441   5.188  11.318 -0.3762  0.3227 -0.1930
 1240PEP     CB45889  20.146   5.503  11.507  0.0438  0.2395  0.0256
 1240PEP     CB45890  19.783   5.671  11.696 -0.2176 -0.3241  0.3982
 1240PEP     CB45891  19.418   5.588  12.095  0.2902  0.2932 -0.0758
 1240PEP     CB45892  19.024   5.628  12.396 -0.0381  0.0011  0.2390
 1240PEP     CB45893  18.628   5.734  12.383 -0.1431  0.4732 -0.2896
 1240PEP     CB45894  18.244   5.939  12.198  0.2208  0.1849 -0.0594
 1240PEP     CB45895  17.811   6.161  12.257 -0.0291 -0.1256 -0.0834
 1240PEP     CB45896  17.434   6.361  12.301 -0.1845 -0.0404  0.6101
 1240PEP     CB45897  16.988   6.306  12.224  0.0615 -0.1523 -0.4197
 1240PEP     CB45898  16.695   5.998  12.333 -0.3506 -0.1729 -0.0128
 1240PEP     CB45899  16.831   5.560  12.587  0.0190 -0.0646 -0.0626
 1240PEP     CB45900  17.173   5.338  12.706  0.0372 -0.1501  0.0626
 1240PEP     CB45901  17.579   5.487  12.647  0.4067  0.4972 -0.2791
 1240PEP     CB45902  17.808   5.937  12.767 -0.0427 -0.1234  0.0739
 1240PEP     CB45903  17.912   6.424  12.845  0.1818 -0.0490 -0.1029
 1240PEP     CB45904  18.057   6.668  13.174 -0.1407  0.1107 -0.1786
 1240PEP     CB45905  18.280   6.566  13.588  0.1095  0.0890 -0.0748
 1240PEP     CB45906  18.277   6.296  13.997  0.0347 -0.3709  0.0702
 1240PEP     CB45907  18.493   5.919  14.105 -0.0844 -0.0645  0.3084
 1240PEP     CB45908  18.582   5.532  14.025  0.1828 -0.0971  0.1573
 1240PEP     CB45909  18.835   5.269  14.017  0.1366 -0.1298  0.7028
 1240PEP     CB45910  19.197   5.163  13.717 -0.0182  0.0759 -0.0277
 1240PEP     CB45911  19.621   5.090  13.699 -0.2559  0.1397 -0.2012
 1240PEP     CB45912  19.900   5.453  13.497  0.0935  0.2754  0.2856
 1240PEP     CB45913  19.738   5.658  13.180 -0.1022  0.2678  0.0105
 1240PEP     CB45914  19.351   5.600  12.914  0.3545 -0.0323 -0.1538
 1240PEP     CB45915  19.247   5.188  12.620 -0.1123  0.1617  0.1135
 1240PEP     CB45916  19.450   4.662  12.508 -0.0667  0.1398  0.0238
 1240PEP     CB45917  19.609   4.260  12.558  0.0117  0.1762  0.0868
 1240PEP     CB45918  19.881   4.071  12.836 -0.0338 -0.0707  0.1649
 1240PEP     CB45919  20.072   4.075  13.250  0.0184 -0.0208  0.2378
 1240PEP     CB45920  20.049   4.260  13.595  0.0287 -0.0704  0.3121
 1241PEP     CB45921   1.832   0.464  14.062  0.0148  0.1186 -0.1184
 1241PEP     CB45922   2.171   0.124  14.126  0.1985  0.1767  0.1134
 1241PEP     CB45923   2.461  -0.228  14.104 -0.1234 -0.1091 -0.0687
 1241PEP     CB45924   2.578  -0.639  14.121 -0.0338  0.3860  0.3667
 1241PEP     CB45925   2.435  -1.073  13.957  0.0538  0.2415  0.5051
 1241PEP     CB45926   1.953  -1.242  13.958  0.0476  0.1847  0.1562
 1241PEP     CB45927   1.596  -1.168  14.301 -0.0890  0.3460  0.0116
 1241PEP     CB45928   1.559  -0.934  14.749 -0.0192  0.0462 -0.3394
 1241PEP     CB45929   1.423  -0.637  15.119  0.1058  0.1694  0.3549
 1241PEP     CB45930   1.176  -0.303  15.150  0.0003 -0.2701 -0.4765
 1241PEP     CB45931   0.808  -0.005  15.279  0.0558  0.0899  0.0490
 1241PEP     CB45932   0.671   0.184  15.640  0.0472 -0.1053 -0.0828
 1241PEP     CB45933   0.703   0.415  15.994  0.2181 -0.1611 -0.2351
 1241PEP     CB45934   0.602   0.510  16.385  0.2818 -0.2006  0.3923
 1241PEP     CB45935   0.427   0.693  16.772 -0.0257 -0.0207  0.0098
 1241PEP     CB45936   0.140   0.708  17.085  0.4120  0.3859  0.4731
 1241PEP     CB45937   0.109   0.905  17.481  0.3760 -0.1202 -0.1442
 1241PEP     CB45938  -0.254   0.816  17.809 -0.3067  0.1564 -0.4156
 1241PEP     CB45939  -0.543   0.456  17.709 -0.2216  0.0053  0.0403
 1241PEP     CB45940  -0.417   0.027  17.605 -0.3132 -0.1352 -0.3094
 1241PEP     CB45941  -0.017  -0.163  17.623  0.1005 -0.1563 -0.0358
 1241PEP     CB45942   0.381  -0.476  17.563 -0.1577 -0.1034 -0.0862
 1241PEP     CB45943   0.705  -0.843  17.634 -0.1763  0.5537  0.0030
 1241PEP     CB45944   1.086  -1.009  17.788  0.1977 -0.0042  0.0072
 1241PEP     CB45945   1.443  -1.306  17.721 -0.0034 -0.0800  0.1931
 1241PEP     CB45946   1.799  -1.476  17.485  0.1760  0.1589  0.2840
 1241PEP     CB45947   2.134  -1.724  17.384  0.1636  0.0362  0.0223
 1241PEP     CB45948   2.489  -1.977  17.344 -0.0997  0.7348 -0.0155
 1241PEP     CB45949   2.937  -2.125  17.206 -0.1076 -0.0213 -0.1595
 1241PEP     CB45950   3.205  -1.823  17.169  0.2425  0.2475  0.1371
 1241PEP     CB45951   3.153  -1.444  17.389 -0.0842  0.0276 -0.2423
 1241PEP     CB45952   2.987  -1.123  17.698  0.0762  0.1175  0.2364
 1241PEP     CB45953   3.035  -1.170  18.140 -0.1014 -0.3173  0.2193
 1241PEP     CB45954   3.224  -1.423  18.493  0.3528 -0.3571 -0.3282
 1241PEP     CB45955   3.367  -1.604  18.883 -0.2857  0.2245  0.0392
 1241PEP     CB45956   3.668  -1.554  19.291  0.6281 -0.3840 -0.0716
 1241PEP     CB45957   3.718  -1.240  19.569  0.1158  0.4402 -0.0528
 1241PEP     CB45958   3.429  -0.974  19.654 -0.0391  0.1532  0.3357
 1241PEP     CB45959   3.053  -0.917  19.594  0.0495  0.2878  0.0436
 1241PEP     CB45960   2.623  -0.909  19.821  0.0703  0.4409  0.1647
 1242PEP     CB45961  12.842   2.988  13.423  0.2664 -0.1609  0.3015
 1242PEP     CB45962  13.017   2.461  13.474  0.4542 -0.1634 -0.0797
 1242PEP     CB45963  13.112   1.985  13.490  0.0494 -0.0695 -0.2764
 1242PEP     CB45964  13.484   1.713  13.570 -0.1924  0.1595 -0.0634
 1242PEP     CB45965  13.872   1.585  13.842 -0.1496 -0.1172 -0.0033
 1242PEP     CB45966  14.169   1.734  14.012  0.0760  0.3697  0.2746
 1242PEP     CB45967  14.546   1.970  13.911 -0.1207 -0.2809 -0.2108
 1242PEP     CB45968  14.624   2.021  13.486  0.0654 -0.1268 -0.4070
 1242PEP     CB45969  14.653   1.715  13.205  0.1017  0.1382  0.1605
 1242PEP     CB45970  14.680   1.296  13.213  0.1768  0.0704 -0.1523
 1242PEP     CB45971  14.447   0.928  13.434 -0.1534  0.4258  0.1041
 1242PEP     CB45972  14.254   0.447  13.608  0.3075  0.2371 -0.1613
 1242PEP     CB45973  14.101   0.155  13.397 -0.0398  0.6249  0.0545
 1242PEP     CB45974  14.076  -0.335  13.236  0.2390  0.2150 -0.0879
 1242PEP     CB45975  14.060  -0.771  13.224 -0.4908 -0.1642 -0.2756
 1242PEP     CB45976  13.724  -1.151  13.248  0.4625  0.2345 -0.0574
 1242PEP     CB45977  13.350  -1.296  13.008 -0.3824 -0.2556 -0.2119
 1242PEP     CB45978  12.903  -1.176  12.967  0.0200  0.2597  0.3081
 1242PEP     CB45979  12.491  -0.985  13.156  0.1765 -0.0151 -0.3764
 1242PEP     CB45980  12.164  -0.664  13.177 -0.2220 -0.2517 -0.0764
 1242PEP     CB45981  11.800  -0.555  13.279  0.1101  0.2645 -0.0116
 1242PEP     CB45982  11.324  -0.757  13.368  0.0112 -0.0870 -0.4311
 1242PEP     CB45983  10.970  -0.991  13.383 -0.2803  0.0478 -0.0074
 1242PEP     CB45984  10.503  -1.134  13.582 -0.1968  0.2638 -0.0453
 1242PEP     CB45985  10.113  -1.210  13.412 -0.0162 -0.0270  0.3239
 1242PEP     CB45986   9.849  -1.023  13.108  0.4834 -0.2285 -0.2701
 1242PEP     CB45987   9.706  -1.091  12.739  0.2558 -0.0816  0.0173
 1242PEP     CB45988   9.791  -1.258  12.389 -0.0977 -0.0231  0.0224
 1242PEP     CB45989   9.778  -1.437  12.018 -0.3435 -0.1954  0.0760
 1242PEP     CB45990  10.056  -1.599  11.674 -0.0309  0.1158 -0.1651
 1242PEP     CB45991  10.457  -1.645  11.409  0.0402 -0.3243  0.2370
 1242PEP     CB45992  10.866  -1.503  11.596 -0.1128  0.0405  0.0801
 1242PEP     CB45993  10.963  -1.128  11.856 -0.1202 -0.0479  0.5161
 1242PEP     CB45994  10.883  -0.893  12.151 -0.0003  0.1654  0.0548
 1242PEP     CB45995  10.468  -0.836  12.346  0.2413  0.1610  0.2655
 1242PEP     CB45996  10.178  -0.720  12.636  0.0199  0.4527 -0.0192
 1242PEP     CB45997   9.753  -0.634  12.832  0.1830  0.0910 -0.0198
 1242PEP     CB45998   9.358  -0.789  12.956 -0.4640 -0.2150  0.3131
 1242PEP     CB45999   8.915  -0.851  13.077 -0.3704  0.0102 -0.0455
 1242PEP     CB46000   8.566  -0.941  12.844  0.0359  0.0803  0.3719
 1243PEP     CB46001   3.151  13.724  17.045  0.0084  0.1035 -0.0491
 1243PEP     CB46002   3.099  13.587  17.497  0.0119  0.1082 -0.0480
 1243PEP     CB46003   3.149  13.562  17.872  0.2152 -0.2056 -0.1467
 1243PEP     CB46004   3.322  13.613  18.306  0.0304 -0.2879  0.3849
 1243PEP     CB46005   3.603  13.778  18.596 -0.2857 -0.1650 -0.0774
 1243PEP     CB46006   3.791  14.191  18.536 -0.1083 -0.2303 -0.0424
 1243PEP     CB46007   3.550  14.493  18.274 -0.1337  0.0595 -0.0159
 1243PEP     CB46008   3.251  14.705  18.015 -0.1583  0.3038 -0.1120
 1243PEP     CB46009   2.822  14.585  18.018  0.2800  0.2385  0.3641
 1243PEP     CB46010   2.472  14.384  18.129 -0.1023  0.0064 -0.0964
 1243PEP     CB46011   2.083  14.189  18.324  0.2349  0.2380 -0.0453
 1243PEP     CB46012   1.869  13.876  18.552 -0.2477 -0.2233 -0.2745
 1243PEP     CB46013   1.905  13.505  18.544  0.1562  0.3101 -0.0628
 1243PEP     CB46014   2.087  13.170  18.270 -0.3259  0.0207 -0.3309
 1243PEP     CB46015   2.248  12.752  18.100  0.3115 -0.1169 -0.0844
 1243PEP     CB46016   2.051  12.391  18.031  0.1569  0.0146 -0.1793
 1243PEP     CB46017   1.899  12.000  18.303  0.0461 -0.0239 -0.0136
 1243PEP     CB46018   1.783  11.810  18.714  0.1383 -0.1325  0.1926
 1243PEP     CB46019   1.762  11.843  19.132 -0.3275 -0.0724  0.0072
 1243PEP     CB46020   1.972  11.638  19.519 -0.0143 -0.1664  0.2961
 1243PEP     CB46021   2.312  11.396  19.479  0.1045 -0.0133 -0.1995
 1243PEP     CB46022   2.275  11.164  19.091 -0.0043 -0.2078 -0.2071
 1243PEP     CB46023   2.124  11.314  18.685  0.2146 -0.1982  0.3197
 1243PEP     CB46024   1.753  11.336  18.583  0.1820  0.0919 -0.0829
 1243PEP     CB46025   1.413  11.061  18.699  0.4525  0.0640 -0.0732
 1243PEP     CB46026   1.524  10.751  18.981 -0.2344 -0.0916  0.4700
 1243PEP     CB46027   1.829  10.789  19.271 -0.3327 -0.3073 -0.0194
 1243PEP     CB46028   2.181  10.901  19.494  0.1697  0.1108 -0.3115
 1243PEP     CB46029   2.689  10.934  19.355 -0.1570 -0.1553 -0.1337
 1243PEP     CB46030   3.165  11.045  19.247 -0.3173 -0.0321  0.3097
 1243PEP     CB46031   3.516  10.821  19.131 -0.2900 -0.2178  0.0528
 1243PEP     CB46032   3.482  10.277  19.025  0.5277 -0.0425  0.0706
 1243PEP     CB46033   3.467   9.917  18.778 -0.0862 -0.0173  0.2216
 1243PEP     CB46034   3.737   9.787  18.464  0.0322  0.0321 -0.1519
 1243PEP     CB46035   4.149   9.459  18.480  0.0457  0.2935  0.0681
 1243PEP     CB46036   4.142   9.041  18.735  0.2103 -0.0136 -0.0860
 1243PEP     CB46037   4.118   8.712  18.944 -0.5823 -0.0229 -0.1248
 1243PEP     CB46038   4.136   8.318  19.147 -0.1955  0.1452 -0.3203
 1243PEP     CB46039   3.920   7.870  19.074 -0.3922 -0.1938  0.1837
 1243PEP     CB46040   3.550   7.666  19.226  0.0701 -0.1160  0.2623
 1244PEP     CB46041  15.322   0.706   3.965  0.3069  0.1782 -0.4488
 1244PEP     CB46042  15.161   0.890   3.561 -0.1474 -0.2834 -0.3414
 1244PEP     CB46043  14.949   1.050   3.268  0.1234 -0.1239 -0.1188
 1244PEP     CB46044  14.709   1.253   2.888 -0.1629  0.0382  0.2448
 1244PEP     CB46045  14.566   1.227   2.463 -0.2633  0.3198  0.3013
 1244PEP     CB46046  14.414   1.258   2.041  0.6037 -0.2005 -0.0120
 1244PEP     CB46047  14.222   1.399   1.612 -0.0994  0.0435  0.1960
 1244PEP     CB46048  13.894   1.331   1.300 -0.1696  0.2553 -0.0015
 1244PEP     CB46049  13.784   1.667   1.046 -0.1144 -0.0839  0.1461
 1244PEP     CB46050  13.918   1.985   1.183 -0.5191 -0.1521  0.2829
 1244PEP     CB46051  14.088   1.934   1.564 -0.0611  0.0608  0.5672
 1244PEP     CB46052  13.884   1.672   1.897  0.3205 -0.1185 -0.0603
 1244PEP     CB46053  13.474   1.610   2.080  0.0281 -0.0172  0.1786
 1244PEP     CB46054  13.195   1.560   2.370 -0.2219  0.0972  0.1892
 1244PEP     CB46055  13.080   1.712   2.851  0.1584  0.3223  0.0104
 1244PEP     CB46056  13.179   2.089   3.072 -0.0315  0.2261 -0.2446
 1244PEP     CB46057  13.318   2.530   3.219  0.2643  0.1167 -0.1356
 1244PEP     CB46058  13.329   2.802   3.648  0.4315  0.0059  0.1390
 1244PEP     CB46059  13.434   3.044   3.999  0.3675 -0.0778  0.2257
 1244PEP     CB46060  13.467   3.216   4.370  0.2771  0.2279  0.0548
 1244PEP     CB46061  13.568   3.693   4.617 -0.0906  0.0328  0.0564
 1244PEP     CB46062  13.716   4.058   4.454 -0.2231  0.0018  0.3519
 1244PEP     CB46063  13.767   4.539   4.303 -0.2066 -0.0664 -0.0928
 1244PEP     CB46064  13.837   4.814   3.962 -0.4074 -0.0943 -0.2190
 1244PEP     CB46065  13.811   4.874   3.474  0.2217 -0.0787  0.0401
 1244PEP     CB46066  13.805   5.189   3.225 -0.2194 -0.0526 -0.2074
 1244PEP     CB46067  13.963   5.661   3.211 -0.2837  0.0467 -0.0630
 1244PEP     CB46068  14.299   5.905   3.253 -0.0448  0.3471  0.0518
 1244PEP     CB46069  14.720   5.772   3.283 -0.0148  0.2865 -0.0201
 1244PEP     CB46070  15.142   5.696   3.522 -0.3166  0.0640 -0.0321
 1244PEP     CB46071  15.524   5.881   3.549  0.1195  0.0524 -0.2839
 1244PEP     CB46072  15.894   5.756   3.806 -0.2434 -0.1212  0.1725
 1244PEP     CB46073  16.068   5.706   4.257  0.1493  0.1317 -0.0796
 1244PEP     CB46074  15.997   5.477   4.584  0.0288  0.2047 -0.3637
 1244PEP     CB46075  15.893   5.150   4.601  0.1406 -0.0228  0.3410
 1244PEP     CB46076  15.502   4.944   4.605 -0.0009  0.3359 -0.0078
 1244PEP     CB46077  15.278   4.609   4.485 -0.0381 -0.1555 -0.1379
 1244PEP     CB46078  14.913   4.424   4.154  0.2114 -0.3909 -0.0415
 1244PEP     CB46079  14.728   4.225   3.804  0.2517  0.1496  0.2889
 1244PEP     CB46080  14.766   4.072   3.551  0.1039  0.1729  0.3674
 1245PEP     CB46081  12.225  20.710   4.364 -0.1398  0.2223  0.0140
 1245PEP     CB46082  12.066  21.005   4.051 -0.1284  0.1386 -0.1866
 1245PEP     CB46083  12.114  21.454   4.008 -0.0700 -0.2149 -0.2326
 1245PEP     CB46084  12.204  21.828   4.162  0.0610 -0.3947 -0.1054
 1245PEP     CB46085  11.923  22.022   4.493 -0.0368 -0.1204 -0.4325
 1245PEP     CB46086  11.679  21.846   4.894 -0.2354 -0.2683  0.3230
 1245PEP     CB46087  11.350  21.822   5.135  0.3555  0.0889 -0.7170
 1245PEP     CB46088  11.156  22.172   5.302  0.1321  0.0702 -0.0995
 1245PEP     CB46089  11.042  22.615   5.346  0.1083 -0.0112  0.1031
 1245PEP     CB46090  11.004  22.972   5.001  0.0639 -0.0089  0.3234
 1245PEP     CB46091  11.267  23.338   4.739  0.0848  0.2327  0.3085
 1245PEP     CB46092  11.569  23.608   4.454  0.0913  0.0551  0.1062
 1245PEP     CB46093  11.874  23.936   4.235 -0.2448  0.2430  0.2728
 1245PEP     CB46094  11.862  24.260   3.938  0.1377  0.0677  0.4408
 1245PEP     CB46095  11.569  24.522   3.851  0.2328 -0.1004  0.1320
 1245PEP     CB46096  11.068  24.497   3.934 -0.0775 -0.0284  0.3930
 1245PEP     CB46097  10.886  24.113   3.892  0.1538 -0.1334 -0.2818
 1245PEP     CB46098  10.921  23.684   3.989  0.1727 -0.4196 -0.1116
 1245PEP     CB46099  10.976  23.458   4.355 -0.1371 -0.0179  0.0182
 1245PEP     CB46100  10.841  23.498   4.740  0.3420 -0.6746 -0.0328
 1245PEP     CB46101  10.838  23.586   5.183  0.0063 -0.1659  0.1309
 1245PEP     CB46102  10.724  23.963   5.431 -0.3054 -0.1664  0.4094
 1245PEP     CB46103  10.708  24.467   5.213  0.6547  0.0327 -0.1121
 1245PEP     CB46104  10.543  24.656   4.828  0.0806  0.0110  0.1409
 1245PEP     CB46105  10.186  24.949   4.778 -0.2887  0.0799  0.0997
 1245PEP     CB46106   9.786  24.929   4.971  0.3298 -0.1651 -0.2387
 1245PEP     CB46107   9.388  24.750   5.221 -0.0794  0.0714  0.2251
 1245PEP     CB46108   9.062  24.667   5.428  0.2606 -0.3936  0.2609
 1245PEP     CB46109   8.877  24.438   5.762  0.0572  0.1488 -0.5531
 1245PEP     CB46110   8.933  24.340   6.137  0.1788 -0.1204  0.1622
 1245PEP     CB46111   9.243  24.423   6.479  0.1815  0.1010 -0.0333
 1245PEP     CB46112   9.653  24.367   6.641 -0.0539  0.4670 -0.3240
 1245PEP     CB46113   9.971  24.447   6.860 -0.1006  0.0924 -0.2020
 1245PEP     CB46114  10.417  24.305   6.945 -0.0195  0.1376 -0.0588
 1245PEP     CB46115  10.868  24.082   7.008 -0.0664  0.0406  0.0854
 1245PEP     CB46116  11.000  23.757   6.828  0.3175 -0.1483 -0.3964
 1245PEP     CB46117  11.255  23.618   6.639 -0.3504 -0.1535 -0.1656
 1245PEP     CB46118  11.734  23.515   6.668  0.2556  0.1468 -0.4938
 1245PEP     CB46119  12.172  23.433   6.738 -0.0874  0.1206  0.0234
 1245PEP     CB46120  12.616  23.504   6.824  0.0661 -0.0657 -0.3302
 1246PEP     CB46121   6.186   1.331  12.585 -0.1543  0.3487 -0.3663
 1246PEP     CB46122   5.968   0.900  12.693 -0.1768 -0.0269 -0.2312
 1246PEP     CB46123   6.046   0.432  12.661  0.0969 -0.0553  0.1859
 1246PEP     CB46124   5.958   0.088  12.903  0.1101  0.1472  0.2406
 1246PEP     CB46125   5.608   0.135  13.054 -0.6743  0.4647  0.1065
 1246PEP     CB46126   5.245   0.502  13.130  0.0948  0.1363 -0.3489
 1246PEP     CB46127   4.980   0.843  13.087  0.2885  0.1884  0.1510
 1246PEP     CB46128   4.515   0.782  13.098 -0.1703  0.0045 -0.4852
 1246PEP     CB46129   4.214   0.514  13.236  0.3069  0.0917  0.0533
 1246PEP     CB46130   4.056   0.069  13.139 -0.1554 -0.0212 -0.2298
 1246PEP     CB46131   3.952  -0.355  13.211 -0.1048 -0.0727 -0.1041
 1246PEP     CB46132   3.713  -0.726  13.234  0.1472  0.1761 -0.0264
 1246PEP     CB46133   3.345  -0.881  13.406 -0.0530 -0.0368 -0.0161
 1246PEP     CB46134   2.931  -1.148  13.429 -0.1308  0.2077  0.2511
 1246PEP     CB46135   2.481  -1.235  13.499  0.1627  0.1159  0.3332
 1246PEP     CB46136   2.123  -1.527  13.514 -0.1536  0.0208  0.2950
 1246PEP     CB46137   1.871  -1.799  13.710  0.1554  0.0539 -0.2591
 1246PEP     CB46138   1.829  -2.142  13.871  0.2112  0.4596  0.2116
 1246PEP     CB46139   1.826  -2.584  13.687 -0.1394  0.3098  0.1664
 1246PEP     CB46140   1.608  -3.006  13.468  0.0539 -0.1293  0.2262
 1246PEP     CB46141   1.208  -3.234  13.421  0.3051 -0.1119 -0.2051
 1246PEP     CB46142   1.034  -3.597  13.222 -0.0587  0.1885  0.0891
 1246PEP     CB46143   0.813  -3.943  13.122 -0.0246  0.1057  0.0726
 1246PEP     CB46144   0.685  -4.172  12.850  0.0175  0.1223 -0.1603
 1246PEP     CB46145   0.629  -4.475  12.588 -0.2677 -0.0943 -0.0953
 1246PEP     CB46146   0.666  -4.664  12.165 -0.1726 -0.3272 -0.1243
 1246PEP     CB46147   0.654  -4.549  11.667  0.0544 -0.1812 -0.3522
 1246PEP     CB46148   0.548  -4.340  11.285  0.3652 -0.2967 -0.4273
 1246PEP     CB46149   0.342  -4.408  11.044 -0.2594  0.0596  0.6611
 1246PEP     CB46150  -0.045  -4.680  11.011 -0.3244 -0.1519  0.0020
 1246PEP     CB46151  -0.515  -4.931  11.135  0.2672 -0.1771  0.4136
 1246PEP     CB46152  -0.778  -5.245  11.373  0.1462  0.0266  0.0197
 1246PEP     CB46153  -1.249  -5.350  11.467 -0.0782 -0.2242  0.0664
 1246PEP     CB46154  -1.499  -5.698  11.233 -0.0403 -0.2681  0.0090
 1246PEP     CB46155  -1.191  -6.009  11.086 -0.3781 -0.1528 -0.0737
 1246PEP     CB46156  -0.860  -6.327  11.061  0.2311  0.1050 -0.0943
 1246PEP     CB46157  -0.753  -6.677  10.869  0.1169  0.1425  0.2658
 1246PEP     CB46158  -0.710  -7.114  10.980  0.2711 -0.0332  0.3440
 1246PEP     CB46159  -0.559  -7.427  10.701 -0.1818 -0.1272 -0.0794
 1246PEP     CB46160  -0.178  -7.615  10.633 -0.1080  0.5003 -0.2409
 1247PEP     CB46161  17.792  18.832   3.367  0.2268 -0.0876  0.1281
 1247PEP     CB46162  17.589  18.575   3.627  0.3955 -0.0194 -0.0828
 1247PEP     CB46163  17.601  18.076   3.529  0.3308 -0.0144 -0.2895
 1247PEP     CB46164  17.627  17.947   3.133 -0.3009 -0.0982  0.0248
 1247PEP     CB46165  18.008  18.030   2.901  0.0044 -0.0968 -0.0045
 1247PEP     CB46166  18.396  18.036   2.756 -0.2394 -0.1660 -0.0352
 1247PEP     CB46167  18.707  18.336   2.689  0.0979 -0.1413  0.0375
 1247PEP     CB46168  18.753  18.723   2.546  0.3524  0.2002  0.0574
 1247PEP     CB46169  18.733  18.912   2.134 -0.1954  0.3563  0.0095
 1247PEP     CB46170  18.675  18.747   1.748  0.2736  0.2535 -0.2813
 1247PEP     CB46171  18.285  18.653   1.519  0.2002  0.1431  0.0604
 1247PEP     CB46172  17.963  18.355   1.428 -0.1828 -0.0671  0.0218
 1247PEP     CB46173  18.042  18.000   1.088 -0.0946  0.1590  0.0570
 1247PEP     CB46174  18.413  18.057   0.806 -0.0778 -0.0735 -0.2494
 1247PEP     CB46175  18.710  18.187   0.905  0.4497 -0.2362 -0.3260
 1247PEP     CB46176  19.035  18.355   0.897  0.0431  0.1135 -0.2753
 1247PEP     CB46177  19.438  18.588   0.969  0.0791 -0.0966 -0.1714
 1247PEP     CB46178  19.836  18.760   1.128 -0.0467 -0.3489 -0.3368
 1247PEP     CB46179  20.165  18.833   1.304 -0.2195  0.4849 -0.1840
 1247PEP     CB46180  20.360  18.903   1.684 -0.0066  0.1891 -0.3858
 1247PEP     CB46181  20.738  18.880   1.908  0.3463  0.0220 -0.3311
 1247PEP     CB46182  20.904  18.504   2.021  0.1233  0.0763 -0.0171
 1247PEP     CB46183  20.782  18.198   2.405  0.1354  0.1676 -0.1006
 1247PEP     CB46184  20.647  18.277   2.816 -0.0380 -0.3267  0.6056
 1247PEP     CB46185  20.642  18.677   2.992  0.2710 -0.0595 -0.0320
 1247PEP     CB46186  20.760  19.058   2.999  0.2172  0.2511  0.0289
 1247PEP     CB46187  20.579  19.346   2.686 -0.1329 -0.0436  0.0206
 1247PEP     CB46188  20.610  19.362   2.226 -0.1526 -0.0695 -0.3144
 1247PEP     CB46189  20.381  19.368   1.777  0.1319  0.2950 -0.2568
 1247PEP     CB46190  20.434  19.500   1.372 -0.0859  0.0411  0.0096
 1247PEP     CB46191  20.892  19.585   1.212 -0.0760  0.0459 -0.3818
 1247PEP     CB46192  21.238  19.906   1.418  0.2957  0.2798 -0.0442
 1247PEP     CB46193  21.568  20.178   1.561  0.0302  0.0412  0.3403
 1247PEP     CB46194  21.996  20.310   1.416 -0.2887 -0.1214 -0.3345
 1247PEP     CB46195  22.503  20.132   1.256  0.0801 -0.2771  0.0064
 1247PEP     CB46196  22.750  20.016   0.822  0.0915 -0.0738 -0.1696
 1247PEP     CB46197  23.205  19.960   0.723  0.0663  0.1208 -0.0119
 1247PEP     CB46198  23.528  19.714   0.712  0.0694  0.0932  0.2174
 1247PEP     CB46199  23.819  19.420   0.959  0.2638 -0.2308  0.0107
 1247PEP     CB46200  24.245  19.491   1.136  0.2060 -0.1131  0.2347
 1248PEP     CB46201  20.264  12.884   7.311  0.3340 -0.2180 -0.0589
 1248PEP     CB46202  20.281  13.236   6.915  0.3498  0.2339 -0.0598
 1248PEP     CB46203  20.410  13.702   6.764 -0.3304  0.0552  0.0922
 1248PEP     CB46204  20.593  14.054   6.995  0.0552  0.1727  0.1052
 1248PEP     CB46205  20.949  14.016   7.178 -0.1846 -0.2916 -0.0470
 1248PEP     CB46206  21.357  13.971   7.160 -0.2351 -0.2015  0.0397
 1248PEP     CB46207  21.666  14.128   6.973 -0.1756 -0.2467  0.1385
 1248PEP     CB46208  21.861  14.515   6.880 -0.0062  0.2676 -0.3658
 1248PEP     CB46209  22.080  14.772   7.067 -0.0881 -0.0292 -0.0013
 1248PEP     CB46210  22.458  14.799   7.315  0.2490 -0.3458 -0.1496
 1248PEP     CB46211  22.653  14.533   7.565  0.0035  0.3492  0.1665
 1248PEP     CB46212  22.661  14.068   7.627 -0.1055 -0.2502  0.3328
 1248PEP     CB46213  22.585  13.891   8.034 -0.0363  0.0651 -0.0322
 1248PEP     CB46214  22.476  13.991   8.466 -0.0656  0.0736 -0.3390
 1248PEP     CB46215  22.162  14.017   8.781 -0.2829 -0.0832 -0.0177
 1248PEP     CB46216  21.995  14.306   9.030  0.2019  0.0509 -0.5133
 1248PEP     CB46217  21.942  14.630   8.935 -0.3563 -0.2329  0.4693
 1248PEP     CB46218  21.937  14.894   8.582 -0.0070  0.0693  0.0574
 1248PEP     CB46219  21.962  14.921   8.102  0.0184 -0.1386  0.2008
 1248PEP     CB46220  21.907  14.796   7.628  0.1037  0.2581 -0.2175
 1248PEP     CB46221  21.711  14.441   7.395 -0.4325 -0.0021 -0.1297
 1248PEP     CB46222  21.296  14.421   7.110  0.2073  0.2324 -0.3637
 1248PEP     CB46223  21.385  14.523   6.661 -0.1034  0.1639  0.2082
 1248PEP     CB46224  21.748  14.254   6.458 -0.1499  0.1262  0.2981
 1248PEP     CB46225  22.208  14.180   6.702  0.2042  0.3819 -0.0326
 1248PEP     CB46226  22.142  13.951   7.100 -0.3012  0.4987  0.2311
 1248PEP     CB46227  21.754  13.646   7.096 -0.0775  0.4467  0.1230
 1248PEP     CB46228  21.591  13.373   6.775  0.2682  0.1219  0.0038
 1248PEP     CB46229  21.657  12.972   6.528 -0.4281 -0.4099 -0.0033
 1248PEP     CB46230  21.536  12.480   6.561 -0.1629 -0.0109 -0.1514
 1248PEP     CB46231  21.603  12.109   6.670  0.2665 -0.2664  0.0621
 1248PEP     CB46232  21.526  11.833   6.909  0.2378  0.1765 -0.0025
 1248PEP     CB46233  21.677  11.456   7.188 -0.0678  0.3683  0.2624
 1248PEP     CB46234  21.705  11.358   7.606 -0.0015 -0.0362 -0.2268
 1248PEP     CB46235  21.587  11.602   7.968 -0.3092  0.0803 -0.0245
 1248PEP     CB46236  21.370  11.947   8.127 -0.0188  0.1793 -0.0304
 1248PEP     CB46237  21.168  12.096   8.511 -0.2903 -0.2865  0.3273
 1248PEP     CB46238  21.006  12.154   8.916  0.2092  0.2323  0.0122
 1248PEP     CB46239  21.178  12.062   9.236 -0.2861 -0.3242  0.3127
 1248PEP     CB46240  21.466  11.777   9.502 -0.1872  0.0645 -0.0811
 1249PEP     CB46241  11.419  21.878   0.366  0.0711 -0.1143 -0.1804
 1249PEP     CB46242  11.378  22.352   0.458 -0.0169 -0.2383 -0.1343
 1249PEP     CB46243  11.134  22.731   0.386  0.4328  0.1304 -0.2700
 1249PEP     CB46244  10.802  22.961   0.481  0.2074  0.0621 -0.3956
 1249PEP     CB46245  10.426  23.199   0.478  0.5496  0.2165  0.2342
 1249PEP     CB46246  10.016  23.153   0.537  0.1916  0.3498  0.0382
 1249PEP     CB46247   9.844  22.801   0.816  0.0475  0.2535 -0.2707
 1249PEP     CB46248   9.949  22.461   1.126  0.1363  0.3517  0.4846
 1249PEP     CB46249  10.127  22.285   1.415  0.0019  0.1690 -0.1714
 1249PEP     CB46250  10.197  21.994   1.732  0.0903 -0.0685  0.1040
 1249PEP     CB46251  10.321  21.637   1.656 -0.0992 -0.0802  0.2257
 1249PEP     CB46252  10.555  21.537   1.225  0.1612 -0.2373  0.0883
 1249PEP     CB46253  10.697  21.730   0.845 -0.1753 -0.3691 -0.0037
 1249PEP     CB46254  10.974  22.064   0.605 -0.2582  0.0924  0.0888
 1249PEP     CB46255  10.914  22.415   0.760  0.5036  0.2716 -0.0182
 1249PEP     CB46256  10.604  22.419   0.919  0.1602  0.0043  0.2535
 1249PEP     CB46257  10.531  22.110   1.244 -0.1956 -0.0789 -0.0420
 1249PEP     CB46258  10.644  22.076   1.823 -0.1658  0.0100  0.0036
 1249PEP     CB46259  10.906  22.428   2.071 -0.1407  0.1793  0.0558
 1249PEP     CB46260  11.167  22.703   1.825  0.2441 -0.1776 -0.1721
 1249PEP     CB46261  11.461  22.647   1.477  0.0798 -0.3195  0.1195
 1249PEP     CB46262  11.740  22.338   1.385 -0.3795  0.1714 -0.1532
 1249PEP     CB46263  11.774  21.930   1.613 -0.1434  0.0859 -0.0608
 1249PEP     CB46264  11.868  21.560   1.717  0.0822  0.2712 -0.2883
 1249PEP     CB46265  11.944  21.265   2.006 -0.0605 -0.0188 -0.1729
 1249PEP     CB46266  12.213  20.891   2.103  0.1969 -0.0371 -0.2611
 1249PEP     CB46267  12.509  20.780   1.803 -0.1720  0.2055 -0.0484
 1249PEP     CB46268  12.782  20.930   1.544 -0.3294  0.1440 -0.0663
 1249PEP     CB46269  12.747  21.345   1.384  0.1093  0.0796  0.2678
 1249PEP     CB46270  12.398  21.628   1.345  0.2931  0.1672 -0.0221
 1249PEP     CB46271  12.103  21.849   1.206 -0.2880 -0.0535  0.2874
 1249PEP     CB46272  11.642  21.886   1.083  0.0046 -0.3351 -0.4102
 1249PEP     CB46273  11.327  21.705   0.910 -0.2313  0.1731 -0.0100
 1249PEP     CB46274  11.074  21.566   0.507  0.2303 -0.0394 -0.1502
 1249PEP     CB46275  11.005  21.443   0.051 -0.0066  0.0199 -0.4794
 1249PEP     CB46276  10.766  21.329  -0.264 -0.0902 -0.3213  0.1094
 1249PEP     CB46277  10.405  21.162  -0.334  0.0779  0.3427  0.2665
 1249PEP     CB46278  10.268  20.869  -0.623 -0.2004 -0.0642 -0.0413
 1249PEP     CB46279  10.285  20.553  -0.844  0.5715 -0.3277  0.1206
 1249PEP     CB46280  10.274  20.157  -0.929  0.0546 -0.3590  0.4093
 1250PEP     CB46281   7.489  19.825  16.064  0.0636 -0.2902 -0.1501
 1250PEP     CB46282   7.721  20.035  16.274 -0.4057  0.1226  0.1413
 1250PEP     CB46283   7.714  20.246  16.638  0.0283  0.0521 -0.0743
 1250PEP     CB46284   7.365  20.480  16.795 -0.0848 -0.0619  0.3743
 1250PEP     CB46285   7.153  20.829  17.018 -0.1008 -0.2210 -0.3514
 1250PEP     CB46286   6.919  21.160  16.838 -0.6055 -0.2136 -0.1877
 1250PEP     CB46287   6.575  21.232  16.700 -0.2128 -0.2164 -0.1512
 1250PEP     CB46288   6.176  21.059  16.457 -0.3491 -0.2299 -0.1588
 1250PEP     CB46289   5.672  21.099  16.370 -0.0856 -0.2449 -0.1249
 1250PEP     CB46290   5.396  21.466  16.410 -0.3067  0.1981 -0.0074
 1250PEP     CB46291   5.334  21.875  16.520  0.0940  0.0457 -0.5491
 1250PEP     CB46292   5.436  22.266  16.564  0.1510  0.5505 -0.2508
 1250PEP     CB46293   5.786  22.479  16.707 -0.3618 -0.0373 -0.0214
 1250PEP     CB46294   6.085  22.620  17.019 -0.0060 -0.2436 -0.0510
 1250PEP     CB46295   6.395  22.631  17.270 -0.0167  0.2309 -0.0527
 1250PEP     CB46296   6.754  22.914  17.276 -0.1596 -0.0995 -0.2085
 1250PEP     CB46297   6.871  23.234  16.990 -0.1546 -0.3291  0.1455
 1250PEP     CB46298   6.843  23.669  16.963 -0.2640  0.1595 -0.2635
 1250PEP     CB46299   6.756  24.036  16.818 -0.2704  0.0611  0.3484
 1250PEP     CB46300   6.579  24.288  16.461  0.1331  0.1485  0.3008
 1250PEP     CB46301   6.134  24.406  16.441 -0.0548 -0.1820  0.2367
 1250PEP     CB46302   5.782  24.174  16.324 -0.0809 -0.0887  0.2062
 1250PEP     CB46303   5.531  24.038  15.985 -0.3381  0.0320  0.0418
 1250PEP     CB46304   5.253  24.028  15.595 -0.3116 -0.2141  0.2309
 1250PEP     CB46305   4.984  24.171  15.326  0.1803  0.1360 -0.0765
 1250PEP     CB46306   4.762  24.165  14.967  0.1317  0.1542 -0.3379
 1250PEP     CB46307   4.455  24.449  14.783 -0.2872  0.2997  0.4083
 1250PEP     CB46308   4.365  24.846  14.943  0.2505 -0.2139 -0.0397
 1250PEP     CB46309   4.502  24.786  15.386 -0.0044  0.2312 -0.1795
 1250PEP     CB46310   4.555  24.295  15.501 -0.2666  0.1408  0.0374
 1250PEP     CB46311   4.504  23.912  15.294  0.0464  0.1657  0.4513
 1250PEP     CB46312   4.280  23.546  15.220  0.2106 -0.0497 -0.4466
 1250PEP     CB46313   4.177  23.359  14.860  0.0046 -0.0512 -0.2356
 1250PEP     CB46314   3.920  23.298  14.561  0.3811 -0.1261  0.2202
 1250PEP     CB46315   3.486  23.107  14.439  0.0441 -0.1148  0.0384
 1250PEP     CB46316   3.316  22.785  14.177 -0.3062  0.0502 -0.1227
 1250PEP     CB46317   3.308  22.405  13.955 -0.2065  0.0452  0.3090
 1250PEP     CB46318   3.264  21.887  13.927 -0.1814  0.0234 -0.0539
 1250PEP     CB46319   3.155  21.521  13.732  0.1307  0.0579 -0.1380
 1250PEP     CB46320   2.726  21.342  13.508  0.1145  0.1305  0.5822
 1251PEP     CB46321   4.885   8.175  15.190 -0.2189 -0.1922  0.2124
 1251PEP     CB46322   5.081   8.170  15.565  0.3115  0.0343 -0.0744
 1251PEP     CB46323   5.427   8.366  15.793  0.3346 -0.1767  0.1553
 1251PEP     CB46324   5.851   8.511  15.749 -0.1645  0.4363 -0.1213
 1251PEP     CB46325   6.033   8.526  15.357  0.0655 -0.1656 -0.0006
 1251PEP     CB46326   5.964   8.285  14.978  0.2378 -0.2450 -0.3726
 1251PEP     CB46327   5.618   8.114  14.788 -0.0598  0.0934 -0.4150
 1251PEP     CB46328   5.222   8.305  14.687 -0.1413 -0.1636  0.1989
 1251PEP     CB46329   4.788   8.220  14.677 -0.2898  0.3170 -0.0151
 1251PEP     CB46330   4.571   8.145  14.286  0.0426 -0.2391  0.4228
 1251PEP     CB46331   4.227   8.219  14.004  0.1006 -0.2745 -0.2580
 1251PEP     CB46332   4.130   8.537  13.662  0.0149  0.0334  0.2766
 1251PEP     CB46333   3.817   8.844  13.739  0.2564 -0.2199 -0.0417
 1251PEP     CB46334   3.363   8.863  13.822 -0.2214  0.3562  0.2481
 1251PEP     CB46335   2.944   8.811  13.674  0.0168  0.2780 -0.4331
 1251PEP     CB46336   2.650   8.565  13.460 -0.0887 -0.0128 -0.0865
 1251PEP     CB46337   2.516   8.189  13.520 -0.1030  0.2160 -0.0259
 1251PEP     CB46338   2.360   7.920  13.704  0.1010 -0.1049  0.1139
 1251PEP     CB46339   2.025   7.678  13.603  0.0959 -0.0430 -0.4730
 1251PEP     CB46340   1.695   7.757  13.455 -0.1654  0.0230  0.0772
 1251PEP     CB46341   1.615   7.768  12.985  0.1861  0.1988  0.2345
 1251PEP     CB46342   1.915   7.473  12.636 -0.0610 -0.6009  0.2888
 1251PEP     CB46343   2.350   7.421  12.609 -0.0101 -0.3385  0.1978
 1251PEP     CB46344   2.574   7.698  12.717 -0.1193  0.1360  0.3069
 1251PEP     CB46345   2.493   7.892  13.032  0.0499 -0.2057  0.4842
 1251PEP     CB46346   2.115   7.738  13.112  0.2705  0.0980  0.0705
 1251PEP     CB46347   1.801   7.335  13.096 -0.3401  0.2391 -0.0261
 1251PEP     CB46348   1.516   6.950  13.033  0.0965  0.0992  0.1478
 1251PEP     CB46349   1.012   6.832  12.896  0.0924 -0.1586  0.1163
 1251PEP     CB46350   0.675   7.152  12.653 -0.1096  0.4312 -0.1613
 1251PEP     CB46351   0.367   7.428  12.475 -0.1014 -0.3863  0.0520
 1251PEP     CB46352   0.120   7.892  12.496  0.3585 -0.3242  0.1837
 1251PEP     CB46353  -0.034   8.284  12.784  0.2825  0.1791 -0.0234
 1251PEP     CB46354   0.012   8.706  12.700  0.0401  0.0313  0.1079
 1251PEP     CB46355   0.076   8.933  12.290 -0.3686 -0.1330  0.0730
 1251PEP     CB46356   0.221   8.834  11.943  0.3824  0.3260  0.0318
 1251PEP     CB46357   0.372   8.553  11.626  0.1287  0.0793  0.2532
 1251PEP     CB46358   0.428   8.104  11.593  0.0033  0.1236 -0.0171
 1251PEP     CB46359   0.720   7.799  11.473 -0.2547 -0.2684  0.4187
 1251PEP     CB46360   1.089   7.746  11.307 -0.3679 -0.0616 -0.1016
 1252PEP     CB46361  17.591  20.966  17.751 -0.0251 -0.2794  0.0087
 1252PEP     CB46362  17.381  20.807  18.010 -0.0134 -0.0766  0.0951
 1252PEP     CB46363  17.022  20.603  18.256 -0.3163  0.1943  0.3039
 1252PEP     CB46364  16.882  20.206  18.264 -0.2808 -0.0889  0.3068
 1252PEP     CB46365  16.809  19.753  18.270 -0.1441 -0.2201  0.0239
 1252PEP     CB46366  16.654  19.409  18.047 -0.0035  0.1711  0.2025
 1252PEP     CB46367  16.298  19.291  17.826 -0.2784 -0.1053  0.1410
 1252PEP     CB46368  16.088  18.879  17.673  0.3482 -0.0518 -0.2026
 1252PEP     CB46369  16.001  18.559  17.908 -0.0037  0.3315 -0.1788
 1252PEP     CB46370  15.541  18.491  18.103  0.0875 -0.2504 -0.0738
 1252PEP     CB46371  15.178  18.647  18.076 -0.0692 -0.4547 -0.1344
 1252PEP     CB46372  14.948  18.895  18.299 -0.1873 -0.4139 -0.1528
 1252PEP     CB46373  14.878  19.028  18.598 -0.0891  0.0049 -0.0715
 1252PEP     CB46374  14.566  18.944  19.024  0.0792  0.0173 -0.0518
 1252PEP     CB46375  14.332  18.547  19.113  0.1102 -0.0077 -0.1103
 1252PEP     CB46376  14.056  18.329  19.085  0.0252 -0.1609 -0.3054
 1252PEP     CB46377  13.805  18.050  18.933  0.1581  0.0397 -0.1759
 1252PEP     CB46378  13.941  17.685  18.735 -0.2130  0.0339  0.0095
 1252PEP     CB46379  13.749  17.329  18.468  0.3115 -0.0373 -0.0247
 1252PEP     CB46380  13.777  17.115  18.136 -0.0536 -0.0634 -0.0581
 1252PEP     CB46381  13.912  17.249  17.699  0.1325 -0.2081  0.2950
 1252PEP     CB46382  14.214  17.471  17.523  0.0576  0.3407  0.0244
 1252PEP     CB46383  14.403  17.849  17.568 -0.1601  0.0512 -0.0371
 1252PEP     CB46384  14.341  18.317  17.289  0.4974  0.0475 -0.0148
 1252PEP     CB46385  14.020  18.418  17.042 -0.1932  0.1205 -0.5714
 1252PEP     CB46386  13.878  18.449  16.689 -0.0112  0.0120  0.0388
 1252PEP     CB46387  14.078  18.260  16.312 -0.0052 -0.0543  0.0965
 1252PEP     CB46388  14.125  17.786  16.351 -0.2699  0.2844  0.0135
 1252PEP     CB46389  14.101  17.573  16.729 -0.1977  0.2981  0.1992
 1252PEP     CB46390  14.427  17.652  17.071  0.1070  0.1313  0.1511
 1252PEP     CB46391  14.746  17.933  17.210 -0.2370  0.1308  0.1477
 1252PEP     CB46392  15.061  18.198  17.073 -0.6514 -0.0668 -0.3701
 1252PEP     CB46393  15.360  18.469  17.137  0.0157  0.0486  0.2692
 1252PEP     CB46394  15.683  18.654  17.425  0.0432  0.0215  0.0929
 1252PEP     CB46395  15.685  19.081  17.574 -0.0475  0.1729  0.0773
 1252PEP     CB46396  15.838  19.435  17.786 -0.0459 -0.0891 -0.0147
 1252PEP     CB46397  15.900  19.861  17.917 -0.2838 -0.0305 -0.1176
 1252PEP     CB46398  16.016  20.320  17.753  0.3115 -0.4084  0.0536
 1252PEP     CB46399  16.271  20.588  17.510  0.3924 -0.2758 -0.0894
 1252PEP     CB46400  16.610  20.944  17.556  0.0373  0.2814  0.1844
 1253PEP     CB46401   2.154  19.892  13.411  0.3778  0.2177 -0.1078
 1253PEP     CB46402   2.625  19.705  13.279  0.3367  0.5006  0.1880
 1253PEP     CB46403   2.856  19.742  12.943  0.0895 -0.0300  0.1953
 1253PEP     CB46404   3.120  20.042  12.734 -0.1475 -0.0159 -0.0785
 1253PEP     CB46405   3.446  20.090  12.450  0.0419 -0.3065 -0.3000
 1253PEP     CB46406   3.687  20.445  12.303  0.0422 -0.0092 -0.0778
 1253PEP     CB46407   3.992  20.732  12.479  0.2133 -0.0731  0.0447
 1253PEP     CB46408   4.297  20.899  12.701  0.0168  0.1502  0.1946
 1253PEP     CB46409   4.654  20.977  12.969  0.1292  0.0148  0.2874
 1253PEP     CB46410   4.924  21.224  13.256 -0.2747  0.4563  0.6058
 1253PEP     CB46411   4.810  21.531  13.601 -0.2942  0.0191  0.2100
 1253PEP     CB46412   4.366  21.551  13.773  0.0719 -0.0105  0.2636
 1253PEP     CB46413   4.061  21.218  13.611 -0.1371 -0.2429  0.3361
 1253PEP     CB46414   4.061  20.973  13.174  0.2242  0.3075 -0.2053
 1253PEP     CB46415   3.776  20.895  12.923  0.3567 -0.1155 -0.2408
 1253PEP     CB46416   3.585  21.036  12.485 -0.1492  0.0970  0.3175
 1253PEP     CB46417   3.465  21.268  12.115  0.3589  0.1898 -0.1763
 1253PEP     CB46418   3.115  21.166  11.847  0.0185  0.5484 -0.2141
 1253PEP     CB46419   2.738  20.878  11.896 -0.0020 -0.3478  0.2312
 1253PEP     CB46420   2.322  20.965  12.134 -0.2750 -0.1969 -0.0735
 1253PEP     CB46421   2.179  21.057  12.580 -0.1941  0.1904  0.2435
 1253PEP     CB46422   2.267  20.607  12.706  0.0111 -0.0201  0.2363
 1253PEP     CB46423   2.718  20.444  12.529 -0.3649  0.3323  0.1319
 1253PEP     CB46424   3.166  20.556  12.279 -0.1623  0.5677  0.3453
 1253PEP     CB46425   3.244  20.696  11.826  0.0976 -0.3980 -0.3469
 1253PEP     CB46426   3.449  20.793  11.383  0.1953  0.2818  0.1998
 1253PEP     CB46427   3.414  20.957  11.001 -0.2289 -0.0860  0.1218
 1253PEP     CB46428   3.701  21.213  10.720  0.4466 -0.1001 -0.1212
 1253PEP     CB46429   3.902  21.072  10.350  0.6014  0.1344  0.3122
 1253PEP     CB46430   3.942  20.728  10.143  0.1049  0.1550 -0.0957
 1253PEP     CB46431   3.855  20.364   9.948 -0.0542  0.0930 -0.0429
 1253PEP     CB46432   4.038  20.027   9.624 -0.3334  0.2844  0.0887
 1253PEP     CB46433   4.131  19.641   9.632 -0.1424 -0.2724  0.1049
 1253PEP     CB46434   3.946  19.301   9.821  0.1938  0.3172  0.0834
 1253PEP     CB46435   3.667  18.970   9.695 -0.1720  0.0729 -0.0165
 1253PEP     CB46436   3.169  19.017   9.484 -0.0444  0.1722  0.3521
 1253PEP     CB46437   3.000  19.168   9.054  0.1758  0.0274  0.4088
 1253PEP     CB46438   2.938  19.522   8.882 -0.1796  0.3678  0.2004
 1253PEP     CB46439   2.785  19.741   8.636 -0.3525  0.2761  0.2364
 1253PEP     CB46440   2.286  19.777   8.513  0.0720  0.0412  0.2864
 1254PEP     CB46441   8.765  13.082  18.038 -0.3091 -0.2354 -0.1081
 1254PEP     CB46442   8.423  13.191  17.934 -0.4512 -0.0319  0.1116
 1254PEP     CB46443   8.056  13.348  17.692  0.0409 -0.1046  0.1158
 1254PEP     CB46444   7.956  13.549  17.391  0.5184  0.0573  0.3732
 1254PEP     CB46445   7.926  14.003  17.297  0.0692  0.1999 -0.1179
 1254PEP     CB46446   8.256  14.302  17.229  0.0988  0.3487 -0.1357
 1254PEP     CB46447   8.586  14.329  17.439 -0.1936  0.7414  0.3729
 1254PEP     CB46448   8.532  14.023  17.826  0.4060 -0.1478  0.1200
 1254PEP     CB46449   8.102  13.836  17.888 -0.0644  0.0450 -0.1582
 1254PEP     CB46450   7.720  14.060  17.839 -0.0870  0.2577  0.2707
 1254PEP     CB46451   7.597  14.405  17.438 -0.1571  0.0513  0.4136
 1254PEP     CB46452   7.719  14.404  17.045 -0.1957  0.1016 -0.4519
 1254PEP     CB46453   8.105  14.555  16.750  0.0196 -0.1037  0.2333
 1254PEP     CB46454   8.362  14.876  16.738 -0.2856  0.2456  0.2222
 1254PEP     CB46455   8.474  15.357  16.585 -0.3790 -0.1345  0.0294
 1254PEP     CB46456   8.412  15.790  16.604 -0.1241  0.1728 -0.0568
 1254PEP     CB46457   8.484  16.217  16.755  0.6785 -0.0254  0.0373
 1254PEP     CB46458   8.469  16.587  16.917  0.3211  0.0625  0.0137
 1254PEP     CB46459   8.712  16.989  16.990 -0.3623 -0.2354 -0.3453
 1254PEP     CB46460   9.019  17.064  17.248 -0.2607  0.0222  0.2643
 1254PEP     CB46461   9.096  16.871  17.663  0.1852  0.3398  0.0735
 1254PEP     CB46462   9.186  16.413  17.793 -0.1398 -0.5587 -0.0235
 1254PEP     CB46463   9.506  16.324  18.100  0.2501 -0.1124  0.0171
 1254PEP     CB46464   9.527  16.564  18.476  0.1746 -0.0001 -0.4794
 1254PEP     CB46465   9.193  16.811  18.764 -0.2351  0.2679  0.2950
 1254PEP     CB46466   9.248  17.243  18.889  0.3062 -0.1794 -0.4277
 1254PEP     CB46467   9.674  17.455  18.899  0.2536 -0.3120 -0.2219
 1254PEP     CB46468   9.961  17.657  18.575  0.1884 -0.1341 -0.2085
 1254PEP     CB46469  10.264  17.483  18.326 -0.2997  0.4085 -0.1558
 1254PEP     CB46470  10.436  17.049  18.382  0.2295 -0.2743  0.0653
 1254PEP     CB46471  10.239  16.706  18.485 -0.0368  0.3845 -0.0004
 1254PEP     CB46472  10.195  16.356  18.777 -0.1363  0.1220  0.1994
 1254PEP     CB46473  10.181  15.938  18.842 -0.0198  0.0011  0.0836
 1254PEP     CB46474   9.917  15.795  19.093 -0.2649 -0.3227  0.2988
 1254PEP     CB46475   9.860  15.807  19.541  0.0240 -0.1169 -0.0626
 1254PEP     CB46476   9.833  15.514  19.912  0.0245 -0.0753 -0.0943
 1254PEP     CB46477  10.243  15.352  20.049 -0.0253 -0.1658 -0.0103
 1254PEP     CB46478  10.530  15.118  19.763 -0.0042  0.1017 -0.1168
 1254PEP     CB46479  10.427  14.936  19.373  0.2132 -0.1424 -0.0995
 1254PEP     CB46480  10.454  14.622  19.174  0.0925 -0.1954 -0.2570
 1255PEP     CB46481  16.612   5.318   3.899 -0.0085 -0.0057  0.3983
 1255PEP     CB46482  16.369   5.629   3.746  0.5104 -0.1372  0.3976
 1255PEP     CB46483  16.319   5.992   3.919  0.1373 -0.0717  0.2361
 1255PEP     CB46484  16.207   6.293   4.225  0.0156 -0.1383 -0.4638
 1255PEP     CB46485  16.179   6.551   4.571  0.4789 -0.1303  0.0670
 1255PEP     CB46486  15.900   6.989   4.782 -0.0735  0.2395 -0.0946
 1255PEP     CB46487  15.803   7.470   4.770 -0.1498 -0.2332 -0.2483
 1255PEP     CB46488  15.727   7.877   4.752 -0.0555 -0.3622 -0.0069
 1255PEP     CB46489  15.601   8.159   4.562 -0.2567  0.1532  0.0898
 1255PEP     CB46490  15.628   8.199   4.116 -0.1735  0.1302  0.1941
 1255PEP     CB46491  15.662   7.913   3.756 -0.0009  0.3115 -0.0264
 1255PEP     CB46492  16.019   7.583   3.493  0.0566  0.4547 -0.3227
 1255PEP     CB46493  16.457   7.458   3.394 -0.1550  0.1367 -0.3558
 1255PEP     CB46494  16.798   7.218   3.218 -0.0051  0.0455 -0.1491
 1255PEP     CB46495  16.752   6.792   2.961  0.1950  0.1837  0.0751
 1255PEP     CB46496  17.005   6.468   2.671  0.2076 -0.2193  0.2134
 1255PEP     CB46497  17.168   6.051   2.760  0.1800  0.0509  0.3155
 1255PEP     CB46498  17.107   5.714   3.135  0.4303 -0.2312  0.1115
 1255PEP     CB46499  16.741   5.338   3.227 -0.2478  0.1972 -0.1652
 1255PEP     CB46500  16.637   4.968   3.016 -0.2337 -0.2076 -0.4418
 1255PEP     CB46501  16.970   4.653   2.811 -0.2817  0.1687  0.2607
 1255PEP     CB46502  17.456   4.786   2.906 -0.0096  0.0398  0.4893
 1255PEP     CB46503  17.490   5.054   3.263 -0.1079 -0.2222  0.0552
 1255PEP     CB46504  17.182   5.312   3.492 -0.5961  0.2367 -0.0269
 1255PEP     CB46505  17.080   5.273   3.936 -0.0874  0.1220  0.4465
 1255PEP     CB46506  16.886   4.897   4.217  0.1158 -0.5758 -0.1950
 1255PEP     CB46507  17.124   4.635   4.442  0.2486 -0.5218  0.2453
 1255PEP     CB46508  17.552   4.382   4.394  0.0347 -0.2908  0.5475
 1255PEP     CB46509  17.866   3.994   4.514  0.1168 -0.1740 -0.3041
 1255PEP     CB46510  18.172   3.779   4.346 -0.0804 -0.3322  0.0692
 1255PEP     CB46511  18.630   3.875   4.377  0.1865  0.1919 -0.3707
 1255PEP     CB46512  18.852   4.141   4.474 -0.3599 -0.2996  0.0889
 1255PEP     CB46513  19.225   4.101   4.614  0.0856  0.1286  0.1675
 1255PEP     CB46514  19.555   4.044   4.966 -0.0682  0.1758 -0.3613
 1255PEP     CB46515  19.824   4.385   5.201 -0.1005 -0.1957 -0.0560
 1255PEP     CB46516  19.894   4.580   5.580  0.3684  0.0608  0.4600
 1255PEP     CB46517  19.823   4.819   5.892  0.0886 -0.3966 -0.0695
 1255PEP     CB46518  19.490   4.873   6.292 -0.2941  0.0414 -0.1185
 1255PEP     CB46519  19.094   4.930   6.488  0.5288  0.0211 -0.0527
 1255PEP     CB46520  18.755   4.915   6.249  0.2999 -0.2335  0.1612
 1256PEP     CB46521  16.471   7.629  20.464  0.0961 -0.3478 -0.2557
 1256PEP     CB46522  16.795   7.984  20.375 -0.2483 -0.1366 -0.1524
 1256PEP     CB46523  17.254   8.117  20.484  0.2267  0.1837  0.1090
 1256PEP     CB46524  17.694   8.301  20.720 -0.0603 -0.2612  0.2294
 1256PEP     CB46525  17.999   8.566  20.938  0.1833  0.0078 -0.1280
 1256PEP     CB46526  18.091   8.651  21.437  0.0201 -0.1677 -0.2260
 1256PEP     CB46527  17.913   8.995  21.836  0.0151 -0.1831 -0.4393
 1256PEP     CB46528  17.708   9.423  21.780  0.2109 -0.2314  0.1668
 1256PEP     CB46529  17.589   9.821  21.723 -0.1873 -0.1095 -0.3589
 1256PEP     CB46530  17.216  10.062  21.693 -0.3259  0.2028 -0.3317
 1256PEP     CB46531  16.746  10.058  21.806  0.0478 -0.0899 -0.1082
 1256PEP     CB46532  16.339   9.808  21.943  0.0703 -0.0425  0.0678
 1256PEP     CB46533  16.006   9.591  22.007  0.2495  0.1683 -0.1734
 1256PEP     CB46534  15.732   9.593  22.287  0.1858  0.2919 -0.0169
 1256PEP     CB46535  15.570   9.630  22.692  0.0613 -0.2618  0.1083
 1256PEP     CB46536  15.630   9.767  23.076  0.1794  0.1036  0.2835
 1256PEP     CB46537  15.522   9.870  23.439 -0.1154 -0.3118 -0.3607
 1256PEP     CB46538  15.579   9.997  23.892  0.1888  0.1030  0.4237
 1256PEP     CB46539  15.743   9.913  24.240  0.2188 -0.2153 -0.1952
 1256PEP     CB46540  15.918  10.022  24.582 -0.3521  0.1734  0.2307
 1256PEP     CB46541  15.932  10.065  25.090  0.3036  0.3146 -0.0941
 1256PEP     CB46542  16.100   9.946  25.415 -0.2401 -0.2260  0.0363
 1256PEP     CB46543  16.302  10.175  25.758  0.2918 -0.0515 -0.1556
 1256PEP     CB46544  16.408  10.600  25.835  0.0144 -0.0885  0.2683
 1256PEP     CB46545  16.572  10.932  26.135  0.6024 -0.2934 -0.3390
 1256PEP     CB46546  16.484  11.359  26.297  0.1996 -0.0013 -0.0141
 1256PEP     CB46547  16.620  11.734  26.354 -0.1358 -0.2666 -0.2340
 1256PEP     CB46548  16.951  12.061  26.349  0.1877 -0.2288 -0.6941
 1256PEP     CB46549  17.180  12.437  26.429  0.0677  0.0230 -0.0138
 1256PEP     CB46550  17.413  12.883  26.306 -0.4259  0.2703 -0.1903
 1256PEP     CB46551  17.565  13.244  26.586  0.0472  0.0840  0.2071
 1256PEP     CB46552  17.406  13.617  26.737  0.2472  0.5001  0.1830
 1256PEP     CB46553  17.647  13.867  26.856 -0.0190  0.1137 -0.2578
 1256PEP     CB46554  17.903  14.089  27.184 -0.0204  0.1231  0.2528
 1256PEP     CB46555  17.750  14.218  27.620  0.0603  0.2211  0.5486
 1256PEP     CB46556  17.573  14.441  28.003  0.2958 -0.2655 -0.5062
 1256PEP     CB46557  17.482  14.599  28.452  0.1484  0.1973 -0.1111
 1256PEP     CB46558  17.619  14.715  28.901  0.0034 -0.1436 -0.1202
 1256PEP     CB46559  17.466  14.685  29.370  0.0908 -0.0375  0.3671
 1256PEP     CB46560  17.208  14.773  29.670 -0.1401  0.2110 -0.2852
 1257PEP     CB46561  17.476   9.043  13.501  0.2231 -0.1334 -0.1046
 1257PEP     CB46562  16.966   9.176  13.501 -0.1672  0.0938  0.0397
 1257PEP     CB46563  16.716   9.411  13.316 -0.3618 -0.1694  0.0730
 1257PEP     CB46564  16.391   9.616  13.080 -0.3116 -0.0036 -0.1184
 1257PEP     CB46565  16.290   9.781  12.671 -0.0260 -0.0558  0.0954
 1257PEP     CB46566  16.409   9.991  12.261 -0.1135  0.1189 -0.2658
 1257PEP     CB46567  16.691   9.989  11.893 -0.0243 -0.1899 -0.2477
 1257PEP     CB46568  17.141   9.824  11.804 -0.2186  0.3027 -0.3408
 1257PEP     CB46569  17.595   9.745  12.072 -0.0889 -0.2847 -0.2955
 1257PEP     CB46570  18.001   9.553  12.183  0.0308  0.2218 -0.0357
 1257PEP     CB46571  18.265   9.311  12.009 -0.4177 -0.3190  0.1438
 1257PEP     CB46572  18.657   8.998  12.079  0.0834  0.0892 -0.3721
 1257PEP     CB46573  19.045   8.974  12.365  0.2568  0.0621 -0.0775
 1257PEP     CB46574  19.231   9.102  12.758  0.1650  0.2196  0.1580
 1257PEP     CB46575  19.428   9.188  13.161  0.4110 -0.1008  0.1605
 1257PEP     CB46576  19.300   9.223  13.576  0.0508  0.0659 -0.3483
 1257PEP     CB46577  19.179   9.053  13.945  0.0427  0.0605 -0.1746
 1257PEP     CB46578  18.806   9.243  14.181 -0.0394  0.2129 -0.0702
 1257PEP     CB46579  18.674   9.722  14.293  0.1010 -0.0760 -0.2206
 1257PEP     CB46580  18.903  10.092  14.240  0.3520  0.2926 -0.1445
 1257PEP     CB46581  19.049  10.234  13.869  0.1823  0.3223 -0.0365
 1257PEP     CB46582  18.970  10.379  13.580  0.2390 -0.3393 -0.0298
 1257PEP     CB46583  18.749  10.773  13.459  0.0240 -0.2971 -0.2500
 1257PEP     CB46584  18.557  11.157  13.773  0.0050  0.0967 -0.1289
 1257PEP     CB46585  18.667  11.452  14.129 -0.1307  0.0639  0.3432
 1257PEP     CB46586  18.788  11.810  14.396  0.1258 -0.1053 -0.0789
 1257PEP     CB46587  18.741  12.277  14.528 -0.1710 -0.0249 -0.2231
 1257PEP     CB46588  18.490  12.632  14.277  0.2038  0.3443 -0.1977
 1257PEP     CB46589  18.551  12.582  13.878  0.3905 -0.2245  0.2753
 1257PEP     CB46590  18.583  12.425  13.548  0.1295 -0.3406  0.2863
 1257PEP     CB46591  18.808  12.006  13.480 -0.0573  0.2315 -0.1247
 1257PEP     CB46592  18.818  11.600  13.683 -0.0395  0.1452 -0.2671
 1257PEP     CB46593  19.017  11.300  13.792 -0.0039  0.0885 -0.2700
 1257PEP     CB46594  19.435  11.067  14.065 -0.1812  0.3345  0.1027
 1257PEP     CB46595  19.568  10.989  14.426 -0.1575 -0.0907  0.0727
 1257PEP     CB46596  19.673  10.933  14.895 -0.0395 -0.0217  0.0985
 1257PEP     CB46597  19.706  10.936  15.285  0.3919  0.0141 -0.1811
 1257PEP     CB46598  19.732  11.016  15.657  0.1242 -0.2720 -0.5807
 1257PEP     CB46599  19.944  11.266  16.002 -0.0777  0.2075  0.2794
 1257PEP     CB46600  20.093  11.450  16.360 -0.0080 -0.0670 -0.1125
 1258PEP     CB46601  14.076   9.225   7.792  0.1207 -0.0180  0.0945
 1258PEP     CB46602  14.029   9.611   8.044  0.0362  0.2050 -0.0352
 1258PEP     CB46603  14.274   9.999   8.052 -0.1206 -0.1237  0.2282
 1258PEP     CB46604  14.661  10.136   8.036 -0.2273  0.3245 -0.2386
 1258PEP     CB46605  14.885  10.394   7.773 -0.0292  0.4606 -0.0064
 1258PEP     CB46606  15.065  10.345   7.348 -0.0680  0.0337 -0.2621
 1258PEP     CB46607  15.298  10.051   7.174 -0.1692  0.1994 -0.2517
 1258PEP     CB46608  15.588   9.778   7.492  0.0951 -0.0766 -0.0547
 1258PEP     CB46609  15.508   9.940   7.882 -0.2090  0.1800  0.0451
 1258PEP     CB46610  15.503  10.318   7.920 -0.0634  0.1149  0.1548
 1258PEP     CB46611  15.255  10.649   7.704  0.2682 -0.0826 -0.1366
 1258PEP     CB46612  15.172  10.961   7.329 -0.0605 -0.1411 -0.1562
 1258PEP     CB46613  15.308  10.936   6.925 -0.0223  0.3262  0.3117
 1258PEP     CB46614  15.205  10.620   6.690  0.1311  0.0873 -0.0472
 1258PEP     CB46615  14.860  10.228   6.873 -0.1229  0.0940  0.2073
 1258PEP     CB46616  14.421  10.442   6.971 -0.0796  0.3398 -0.1881
 1258PEP     CB46617  14.218  10.738   6.763 -0.2900 -0.0994  0.0814
 1258PEP     CB46618  14.422  11.017   6.521 -0.0676  0.2737  0.0158
 1258PEP     CB46619  14.712  10.932   6.149  0.0537  0.1143  0.4271
 1258PEP     CB46620  15.231  10.837   6.175 -0.3045 -0.3613  0.0225
 1258PEP     CB46621  15.567  10.975   6.479 -0.2701 -0.1236  0.2882
 1258PEP     CB46622  15.714  11.238   6.890 -0.0746  0.1000 -0.6874
 1258PEP     CB46623  16.151  11.478   6.885 -0.0080  0.2289  0.1591
 1258PEP     CB46624  16.555  11.606   6.952  0.2220 -0.2050  0.0582
 1258PEP     CB46625  16.734  12.053   6.821 -0.2126  0.0781 -0.2739
 1258PEP     CB46626  16.725  12.479   6.683 -0.1032  0.5450 -0.4578
 1258PEP     CB46627  16.380  12.698   6.732  0.0722  0.1429 -0.1001
 1258PEP     CB46628  16.119  13.088   6.807 -0.3153  0.0013 -0.0120
 1258PEP     CB46629  16.161  13.559   6.941 -0.0244 -0.3734 -0.0373
 1258PEP     CB46630  15.953  13.938   7.137  0.2326  0.1616 -0.1731
 1258PEP     CB46631  15.706  14.289   7.255  0.5010  0.3628  0.0659
 1258PEP     CB46632  15.523  14.652   7.278 -0.0814  0.0063 -0.4638
 1258PEP     CB46633  15.241  14.879   7.118 -0.3048 -0.0402  0.2800
 1258PEP     CB46634  15.151  15.190   6.988 -0.0042 -0.1619 -0.0784
 1258PEP     CB46635  15.350  15.578   6.868  0.0790  0.0983 -0.2097
 1258PEP     CB46636  15.370  15.759   6.494 -0.1235  0.5411  0.2997
 1258PEP     CB46637  15.435  15.427   6.191 -0.0464  0.0997  0.0709
 1258PEP     CB46638  15.540  15.111   5.948 -0.0534  0.0435  0.7498
 1258PEP     CB46639  15.878  15.022   5.649 -0.0870  0.2067 -0.0892
 1258PEP     CB46640  16.078  14.775   5.294 -0.1402  0.2300  0.0498
 1259PEP     CB46641  14.838  17.804  20.028  0.0490  0.2414 -0.2475
 1259PEP     CB46642  15.169  17.848  19.790 -0.4189 -0.3414 -0.3678
 1259PEP     CB46643  15.248  17.944  19.376  0.2877 -0.1895 -0.1205
 1259PEP     CB46644  15.584  18.199  19.178 -0.1242 -0.3817  0.2414
 1259PEP     CB46645  15.908  18.207  19.417  0.2192 -0.2018 -0.0275
 1259PEP     CB46646  15.963  18.508  19.792 -0.1517 -0.3978  0.4520
 1259PEP     CB46647  16.312  18.882  20.043  0.3960 -0.4131 -0.0797
 1259PEP     CB46648  16.720  19.000  19.888  0.0208  0.0059  0.1619
 1259PEP     CB46649  16.952  18.745  19.584  0.1753  0.0440 -0.0247
 1259PEP     CB46650  16.881  18.346  19.442 -0.0290  0.2817  0.0711
 1259PEP     CB46651  16.794  17.948  19.604  0.4257 -0.0380  0.2797
 1259PEP     CB46652  16.649  17.643  19.894 -0.3666 -0.1338 -0.2536
 1259PEP     CB46653  16.762  17.578  20.351 -0.0007  0.1466  0.0414
 1259PEP     CB46654  17.186  17.616  20.610 -0.1366  0.0930  0.1560
 1259PEP     CB46655  17.599  17.796  20.586 -0.0117 -0.2111  0.2243
 1259PEP     CB46656  18.011  17.878  20.477 -0.3093 -0.1614 -0.0852
 1259PEP     CB46657  18.383  18.111  20.588  0.2400  0.0614  0.1536
 1259PEP     CB46658  18.552  18.313  20.236 -0.0656 -0.1982  0.1258
 1259PEP     CB46659  18.859  18.072  19.947 -0.0322 -0.1292 -0.0311
 1259PEP     CB46660  19.340  18.177  20.117 -0.0331 -0.1358  0.3339
 1259PEP     CB46661  19.521  18.668  20.124 -0.2202  0.4337  0.2510
 1259PEP     CB46662  19.483  18.892  19.768 -0.4373 -0.2754  0.1286
 1259PEP     CB46663  19.046  18.958  19.621  0.1985 -0.1576  0.2356
 1259PEP     CB46664  18.657  19.064  19.485 -0.0509  0.4647 -0.2370
 1259PEP     CB46665  18.236  19.027  19.209 -0.1609  0.0109 -0.1786
 1259PEP     CB46666  17.913  18.751  18.977 -0.2859  0.1057 -0.3746
 1259PEP     CB46667  17.690  18.392  18.914  0.0963 -0.1736  0.1872
 1259PEP     CB46668  17.283  18.193  18.707 -0.0103  0.1417 -0.3555
 1259PEP     CB46669  16.891  18.418  18.634 -0.1340  0.1713  0.0071
 1259PEP     CB46670  16.553  18.368  18.890 -0.1411 -0.1766  0.3994
 1259PEP     CB46671  16.367  18.301  19.338 -0.1169  0.0187  0.0305
 1259PEP     CB46672  16.299  17.955  19.544  0.0781 -0.1287  0.2498
 1259PEP     CB46673  16.255  17.532  19.423  0.2513  0.2955  0.1574
 1259PEP     CB46674  16.161  17.153  19.176  0.0838  0.1065  0.2675
 1259PEP     CB46675  16.063  17.035  18.879  0.1517 -0.0566 -0.2751
 1259PEP     CB46676  15.955  17.005  18.492  0.5319  0.0874  0.2947
 1259PEP     CB46677  16.007  17.193  18.058 -0.0570 -0.0836 -0.4508
 1259PEP     CB46678  16.508  17.482  17.925  0.4218 -0.1475  0.2371
 1259PEP     CB46679  16.469  17.857  18.222  0.0117  0.4282  0.1192
 1259PEP     CB46680  16.652  17.869  18.641  0.2200 -0.2296  0.1316
 1260PEP     CB46681   2.614  14.559  12.236  0.5152  0.2365 -0.0624
 1260PEP     CB46682   2.269  14.431  12.428  0.0317 -0.1399  0.0115
 1260PEP     CB46683   1.862  14.294  12.162  0.1704  0.0461 -0.4988
 1260PEP     CB46684   1.571  14.453  11.834  0.1264  0.1219 -0.0819
 1260PEP     CB46685   1.409  14.858  11.777  0.0888 -0.1965  0.4060
 1260PEP     CB46686   1.466  15.262  11.975  0.0297 -0.0668  0.2934
 1260PEP     CB46687   1.455  15.603  12.237  0.0304  0.0203 -0.1081
 1260PEP     CB46688   1.255  16.019  12.202  0.1655  0.1698  0.0203
 1260PEP     CB46689   0.967  16.160  11.851  0.1414 -0.0356  0.1829
 1260PEP     CB46690   1.110  16.596  11.686  0.0255 -0.2760  0.2099
 1260PEP     CB46691   1.192  16.873  12.109  0.1922  0.0437  0.1529
 1260PEP     CB46692   0.821  16.794  12.400  0.1004  0.0286  0.1713
 1260PEP     CB46693   0.407  16.601  12.486 -0.1287 -0.0835 -0.3052
 1260PEP     CB46694   0.313  16.175  12.629 -0.1010 -0.1053  0.2982
 1260PEP     CB46695   0.451  15.786  12.806  0.0275  0.0123 -0.2096
 1260PEP     CB46696   0.522  15.611  13.197  0.1221  0.3145 -0.1817
 1260PEP     CB46697   0.375  15.377  13.494 -0.0042  0.1860 -0.1850
 1260PEP     CB46698   0.233  14.980  13.738  0.0156  0.2480  0.0190
 1260PEP     CB46699   0.164  14.787  14.128  0.1329  0.0254 -0.5130
 1260PEP     CB46700   0.116  14.383  14.188 -0.0364 -0.0385  0.0102
 1260PEP     CB46701   0.051  14.064  13.910  0.2822 -0.3219 -0.0014
 1260PEP     CB46702  -0.045  13.662  13.661  0.3996 -0.2567 -0.3454
 1260PEP     CB46703   0.035  13.354  13.295  0.0351 -0.2737  0.3178
 1260PEP     CB46704  -0.108  13.026  12.904  0.1617 -0.4014 -0.3825
 1260PEP     CB46705  -0.451  12.993  12.613 -0.0758 -0.0022  0.3394
 1260PEP     CB46706  -0.805  13.299  12.404 -0.5327  0.4218  0.2265
 1260PEP     CB46707  -1.095  13.581  12.423 -0.0744 -0.0785  0.3153
 1260PEP     CB46708  -1.180  14.042  12.593 -0.5401  0.1873  0.3744
 1260PEP     CB46709  -0.917  14.366  12.741  0.0665  0.1761  0.0924
 1260PEP     CB46710  -0.685  14.449  13.125 -0.2092 -0.1103  0.1075
 1260PEP     CB46711  -0.852  14.358  13.529  0.5485 -0.2563  0.3163
 1260PEP     CB46712  -1.238  14.226  13.620 -0.2719  0.1623  0.0894
 1260PEP     CB46713  -1.496  14.104  13.359  0.2287  0.0166 -0.1807
 1260PEP     CB46714  -1.665  14.336  13.059  0.1833  0.0257  0.4500
 1260PEP     CB46715  -1.517  14.827  13.008  0.3496  0.0405  0.2096
 1260PEP     CB46716  -1.347  15.174  13.218 -0.0516 -0.0440  0.1090
 1260PEP     CB46717  -1.075  15.502  13.368 -0.1247 -0.1515 -0.2182
 1260PEP     CB46718  -0.887  15.888  13.555  0.0408  0.4879 -0.0409
 1260PEP     CB46719  -0.755  16.127  13.811 -0.1200  0.0650  0.2077
 1260PEP     CB46720  -0.442  16.373  13.853  0.2638 -0.0380 -0.0240
 1261PEP     CB46721   7.223  10.418   1.050 -0.0376 -0.2809 -0.0270
 1261PEP     CB46722   7.383  10.217   1.414  0.1693 -0.1507  0.2087
 1261PEP     CB46723   7.690   9.833   1.459 -0.0675 -0.1737 -0.1704
 1261PEP     CB46724   7.862   9.520   1.112  0.0651 -0.1120 -0.1133
 1261PEP     CB46725   7.776   9.152   1.069 -0.0138  0.1499 -0.1195
 1261PEP     CB46726   7.415   8.943   0.828  0.5181 -0.2833  0.1426
 1261PEP     CB46727   7.007   8.876   0.781 -0.0926 -0.0949 -0.3519
 1261PEP     CB46728   6.626   9.058   0.928  0.3690  0.3217  0.2566
 1261PEP     CB46729   6.142   9.081   0.980 -0.2418 -0.2377 -0.0737
 1261PEP     CB46730   5.884   9.052   0.618  0.0660  0.0570  0.2725
 1261PEP     CB46731   5.955   9.266   0.239  0.0394  0.0159  0.1935
 1261PEP     CB46732   6.322   9.468  -0.034  0.0171  0.0130  0.3292
 1261PEP     CB46733   6.770   9.545  -0.055  0.2008 -0.3202  0.0892
 1261PEP     CB46734   7.297   9.493  -0.152 -0.4467  0.0204  0.3730
 1261PEP     CB46735   7.751   9.516  -0.309  0.0507  0.1715 -0.2868
 1261PEP     CB46736   8.105   9.465  -0.440 -0.1028  0.1714 -0.0493
 1261PEP     CB46737   8.484   9.447  -0.536  0.1454  0.3533  0.1089
 1261PEP     CB46738   8.925   9.547  -0.770  0.1293 -0.0231  0.4052
 1261PEP     CB46739   9.340   9.420  -0.974 -0.2935 -0.0916 -0.2193
 1261PEP     CB46740   9.425   9.047  -1.170 -0.2906 -0.0820  0.1334
 1261PEP     CB46741   9.673   8.892  -1.458 -0.1546  0.2748 -0.3300
 1261PEP     CB46742   9.702   8.621  -1.861 -0.0422  0.1593  0.1186
 1261PEP     CB46743   9.618   8.475  -2.238 -0.3942 -0.0924  0.2190
 1261PEP     CB46744   9.328   8.234  -2.515  0.0842 -0.1826  0.0568
 1261PEP     CB46745   9.100   8.109  -2.840 -0.1881  0.0968 -0.2496
 1261PEP     CB46746   9.006   8.202  -3.234  0.0758 -0.4746 -0.0328
 1261PEP     CB46747   8.832   8.290  -3.655  0.3543 -0.4776  0.0675
 1261PEP     CB46748   9.042   8.317  -4.186 -0.0158  0.4258  0.1405
 1261PEP     CB46749   9.122   8.443  -4.607 -0.4046  0.3355 -0.4574
 1261PEP     CB46750   9.463   8.450  -4.835 -0.5444  0.1023 -0.0477
 1261PEP     CB46751   9.816   8.359  -4.942  0.2042  0.3271  0.0850
 1261PEP     CB46752  10.081   8.140  -5.238 -0.1895  0.0108 -0.0700
 1261PEP     CB46753  10.357   7.876  -5.638 -0.2125 -0.0022 -0.3405
 1261PEP     CB46754  10.569   7.593  -5.987 -0.4194  0.2864  0.0935
 1261PEP     CB46755  10.856   7.443  -6.345 -0.1894 -0.1625 -0.2916
 1261PEP     CB46756  10.999   7.773  -6.645 -0.0363  0.1369  0.3099
 1261PEP     CB46757  10.962   8.184  -6.792  0.0009 -0.3175 -0.1041
 1261PEP     CB46758  11.164   8.622  -6.683 -0.3442 -0.0318 -0.0472
 1261PEP     CB46759  11.501   8.745  -6.436 -0.1360  0.4711 -0.1473
 1261PEP     CB46760  11.916   8.789  -6.270 -0.3935 -0.1145  0.1526
 1262PEP     CB46761  12.252   6.309   2.443 -0.1026 -0.0444 -0.0834
 1262PEP     CB46762  12.244   6.441   2.831  0.0575 -0.4353  0.0994
 1262PEP     CB46763  12.341   6.605   3.298 -0.0146  0.0089 -0.1234
 1262PEP     CB46764  12.375   6.905   3.655 -0.5357 -0.2168  0.0424
 1262PEP     CB46765  12.291   6.776   4.097  0.0366 -0.0536  0.2429
 1262PEP     CB46766  11.971   6.541   4.264  0.1004  0.2110 -0.2117
 1262PEP     CB46767  11.942   6.188   4.540 -0.0734 -0.1024  0.0685
 1262PEP     CB46768  12.076   5.827   4.806  0.3186  0.3774 -0.0917
 1262PEP     CB46769  11.882   5.462   4.953  0.4231 -0.0372  0.1609
 1262PEP     CB46770  11.694   4.997   4.975 -0.0504  0.1440  0.0017
 1262PEP     CB46771  11.818   4.535   5.082 -0.1256 -0.3739 -0.0469
 1262PEP     CB46772  11.863   4.126   5.297 -0.0990  0.2199 -0.0474
 1262PEP     CB46773  12.162   3.822   5.467  0.2180  0.0206 -0.1535
 1262PEP     CB46774  12.513   3.568   5.408  0.0974  0.0789 -0.0198
 1262PEP     CB46775  12.837   3.230   5.558 -0.3642  0.0092  0.2711
 1262PEP     CB46776  12.941   2.737   5.655  0.2054 -0.2644  0.1287
 1262PEP     CB46777  12.811   2.396   5.408  0.1448  0.5319  0.1732
 1262PEP     CB46778  12.689   2.192   5.071 -0.5764  0.1696 -0.2398
 1262PEP     CB46779  12.509   1.762   4.748  0.0518 -0.0026  0.3930
 1262PEP     CB46780  12.436   1.650   4.365  0.1920 -0.0313 -0.0566
 1262PEP     CB46781  12.175   1.615   3.983  0.2921  0.3339  0.0775
 1262PEP     CB46782  11.791   1.725   3.700 -0.3611 -0.1946  0.2073
 1262PEP     CB46783  11.699   1.695   3.235 -0.3260  0.3128 -0.0620
 1262PEP     CB46784  11.402   1.653   3.000 -0.0318 -0.0863 -0.4072
 1262PEP     CB46785  11.062   1.523   2.695 -0.0549 -0.0025  0.4633
 1262PEP     CB46786  10.898   1.351   2.447  0.0571 -0.0641  0.5067
 1262PEP     CB46787  10.794   1.615   2.155  0.0515  0.1112  0.0782
 1262PEP     CB46788  10.571   2.037   2.295  0.0531  0.1849 -0.2541
 1262PEP     CB46789  10.329   2.447   2.245 -0.2181 -0.1287 -0.1184
 1262PEP     CB46790  10.012   2.708   2.211 -0.1567  0.6462  0.3771
 1262PEP     CB46791   9.598   2.872   2.032 -0.2865 -0.5756 -0.0159
 1262PEP     CB46792   9.517   2.986   1.636  0.0534  0.3555  0.2627
 1262PEP     CB46793   9.413   2.750   1.252  0.3723  0.6026  0.4485
 1262PEP     CB46794   9.083   2.458   1.219  0.0213 -0.2439  0.4643
 1262PEP     CB46795   8.882   2.217   1.567  0.0236  0.1624  0.1828
 1262PEP     CB46796   9.107   2.036   1.966 -0.0041  0.1441 -0.2375
 1262PEP     CB46797   9.468   1.775   1.827  0.1000  0.1932 -0.1861
 1262PEP     CB46798   9.774   1.872   1.503 -0.2491 -0.3259  0.0315
 1262PEP     CB46799   9.909   2.297   1.353 -0.2027  0.0185  0.1214
 1262PEP     CB46800   9.910   2.722   1.548 -0.3458 -0.1100  0.0267
 1263PEP     CB46801  16.745  15.206  18.059 -0.1629  0.1348  0.3989
 1263PEP     CB46802  16.721  15.479  17.817  0.1741 -0.2910  0.1002
 1263PEP     CB46803  16.636  15.761  17.566  0.0294  0.4061 -0.4232
 1263PEP     CB46804  16.400  16.068  17.467  0.0199 -0.0391 -0.3056
 1263PEP     CB46805  16.043  16.220  17.220  0.1702  0.2346  0.0179
 1263PEP     CB46806  15.661  16.592  17.128  0.1451  0.2299  0.1761
 1263PEP     CB46807  15.754  16.971  16.975  0.2286 -0.0331 -0.1197
 1263PEP     CB46808  16.036  17.347  17.126 -0.1245  0.2616 -0.1525
 1263PEP     CB46809  16.091  17.751  16.959 -0.2524  0.3740 -0.2091
 1263PEP     CB46810  15.838  17.991  16.690  0.0277 -0.6039 -0.0046
 1263PEP     CB46811  15.813  18.172  16.243  0.1325  0.0783  0.1731
 1263PEP     CB46812  15.439  18.266  15.998 -0.0310 -0.0418 -0.2954
 1263PEP     CB46813  15.008  18.113  16.128  0.1490  0.3453 -0.0776
 1263PEP     CB46814  15.007  17.648  16.207  0.2720 -0.2758  0.1118
 1263PEP     CB46815  15.121  17.523  16.613  0.3236  0.5424  0.2039
 1263PEP     CB46816  15.196  17.711  16.999 -0.1470 -0.0247 -0.2918
 1263PEP     CB46817  15.548  17.954  17.232  0.2965 -0.0061 -0.2279
 1263PEP     CB46818  15.988  17.901  17.397  0.2392  0.1438 -0.5142
 1263PEP     CB46819  16.391  17.905  17.333 -0.1606  0.2509 -0.2070
 1263PEP     CB46820  16.607  18.277  17.168 -0.1445  0.0915  0.2481
 1263PEP     CB46821  16.704  18.514  16.762 -0.2520  0.0954 -0.3776
 1263PEP     CB46822  16.549  18.538  16.302 -0.2774  0.5848  0.1357
 1263PEP     CB46823  16.705  18.706  16.014 -0.2253 -0.1849 -0.2615
 1263PEP     CB46824  17.158  18.573  15.833 -0.1016 -0.0007  0.2915
 1263PEP     CB46825  17.356  18.132  15.910  0.0882 -0.0438 -0.1216
 1263PEP     CB46826  17.080  17.850  16.065  0.4361  0.1035  0.1412
 1263PEP     CB46827  16.889  17.576  16.414 -0.1189 -0.2679 -0.3496
 1263PEP     CB46828  17.110  17.397  16.711  0.3765 -0.3557  0.1885
 1263PEP     CB46829  17.442  17.411  16.896 -0.0246 -0.3299 -0.1605
 1263PEP     CB46830  17.635  17.861  16.858  0.0009 -0.2180  0.2379
 1263PEP     CB46831  17.688  18.256  17.034  0.2347 -0.1632 -0.1238
 1263PEP     CB46832  17.744  18.753  16.856 -0.4082  0.1193 -0.2584
 1263PEP     CB46833  17.947  18.742  16.497  0.2522 -0.4267  0.0874
 1263PEP     CB46834  18.351  18.629  16.220 -0.3338 -0.0437 -0.0249
 1263PEP     CB46835  18.539  18.527  15.794 -0.0918  0.0082  0.0487
 1263PEP     CB46836  18.899  18.742  15.602  0.3334  0.0943  0.1688
 1263PEP     CB46837  19.295  18.918  15.786 -0.2388 -0.0371 -0.0787
 1263PEP     CB46838  19.664  18.657  15.914 -0.1757  0.1420 -0.2575
 1263PEP     CB46839  19.977  18.364  15.712  0.1421  0.2858  0.0639
 1263PEP     CB46840  20.220  18.386  15.306  0.0438  0.0405 -0.0412
 1264PEP     CB46841   4.544  12.015  15.010 -0.0851  0.1781  0.4389
 1264PEP     CB46842   4.798  12.069  14.620 -0.2982  0.3499 -0.0777
 1264PEP     CB46843   4.967  12.262  14.253 -0.4911  0.1113  0.1594
 1264PEP     CB46844   5.254  12.272  13.916 -0.3583  0.0236 -0.1406
 1264PEP     CB46845   5.693  12.281  13.834  0.2131  0.0678 -0.0850
 1264PEP     CB46846   6.009  12.308  14.005  0.0539  0.3818 -0.0493
 1264PEP     CB46847   6.201  12.235  14.384 -0.0287  0.1431  0.0099
 1264PEP     CB46848   6.323  12.262  14.818  0.1907 -0.1485 -0.1990
 1264PEP     CB46849   6.389  12.181  15.166  0.1321  0.1513 -0.0606
 1264PEP     CB46850   6.497  12.152  15.567 -0.1578  0.1963 -0.0459
 1264PEP     CB46851   6.816  12.224  15.841  0.2788 -0.1025  0.6611
 1264PEP     CB46852   7.258  12.217  15.954 -0.0822 -0.1382 -0.1016
 1264PEP     CB46853   7.581  12.542  16.166 -0.0400 -0.0463  0.2320
 1264PEP     CB46854   7.471  12.935  16.081 -0.1521 -0.1682 -0.2270
 1264PEP     CB46855   7.468  13.385  16.290 -0.5525  0.5341 -0.0496
 1264PEP     CB46856   7.506  13.752  16.412  0.1025 -0.0247 -0.1183
 1264PEP     CB46857   7.601  14.180  16.364  0.2190 -0.2138  0.1939
 1264PEP     CB46858   7.537  14.701  16.324 -0.1916 -0.0135 -0.0639
 1264PEP     CB46859   7.469  15.124  16.357 -0.0540  0.2052  0.0509
 1264PEP     CB46860   7.360  15.527  16.370  0.1130  0.2203 -0.1441
 1264PEP     CB46861   6.933  15.700  16.486 -0.0132  0.0919 -0.2995
 1264PEP     CB46862   6.636  15.551  16.728  0.0336  0.1566 -0.2993
 1264PEP     CB46863   6.375  15.243  16.849  0.3024  0.2135  0.3759
 1264PEP     CB46864   6.138  15.005  17.159  0.2307  0.2186 -0.1290
 1264PEP     CB46865   6.008  14.845  17.589 -0.1418  0.2248  0.0657
 1264PEP     CB46866   5.957  14.591  17.938  0.1119  0.0431 -0.2673
 1264PEP     CB46867   6.149  14.733  18.336  0.2150 -0.0241 -0.1782
 1264PEP     CB46868   6.493  15.032  18.428 -0.0380 -0.1042  0.0014
 1264PEP     CB46869   6.557  15.474  18.320 -0.0483  0.4337  0.3807
 1264PEP     CB46870   6.488  15.818  17.981 -0.1130  0.3458  0.1484
 1264PEP     CB46871   6.176  15.814  17.702  0.1507  0.0595 -0.2233
 1264PEP     CB46872   5.737  15.644  17.755  0.0260  0.2890  0.1655
 1264PEP     CB46873   5.368  15.486  17.775  0.0201  0.0536  0.3939
 1264PEP     CB46874   5.101  15.152  17.564  0.3249 -0.0654 -0.1091
 1264PEP     CB46875   5.089  15.015  17.183  0.0392  0.5787 -0.4815
 1264PEP     CB46876   5.260  14.852  16.773 -0.1937 -0.1231  0.0206
 1264PEP     CB46877   5.227  14.377  16.527  0.3370  0.0294 -0.1055
 1264PEP     CB46878   4.998  13.980  16.613  0.1503 -0.0664  0.2343
 1264PEP     CB46879   4.622  13.668  16.530  0.1045 -0.3128  0.0854
 1264PEP     CB46880   4.186  13.562  16.510  0.2225  0.2290  0.1954
 1265PEP     CB46881  15.966  11.478   3.047 -0.5212  0.1093 -0.2519
 1265PEP     CB46882  15.935  11.485   2.562 -0.3363 -0.2946 -0.3644
 1265PEP     CB46883  15.781  11.853   2.297  0.0236 -0.0938  0.0426
 1265PEP     CB46884  15.438  12.168   2.333 -0.1266 -0.0964  0.2832
 1265PEP     CB46885  15.298  12.406   2.645  0.1487 -0.2169  0.2686
 1265PEP     CB46886  15.091  12.528   2.954  0.4710 -0.4027  0.0505
 1265PEP     CB46887  15.091  12.449   3.335 -0.4073 -0.1475  0.3074
 1265PEP     CB46888  15.391  12.519   3.727 -0.2104  0.3475  0.0351
 1265PEP     CB46889  15.599  12.888   3.904  0.1742 -0.3944  0.1769
 1265PEP     CB46890  15.736  13.266   3.728 -0.1784  0.0904  0.0792
 1265PEP     CB46891  15.513  13.485   3.453  0.6158  0.1208  0.0987
 1265PEP     CB46892  15.523  13.434   3.078  0.1223 -0.2955  0.2878
 1265PEP     CB46893  15.524  13.079   2.963  0.2774 -0.0455  0.3550
 1265PEP     CB46894  15.347  12.852   3.221 -0.0344  0.0293 -0.1003
 1265PEP     CB46895  15.163  12.910   3.543  0.0379  0.1712  0.5678
 1265PEP     CB46896  14.784  12.776   3.893  0.2368 -0.1513 -0.1560
 1265PEP     CB46897  14.649  12.728   4.346 -0.0075 -0.1411 -0.2923
 1265PEP     CB46898  14.470  12.800   4.752  0.3150  0.3108  0.2250
 1265PEP     CB46899  14.376  12.854   5.148  0.0641  0.3714 -0.0831
 1265PEP     CB46900  14.317  12.905   5.593  0.0292 -0.2416  0.1175
 1265PEP     CB46901  14.275  12.921   6.010  0.1537 -0.2183  0.5648
 1265PEP     CB46902  14.325  12.869   6.424 -0.1917  0.1078 -0.2450
 1265PEP     CB46903  14.330  12.874   6.766 -0.4432 -0.4758 -0.2369
 1265PEP     CB46904  14.001  12.791   7.100 -0.2605  0.0213  0.1170
 1265PEP     CB46905  13.759  13.022   7.301  0.0920 -0.2525 -0.1587
 1265PEP     CB46906  13.451  13.256   7.450  0.2159  0.3657 -0.2077
 1265PEP     CB46907  13.064  13.211   7.712 -0.0678 -0.1464 -0.4046
 1265PEP     CB46908  12.920  12.921   8.072 -0.1120 -0.2485  0.4212
 1265PEP     CB46909  13.168  12.605   8.282 -0.0029 -0.1550 -0.0826
 1265PEP     CB46910  13.310  12.461   8.663 -0.2226 -0.1074  0.2019
 1265PEP     CB46911  13.681  12.207   8.926 -0.3155 -0.2896 -0.3778
 1265PEP     CB46912  13.835  12.111   9.366  0.0235  0.4496  0.0783
 1265PEP     CB46913  14.142  11.808   9.509 -0.0104 -0.0167 -0.2464
 1265PEP     CB46914  14.516  11.514   9.307  0.2933  0.2824 -0.1405
 1265PEP     CB46915  14.962  11.550   9.192 -0.0913 -0.3633 -0.1114
 1265PEP     CB46916  15.440  11.770   9.170 -0.6055  0.0555 -0.3138
 1265PEP     CB46917  15.863  11.941   9.171 -0.4044 -0.0251 -0.1613
 1265PEP     CB46918  16.268  11.831   9.308 -0.1009  0.0265 -0.3596
 1265PEP     CB46919  16.727  11.923   9.446 -0.3562  0.0216 -0.1309
 1265PEP     CB46920  17.165  12.047   9.682 -0.1238  0.3785 -0.2401
 1266PEP     CB46921  18.360   0.952  17.657 -0.3130 -0.0049  0.2546
 1266PEP     CB46922  18.032   0.978  17.253  0.2834 -0.1359 -0.1160
 1266PEP     CB46923  17.886   0.697  16.911 -0.3391 -0.1711 -0.0637
 1266PEP     CB46924  17.988   0.279  17.060 -0.2720 -0.1073  0.1014
 1266PEP     CB46925  18.410   0.080  17.023  0.0582  0.3337  0.1606
 1266PEP     CB46926  18.736   0.060  16.800  0.0657 -0.2060  0.2519
 1266PEP     CB46927  19.108  -0.144  16.539 -0.1086 -0.0173 -0.1480
 1266PEP     CB46928  19.278  -0.260  16.048  0.0652 -0.1355 -0.0868
 1266PEP     CB46929  19.125  -0.542  15.774  0.0967 -0.1529 -0.1643
 1266PEP     CB46930  19.155  -0.986  15.749  0.0344  0.1993 -0.4968
 1266PEP     CB46931  19.220  -1.413  15.645  0.1724 -0.3229  0.4381
 1266PEP     CB46932  19.279  -1.812  15.776  0.2611  0.0638  0.2349
 1266PEP     CB46933  19.172  -2.035  16.168 -0.3302  0.2417  0.3475
 1266PEP     CB46934  18.976  -2.348  16.157  0.2182 -0.2696 -0.1061
 1266PEP     CB46935  18.963  -2.734  15.890 -0.0436 -0.1120 -0.1402
 1266PEP     CB46936  18.652  -2.909  15.689  0.0271  0.2270  0.4591
 1266PEP     CB46937  18.306  -2.811  15.594 -0.2474 -0.3625 -0.0046
 1266PEP     CB46938  18.151  -2.415  15.509 -0.2108 -0.2894 -0.0580
 1266PEP     CB46939  18.402  -2.091  15.466 -0.4333  0.0227 -0.5653
 1266PEP     CB46940  18.276  -1.652  15.500  0.1591 -0.3306  0.0856
 1266PEP     CB46941  17.939  -1.260  15.690  0.0992 -0.1607 -0.1485
 1266PEP     CB46942  17.732  -0.868  15.686 -0.0955  0.1044  0.1025
 1266PEP     CB46943  17.626  -0.373  15.795  0.1678 -0.0407 -0.1650
 1266PEP     CB46944  17.372   0.029  15.942  0.0027  0.0486  0.0426
 1266PEP     CB46945  17.235   0.406  16.052  0.1737  0.3017 -0.0670
 1266PEP     CB46946  17.162   0.816  16.126 -0.2044 -0.2876 -0.0074
 1266PEP     CB46947  17.375   1.204  16.146  0.3333 -0.1403  0.1885
 1266PEP     CB46948  17.683   1.478  16.026  0.2141 -0.2699  0.1101
 1266PEP     CB46949  17.972   1.613  15.660 -0.1078  0.0450 -0.1664
 1266PEP     CB46950  18.416   1.652  15.762 -0.1069  0.0271 -0.0894
 1266PEP     CB46951  18.644   1.899  16.126  0.0149 -0.0502  0.0149
 1266PEP     CB46952  19.067   1.944  16.259 -0.1152 -0.1873 -0.1172
 1266PEP     CB46953  19.474   2.003  16.181 -0.2947 -0.1896  0.0091
 1266PEP     CB46954  19.857   1.869  16.193  0.1412 -0.2414  0.1699
 1266PEP     CB46955  20.231   1.820  15.952 -0.5425  0.1143 -0.2780
 1266PEP     CB46956  20.392   1.734  15.637  0.2694  0.3456 -0.1111
 1266PEP     CB46957  20.601   1.341  15.503  0.2145 -0.0228 -0.2638
 1266PEP     CB46958  20.931   1.032  15.430  0.0061  0.1227  0.2998
 1266PEP     CB46959  21.262   0.932  15.706 -0.1233  0.0381  0.0297
 1266PEP     CB46960  21.681   1.135  15.782 -0.0514  0.2238 -0.1044
 1267PEP     CB46961   0.482  14.573   3.935 -0.2033 -0.0483 -0.2979
 1267PEP     CB46962   0.783  14.915   4.047  0.3530  0.1141  0.2159
 1267PEP     CB46963   1.144  14.950   4.225  0.6200  0.0294 -0.1731
 1267PEP     CB46964   1.594  14.831   4.496  0.2912 -0.0588  0.4227
 1267PEP     CB46965   2.004  15.079   4.548  0.0977 -0.3772 -0.1382
 1267PEP     CB46966   2.395  15.138   4.278 -0.3399  0.0480 -0.1030
 1267PEP     CB46967   2.687  15.006   4.071  0.4427  0.2593 -0.4012
 1267PEP     CB46968   2.852  14.598   4.011 -0.4922  0.2100 -0.0476
 1267PEP     CB46969   2.964  14.226   4.290  0.2031  0.0948  0.4463
 1267PEP     CB46970   2.753  13.918   4.545  0.0107 -0.4198  0.0597
 1267PEP     CB46971   2.398  13.721   4.680 -0.1000 -0.1136  0.1428
 1267PEP     CB46972   2.102  13.411   4.778  0.4071 -0.3354 -0.2585
 1267PEP     CB46973   1.758  13.168   4.937  0.1964 -0.1934 -0.0935
 1267PEP     CB46974   1.727  12.800   5.243  0.0435 -0.2213  0.0894
 1267PEP     CB46975   1.875  12.805   5.705 -0.0025  0.4842  0.5138
 1267PEP     CB46976   1.821  13.166   6.065  0.2758  0.1093  0.1238
 1267PEP     CB46977   2.023  13.603   6.238 -0.0621  0.1362  0.0432
 1267PEP     CB46978   2.385  13.921   6.388  0.0986  0.0488 -0.1029
 1267PEP     CB46979   2.641  14.242   6.483  0.2412  0.0368  0.0988
 1267PEP     CB46980   3.059  14.418   6.507  0.2535 -0.4280  0.3791
 1267PEP     CB46981   3.364  14.377   6.822 -0.0238  0.2566  0.1961
 1267PEP     CB46982   3.569  14.056   7.128  0.1173 -0.3994 -0.4857
 1267PEP     CB46983   3.928  14.104   7.265 -0.0445  0.2156 -0.2155
 1267PEP     CB46984   4.345  14.239   7.475  0.1256 -0.2828  0.1718
 1267PEP     CB46985   4.759  14.418   7.407  0.0227 -0.1682 -0.3064
 1267PEP     CB46986   4.948  14.757   7.263 -0.1635  0.3888 -0.1269
 1267PEP     CB46987   5.059  15.213   7.032 -0.0712 -0.2059  0.3291
 1267PEP     CB46988   5.171  15.201   6.619 -0.3312 -0.2282  0.2003
 1267PEP     CB46989   5.151  14.963   6.298 -0.1070  0.4705 -0.3989
 1267PEP     CB46990   5.498  14.876   6.008 -0.1533  0.0513  0.1748
 1267PEP     CB46991   5.945  14.976   6.027  0.0125 -0.1491 -0.0162
 1267PEP     CB46992   6.399  14.818   6.135 -0.0580  0.0456 -0.0361
 1267PEP     CB46993   6.451  14.445   6.289 -0.1552  0.5882  0.0856
 1267PEP     CB46994   6.213  14.105   6.293 -0.1018 -0.0960 -0.2977
 1267PEP     CB46995   5.873  14.084   6.636  0.1500 -0.0547  0.3886
 1267PEP     CB46996   5.804  14.326   6.981  0.2924 -0.0174 -0.2641
 1267PEP     CB46997   5.897  14.707   7.103 -0.0390  0.1450 -0.0171
 1267PEP     CB46998   6.094  15.023   7.157  0.1225 -0.0109 -0.2055
 1267PEP     CB46999   6.302  15.381   7.193 -0.0973  0.1912  0.1864
 1267PEP     CB47000   6.552  15.683   7.059 -0.1227  0.1460  0.0098
 1268PEP     CB47001  12.778  20.110  15.859  0.3871 -0.0583 -0.2541
 1268PEP     CB47002  12.764  20.506  16.048 -0.3289 -0.2280  0.0633
 1268PEP     CB47003  12.994  20.864  15.925  0.0533 -0.2211  0.0809
 1268PEP     CB47004  13.290  20.846  15.642  0.0700  0.6924 -0.2130
 1268PEP     CB47005  13.484  20.811  15.179  0.3832 -0.0228 -0.4932
 1268PEP     CB47006  13.883  20.931  14.990 -0.2473  0.0504  0.2161
 1268PEP     CB47007  14.013  21.088  14.534 -0.3833 -0.1004  0.4040
 1268PEP     CB47008  13.754  21.052  14.227 -0.0647 -0.2187 -0.0966
 1268PEP     CB47009  13.477  21.397  14.090 -0.2148  0.2482  0.1870
 1268PEP     CB47010  13.239  21.591  14.370 -0.1671 -0.3998  0.3343
 1268PEP     CB47011  13.209  21.349  14.758 -0.2453 -0.1667  0.1913
 1268PEP     CB47012  12.755  21.087  14.822  0.1488  0.3660  0.3039
 1268PEP     CB47013  12.400  20.986  14.510 -0.2191  0.7051  0.2375
 1268PEP     CB47014  12.343  21.177  14.135 -0.0207 -0.0377 -0.2570
 1268PEP     CB47015  12.277  21.642  14.126  0.0246  0.3496  0.0089
 1268PEP     CB47016  12.366  21.950  14.290 -0.1063 -0.3540 -0.1437
 1268PEP     CB47017  12.522  22.396  14.255 -0.1940  0.2337  0.1745
 1268PEP     CB47018  12.765  22.608  14.047  0.0257 -0.1072  0.0853
 1268PEP     CB47019  13.140  22.960  13.884 -0.4184  0.2104  0.1412
 1268PEP     CB47020  13.545  23.245  13.808  0.0942  0.2822 -0.1793
 1268PEP     CB47021  14.014  23.241  13.600  0.3320 -0.0350  0.3252
 1268PEP     CB47022  14.193  23.332  13.213  0.1027  0.2008  0.1671
 1268PEP     CB47023  14.213  23.688  12.900 -0.2520  0.3701  0.6266
 1268PEP     CB47024  14.139  24.037  12.495  0.3071  0.0500  0.2384
 1268PEP     CB47025  14.144  24.229  12.093  0.1508 -0.3183  0.3285
 1268PEP     CB47026  14.167  24.164  11.742  0.0189 -0.0396  0.0575
 1268PEP     CB47027  14.365  24.185  11.341 -0.3887  0.1555  0.1801
 1268PEP     CB47028  14.768  24.289  11.074 -0.1023  0.3929  0.1840
 1268PEP     CB47029  14.858  24.662  10.910 -0.5038  0.1669  0.1209
 1268PEP     CB47030  14.974  24.966  10.549 -0.2544  0.0611  0.1875
 1268PEP     CB47031  15.195  25.229  10.330 -0.1898 -0.1712 -0.0020
 1268PEP     CB47032  15.502  25.445  10.080  0.1400  0.2956  0.1482
 1268PEP     CB47033  15.865  25.450   9.734  0.0598  0.2425  0.2154
 1268PEP     CB47034  16.137  25.605   9.513  0.1426 -0.2259 -0.0719
 1268PEP     CB47035  16.299  25.997   9.605 -0.1073 -0.1273  0.0402
 1268PEP     CB47036  16.156  26.374   9.621  0.1043  0.1427  0.0557
 1268PEP     CB47037  15.700  26.499   9.457 -0.0471  0.1739  0.1118
 1268PEP     CB47038  15.400  26.177   9.503  0.0753 -0.0782 -0.1691
 1268PEP     CB47039  15.145  25.951   9.814  0.2742  0.1548 -0.2611
 1268PEP     CB47040  15.197  25.843  10.246 -0.2723  0.0726 -0.4215
 1269PEP     CB47041  20.020   3.722   8.799  0.0884  0.0926 -0.0507
 1269PEP     CB47042  20.312   3.384   8.839  0.1003 -0.0307  0.1149
 1269PEP     CB47043  20.545   3.145   9.264  0.1604 -0.3736 -0.1156
 1269PEP     CB47044  20.358   2.984   9.662 -0.2397  0.2599  0.0017
 1269PEP     CB47045  20.341   2.824  10.116  0.2091 -0.4074  0.4778
 1269PEP     CB47046  20.050   2.603  10.483  0.2393 -0.0651 -0.0291
 1269PEP     CB47047  19.692   2.536  10.637  0.2773 -0.1197 -0.0622
 1269PEP     CB47048  19.223   2.277  10.624 -0.4602 -0.3058 -0.5232
 1269PEP     CB47049  18.801   2.309  10.551 -0.1392  0.4042 -0.3359
 1269PEP     CB47050  18.707   2.572  10.130 -0.2817  0.2999  0.2868
 1269PEP     CB47051  18.986   2.759   9.909  0.1038 -0.0179  0.1140
 1269PEP     CB47052  19.368   2.826   9.972  0.2545 -0.0637 -0.0794
 1269PEP     CB47053  19.546   2.922  10.396 -0.0183 -0.3174  0.0600
 1269PEP     CB47054  19.174   2.945  10.651 -0.0213 -0.0236 -0.1273
 1269PEP     CB47055  18.765   3.011  10.371  0.4246  0.1249  0.1667
 1269PEP     CB47056  18.500   3.158  10.091  0.3676  0.2790  0.1307
 1269PEP     CB47057  18.675   3.235   9.625 -0.2280 -0.0848  0.1911
 1269PEP     CB47058  19.097   3.384   9.482  0.3201 -0.5234 -0.2606
 1269PEP     CB47059  19.559   3.315   9.494  0.2920  0.3584  0.2509
 1269PEP     CB47060  19.865   3.105   9.690 -0.1284  0.1278 -0.4078
 1269PEP     CB47061  19.905   2.715   9.834 -0.0695 -0.1654  0.2455
 1269PEP     CB47062  20.133   2.368  10.002  0.1335  0.5459 -0.0628
 1269PEP     CB47063  20.454   2.357  10.358 -0.3741 -0.2330 -0.2502
 1269PEP     CB47064  20.467   2.415  10.879  0.2418 -0.1867 -0.2618
 1269PEP     CB47065  20.133   2.762  11.060  0.0976 -0.1653  0.0851
 1269PEP     CB47066  19.963   3.013  10.740 -0.0631  0.2376 -0.1222
 1269PEP     CB47067  19.998   3.117  10.289 -0.4334 -0.3204  0.1232
 1269PEP     CB47068  20.216   3.396   9.862  0.1370  0.0433 -0.0859
 1269PEP     CB47069  20.329   3.743   9.556 -0.3113 -0.3995 -0.2147
 1269PEP     CB47070  20.337   3.838   9.143 -0.2589 -0.3134 -0.0497
 1269PEP     CB47071  20.367   4.141   8.867  0.0940 -0.0736  0.1095
 1269PEP     CB47072  20.715   4.442   8.796 -0.3894  0.1010 -0.0580
 1269PEP     CB47073  20.784   4.734   8.518  0.0133 -0.0859  0.0370
 1269PEP     CB47074  20.824   4.854   8.117  0.2776  0.1765  0.0177
 1269PEP     CB47075  21.053   4.935   7.773 -0.0525 -0.1131 -0.1626
 1269PEP     CB47076  21.468   4.943   7.499 -0.0510  0.2171  0.1248
 1269PEP     CB47077  21.801   5.248   7.376  0.1759 -0.3563  0.0059
 1269PEP     CB47078  21.856   5.650   7.296 -0.0544  0.1716 -0.1760
 1269PEP     CB47079  21.968   6.064   7.309  0.2588 -0.3032 -0.3850
 1269PEP     CB47080  21.937   6.553   7.485 -0.2387  0.1479  0.3398
 1270PEP     CB47081   1.445  18.532  14.434 -0.4682  0.0886 -0.0331
 1270PEP     CB47082   1.913  18.332  14.470 -0.4496 -0.0683 -0.1706
 1270PEP     CB47083   2.336  18.383  14.478 -0.2395  0.2415  0.2394
 1270PEP     CB47084   2.609  18.468  14.149  0.0838  0.2907  0.1589
 1270PEP     CB47085   3.005  18.532  13.932  0.0581 -0.1937  0.0907
 1270PEP     CB47086   3.290  18.792  13.627 -0.0045  0.3545 -0.1588
 1270PEP     CB47087   3.432  19.282  13.530 -0.2567  0.0174  0.1838
 1270PEP     CB47088   3.578  19.689  13.645  0.2441  0.1678 -0.1153
 1270PEP     CB47089   3.476  20.014  13.980 -0.0151 -0.1043  0.0275
 1270PEP     CB47090   3.085  20.256  14.037  0.0676  0.2019  0.0850
 1270PEP     CB47091   2.763  20.096  14.280  0.0005 -0.0263  0.2720
 1270PEP     CB47092   2.913  19.882  14.657  0.0616 -0.3995  0.1685
 1270PEP     CB47093   3.306  19.993  14.757  0.1043  0.0210  0.0116
 1270PEP     CB47094   3.600  20.331  14.538  0.2531  0.1398  0.5046
 1270PEP     CB47095   3.665  20.468  14.097 -0.0352  0.2538 -0.3276
 1270PEP     CB47096   3.795  20.249  13.641  0.0895 -0.1264  0.1503
 1270PEP     CB47097   3.951  19.837  13.335 -0.3690 -0.1645  0.2260
 1270PEP     CB47098   4.167  19.616  13.108 -0.2928 -0.5008 -0.0825
 1270PEP     CB47099   4.345  19.593  12.645  0.0420  0.5037 -0.5709
 1270PEP     CB47100   4.424  19.849  12.238 -0.3803  0.2834 -0.1106
 1270PEP     CB47101   4.563  20.196  12.057  0.2645 -0.5399  0.0175
 1270PEP     CB47102   4.837  20.526  12.301 -0.1509  0.2168  0.5257
 1270PEP     CB47103   5.319  20.418  12.360 -0.1155  0.1890 -0.1079
 1270PEP     CB47104   5.551  20.166  12.011 -0.0980 -0.0452 -0.0340
 1270PEP     CB47105   5.309  19.951  11.641  0.0842 -0.3005 -0.1344
 1270PEP     CB47106   4.852  19.856  11.690 -0.0749  0.1856 -0.0237
 1270PEP     CB47107   4.590  19.539  11.654  0.2677  0.3780  0.3187
 1270PEP     CB47108   4.331  19.173  11.548 -0.3017 -0.0900 -0.1595
 1270PEP     CB47109   4.144  18.760  11.495  0.0186 -0.0120 -0.0940
 1270PEP     CB47110   4.107  18.374  11.224  0.1278 -0.2662  0.3641
 1270PEP     CB47111   3.844  18.076  11.205  0.1421 -0.1656 -0.1245
 1270PEP     CB47112   3.526  18.083  11.462  0.1138  0.0795 -0.3525
 1270PEP     CB47113   3.460  18.366  11.818  0.0166 -0.1911 -0.2816
 1270PEP     CB47114   3.300  18.550  12.157  0.0271 -0.0346 -0.2678
 1270PEP     CB47115   3.355  18.821  12.558 -0.0818 -0.2017 -0.0092
 1270PEP     CB47116   3.162  18.893  12.937  0.2179 -0.0592  0.4230
 1270PEP     CB47117   2.975  18.940  13.292  0.5324  0.0974  0.0260
 1270PEP     CB47118   2.612  18.907  13.650 -0.3067  0.1623  0.3219
 1270PEP     CB47119   2.707  18.985  14.034 -0.1378 -0.2218  0.1623
 1270PEP     CB47120   2.900  19.065  14.413  0.0710  0.5439  0.3306
 1271PEP     CB47121  19.846   2.383  18.029 -0.3839  0.6145 -0.1271
 1271PEP     CB47122  19.663   2.706  17.899  0.0885  0.0660  0.1809
 1271PEP     CB47123  19.628   3.025  17.628 -0.0266 -0.2886  0.1599
 1271PEP     CB47124  19.263   3.280  17.545 -0.0402  0.1617  0.1771
 1271PEP     CB47125  18.795   3.341  17.649  0.0763  0.0623 -0.4195
 1271PEP     CB47126  18.505   3.239  17.958 -0.1621 -0.0859  0.1739
 1271PEP     CB47127  18.074   3.084  18.019  0.2154  0.4333 -0.1108
 1271PEP     CB47128  17.643   2.875  17.939  0.0440  0.2231  0.4554
 1271PEP     CB47129  17.320   2.515  18.002  0.0272  0.1141  0.3453
 1271PEP     CB47130  16.937   2.241  17.803  0.2132  0.3499 -0.0776
 1271PEP     CB47131  16.977   1.864  17.522 -0.0387  0.0113  0.0103
 1271PEP     CB47132  16.865   1.440  17.463 -0.0988 -0.0268  0.1867
 1271PEP     CB47133  16.780   1.057  17.371 -0.3199  0.1487 -0.0113
 1271PEP     CB47134  16.742   0.666  17.119  0.0386 -0.0076  0.4494
 1271PEP     CB47135  16.800   0.307  16.963  0.5356  0.3427 -0.0638
 1271PEP     CB47136  16.591  -0.100  17.082  0.4639 -0.0627  0.0627
 1271PEP     CB47137  16.331  -0.183  17.378 -0.0397  0.2797 -0.4710
 1271PEP     CB47138  15.894  -0.134  17.620  0.0024 -0.1573  0.0079
 1271PEP     CB47139  15.397   0.054  17.571  0.0689  0.0099  0.2185
 1271PEP     CB47140  15.055  -0.095  17.425  0.2158  0.0080 -0.2063
 1271PEP     CB47141  14.841  -0.069  17.104 -0.0087 -0.0145  0.0502
 1271PEP     CB47142  14.845   0.111  16.735  0.0663  0.1634 -0.3388
 1271PEP     CB47143  14.898   0.212  16.325 -0.1560  0.3903  0.0658
 1271PEP     CB47144  15.076  -0.049  16.012  0.0446  0.1175  0.0362
 1271PEP     CB47145  15.095  -0.428  15.738  0.3636  0.1564  0.4156
 1271PEP     CB47146  14.979  -0.749  15.730 -0.1670  0.0719 -0.0809
 1271PEP     CB47147  14.553  -0.900  15.782  0.4563 -0.0681  0.1355
 1271PEP     CB47148  14.234  -1.099  15.853  0.1816 -0.1715 -0.2628
 1271PEP     CB47149  14.104  -1.537  15.792 -0.1331  0.0238  0.0669
 1271PEP     CB47150  14.101  -2.039  15.770  0.0678  0.3990  0.0007
 1271PEP     CB47151  14.350  -2.448  15.544  0.0271 -0.0569 -0.3795
 1271PEP     CB47152  14.717  -2.537  15.423  0.1866 -0.3078 -0.4167
 1271PEP     CB47153  15.016  -2.313  15.347 -0.1968  0.2708 -0.1624
 1271PEP     CB47154  15.382  -2.099  15.203  0.1380  0.1820  0.1791
 1271PEP     CB47155  15.468  -1.732  15.014 -0.2241 -0.1505 -0.3982
 1271PEP     CB47156  15.601  -1.352  14.877  0.4850  0.0738 -0.2652
 1271PEP     CB47157  15.577  -0.927  14.656  0.0590 -0.1397  0.4410
 1271PEP     CB47158  15.451  -0.566  14.350 -0.1938  0.4753 -0.1804
 1271PEP     CB47159  15.541  -0.452  13.850  0.0190  0.0635 -0.0788
 1271PEP     CB47160  15.658  -0.573  13.414 -0.2262  0.0090  0.1806
 1272PEP     CB47161   1.750   7.549  20.672  0.2123  0.3075 -0.1546
 1272PEP     CB47162   1.356   7.591  20.458  0.1860  0.0941  0.0931
 1272PEP     CB47163   1.220   7.934  20.305 -0.1671 -0.2275 -0.2525
 1272PEP     CB47164   1.362   8.287  20.008 -0.2753 -0.2605  0.3234
 1272PEP     CB47165   1.421   8.540  19.685  0.3517 -0.0367 -0.0004
 1272PEP     CB47166   1.498   8.915  19.470 -0.0826 -0.1019 -0.2809
 1272PEP     CB47167   1.820   9.063  19.216  0.0695  0.0195 -0.2115
 1272PEP     CB47168   2.223   9.372  19.088  0.0529 -0.0570  0.0870
 1272PEP     CB47169   2.432   9.694  18.879  0.1593  0.3079 -0.0765
 1272PEP     CB47170   2.711   9.908  18.740  0.1027  0.0495  0.0041
 1272PEP     CB47171   2.792  10.367  18.523  0.2707  0.2250 -0.1213
 1272PEP     CB47172   3.121  10.625  18.206 -0.1005  0.0874 -0.0154
 1272PEP     CB47173   3.586  10.613  18.114 -0.0215 -0.2921 -0.1312
 1272PEP     CB47174   3.735  10.180  18.053 -0.7701  0.4244 -0.1793
 1272PEP     CB47175   3.442   9.848  18.025  0.0867 -0.0949  0.2027
 1272PEP     CB47176   3.135   9.537  17.852 -0.3028  0.2866 -0.3563
 1272PEP     CB47177   2.989   9.502  17.430 -0.2933 -0.0123 -0.2705
 1272PEP     CB47178   2.973   9.487  16.970 -0.3265 -0.0148  0.0858
 1272PEP     CB47179   3.299   9.532  16.688  0.1218  0.0795 -0.1660
 1272PEP     CB47180   3.589   9.238  16.572 -0.0055  0.0994 -0.2581
 1272PEP     CB47181   4.006   9.131  16.705 -0.0710  0.3818 -0.0557
 1272PEP     CB47182   4.409   9.350  16.892 -0.0338 -0.0925  0.3108
 1272PEP     CB47183   4.656   9.644  17.158  0.2189 -0.1701  0.0114
 1272PEP     CB47184   4.828   9.941  17.393 -0.0060  0.3065 -0.1115
 1272PEP     CB47185   5.145  10.098  17.690 -0.6417  0.0727  0.1614
 1272PEP     CB47186   5.608  10.041  17.712 -0.4752 -0.2486  0.2269
 1272PEP     CB47187   5.772   9.571  17.673 -0.1685  0.2940 -0.2150
 1272PEP     CB47188   5.488   9.185  17.585 -0.2512  0.3700 -0.0871
 1272PEP     CB47189   5.265   8.844  17.509 -0.1005  0.2273 -0.0132
 1272PEP     CB47190   5.035   8.607  17.152  0.0090 -0.2366  0.2780
 1272PEP     CB47191   5.030   8.433  16.759  0.3753  0.2462  0.3619
 1272PEP     CB47192   5.327   8.165  16.641  0.3038 -0.7563  0.0416
 1272PEP     CB47193   5.663   7.912  16.734  0.1590 -0.1497  0.0444
 1272PEP     CB47194   6.031   7.716  16.642 -0.2667  0.1646  0.1754
 1272PEP     CB47195   6.339   7.525  16.805 -0.2796  0.0021 -0.2737
 1272PEP     CB47196   6.269   7.184  17.042 -0.1979 -0.2323  0.3740
 1272PEP     CB47197   6.171   6.807  17.196 -0.0150 -0.0100 -0.3701
 1272PEP     CB47198   5.818   6.557  17.329  0.0044  0.0356 -0.2924
 1272PEP     CB47199   5.606   6.185  17.264 -0.0321  0.3051  0.0821
 1272PEP     CB47200   5.565   5.798  17.034 -0.6386 -0.4069  0.4121
 1273PEP     CB47201  16.582  21.301  16.650 -0.2326 -0.0016 -0.0722
 1273PEP     CB47202  16.312  21.441  16.361  0.1076  0.0916 -0.0808
 1273PEP     CB47203  15.912  21.586  16.401 -0.0278  0.1754 -0.1719
 1273PEP     CB47204  15.529  21.500  16.615  0.1183 -0.3142 -0.2225
 1273PEP     CB47205  15.132  21.249  16.704  0.1734 -0.2218  0.1478
 1273PEP     CB47206  14.868  21.022  17.005 -0.0225 -0.0357 -0.1240
 1273PEP     CB47207  14.371  20.777  17.077  0.0485 -0.1635  0.1575
 1273PEP     CB47208  13.949  20.502  17.177 -0.0209  0.1269  0.1714
 1273PEP     CB47209  13.591  20.292  17.180 -0.1178 -0.5163  0.4189
 1273PEP     CB47210  13.304  20.504  17.134  0.2982 -0.1310 -0.5953
 1273PEP     CB47211  13.304  20.976  16.986  0.0622  0.1960  0.3078
 1273PEP     CB47212  13.324  21.405  16.909  0.2532  0.0383  0.4312
 1273PEP     CB47213  13.575  21.681  16.821 -0.5569 -0.1984  0.1496
 1273PEP     CB47214  13.967  21.655  16.897  0.2449  0.3486 -0.4163
 1273PEP     CB47215  14.204  21.392  17.090 -0.1284  0.2799  0.1145
 1273PEP     CB47216  14.402  21.199  17.395  0.2161  0.5328  0.1117
 1273PEP     CB47217  14.839  21.117  17.651  0.0417  0.1120  0.2221
 1273PEP     CB47218  15.059  20.870  17.891  0.4161 -0.1599 -0.0303
 1273PEP     CB47219  15.313  20.723  18.338 -0.1689  0.3706  0.3834
 1273PEP     CB47220  15.493  20.666  18.713  0.1773 -0.2249 -0.2602
 1273PEP     CB47221  15.770  20.321  18.841 -0.5080 -0.0912  0.1633
 1273PEP     CB47222  16.017  20.123  19.032  0.0389 -0.1848 -0.0060
 1273PEP     CB47223  16.376  20.319  19.037  0.3213 -0.2646 -0.1709
 1273PEP     CB47224  16.499  20.830  19.138  0.2650  0.1386  0.4456
 1273PEP     CB47225  16.364  21.186  19.196 -0.1566  0.4546  0.0828
 1273PEP     CB47226  16.048  21.432  19.333  0.3064 -0.2843  0.1011
 1273PEP     CB47227  15.649  21.583  19.418 -0.0724  0.0233  0.1918
 1273PEP     CB47228  15.284  21.421  19.281  0.0735 -0.0992 -0.0398
 1273PEP     CB47229  15.168  21.161  18.999 -0.2239  0.1769  0.0911
 1273PEP     CB47230  15.018  20.912  18.695 -0.1220 -0.1143 -0.2500
 1273PEP     CB47231  14.587  20.822  18.546  0.0189  0.1184  0.0930
 1273PEP     CB47232  14.217  20.984  18.236 -0.0983  0.0143 -0.2243
 1273PEP     CB47233  14.080  21.359  17.989 -0.2647 -0.1009  0.5359
 1273PEP     CB47234  14.118  21.561  17.552  0.1535 -0.0702  0.1192
 1273PEP     CB47235  14.275  21.846  17.311  0.0651 -0.2540  0.2880
 1273PEP     CB47236  14.383  21.912  16.837  0.0848  0.2625  0.2765
 1273PEP     CB47237  14.098  21.573  16.474 -0.0491  0.0313  0.1907
 1273PEP     CB47238  13.782  21.253  16.723  0.1226 -0.1555 -0.0152
 1273PEP     CB47239  13.792  21.110  17.170  0.2693 -0.3429  0.0808
 1273PEP     CB47240  13.778  21.151  17.630  0.1768  0.1499  0.0757
 1274PEP     CB47241   4.574  20.282   6.640  0.4373 -0.3527 -0.3090
 1274PEP     CB47242   4.653  20.223   6.196  0.0830  0.0216  0.2124
 1274PEP     CB47243   4.341  19.988   5.849 -0.3678 -0.3068 -0.5895
 1274PEP     CB47244   4.066  19.654   5.896 -0.0477  0.1935  0.1656
 1274PEP     CB47245   3.672  19.671   6.045 -0.0002  0.0665  0.3682
 1274PEP     CB47246   3.303  19.829   5.938  0.0273  0.1905 -0.1113
 1274PEP     CB47247   3.097  20.282   5.905 -0.2487  0.1764  0.1828
 1274PEP     CB47248   3.057  20.674   6.127  0.0403  0.1825 -0.0495
 1274PEP     CB47249   2.874  20.942   6.420  0.2950  0.1595  0.2996
 1274PEP     CB47250   2.777  21.313   6.700  0.3508 -0.1156  0.3418
 1274PEP     CB47251   2.410  21.440   7.036 -0.0675  0.1035 -0.1721
 1274PEP     CB47252   1.990  21.478   7.183 -0.0516 -0.1215 -0.0342
 1274PEP     CB47253   1.611  21.684   7.250  0.2943 -0.3049  0.2662
 1274PEP     CB47254   1.134  21.756   7.224 -0.1897  0.3967 -0.2245
 1274PEP     CB47255   0.730  21.924   7.310 -0.0664 -0.0104  0.1197
 1274PEP     CB47256   0.433  22.215   7.428 -0.0693 -0.1586 -0.2084
 1274PEP     CB47257   0.190  22.536   7.317  0.1138  0.0381  0.3161
 1274PEP     CB47258   0.151  22.897   7.099 -0.0879  0.1319 -0.2469
 1274PEP     CB47259  -0.243  23.020   6.926 -0.1933 -0.1962 -0.0547
 1274PEP     CB47260  -0.639  23.153   6.932  0.1073  0.3181  0.2072
 1274PEP     CB47261  -1.150  23.115   7.014 -0.1459  0.2086 -0.3752
 1274PEP     CB47262  -1.529  22.962   7.039 -0.1522  0.0194 -0.0322
 1274PEP     CB47263  -1.948  22.934   6.938  0.0014 -0.2146  0.0066
 1274PEP     CB47264  -2.370  22.776   6.780  0.2379 -0.0010  0.4295
 1274PEP     CB47265  -2.810  22.806   6.637  0.1630  0.0716 -0.1789
 1274PEP     CB47266  -3.115  22.936   6.884  0.1417  0.1652  0.3093
 1274PEP     CB47267  -3.225  23.184   7.162 -0.1264 -0.0602  0.0502
 1274PEP     CB47268  -3.337  23.211   7.592 -0.2765  0.4652 -0.1116
 1274PEP     CB47269  -3.483  23.033   7.936 -0.2668  0.3259 -0.5097
 1274PEP     CB47270  -3.539  22.964   8.368 -0.2086  0.2106 -0.1304
 1274PEP     CB47271  -3.447  22.755   8.792  0.1725 -0.1861 -0.6180
 1274PEP     CB47272  -3.413  22.372   9.030  0.2455 -0.1066  0.0818
 1274PEP     CB47273  -3.359  22.008   8.783  0.0128 -0.1471 -0.4043
 1274PEP     CB47274  -3.167  21.992   8.324 -0.0800 -0.0515  0.0136
 1274PEP     CB47275  -2.860  22.311   8.188 -0.0302 -0.0664 -0.0059
 1274PEP     CB47276  -2.955  22.811   8.201 -0.2199  0.1372 -0.2022
 1274PEP     CB47277  -3.078  23.229   8.255 -0.0964  0.0084  0.1508
 1274PEP     CB47278  -3.395  23.490   8.114 -0.0916  0.0747 -0.0890
 1274PEP     CB47279  -3.473  23.668   7.792  0.0104 -0.1248 -0.0261
 1274PEP     CB47280  -3.443  23.623   7.379 -0.0505 -0.1780  0.2038
 1275PEP     CB47281  15.412   3.373  14.608  0.1005  0.4483 -0.1259
 1275PEP     CB47282  15.424   3.089  14.321 -0.1917  0.0223 -0.1678
 1275PEP     CB47283  15.209   2.680  14.077  0.2036  0.6276  0.3703
 1275PEP     CB47284  14.837   2.398  13.934  0.3929 -0.2282 -0.1649
 1275PEP     CB47285  14.627   2.508  13.458 -0.0071 -0.2057  0.0024
 1275PEP     CB47286  14.907   2.841  13.175 -0.1944 -0.0105 -0.1371
 1275PEP     CB47287  15.199   3.212  13.334  0.0489 -0.0674 -0.0008
 1275PEP     CB47288  15.320   3.513  13.381  0.1452  0.1700  0.0633
 1275PEP     CB47289  15.489   3.925  13.586 -0.2152 -0.1887 -0.1593
 1275PEP     CB47290  15.291   4.324  13.469  0.1055 -0.2115 -0.1404
 1275PEP     CB47291  15.087   4.505  13.118  0.1336 -0.0178  0.0687
 1275PEP     CB47292  14.819   4.642  12.843 -0.0471 -0.0214  0.1698
 1275PEP     CB47293  14.673   4.608  12.431  0.3247 -0.0614 -0.1809
 1275PEP     CB47294  14.514   4.559  12.057  0.4001  0.0527  0.3584
 1275PEP     CB47295  14.458   4.698  11.694  0.2097  0.1071 -0.0023
 1275PEP     CB47296  14.545   4.664  11.219  0.4905 -0.3963  0.2164
 1275PEP     CB47297  14.661   4.333  10.890 -0.1906  0.0462  0.3435
 1275PEP     CB47298  14.698   3.994  10.564  0.1201  0.2498  0.4674
 1275PEP     CB47299  14.768   3.912  10.118 -0.1707  0.3981  0.0355
 1275PEP     CB47300  14.426   3.765   9.709 -0.1525  0.0544  0.3405
 1275PEP     CB47301  13.879   3.733   9.515  0.0601 -0.1661 -0.0064
 1275PEP     CB47302  13.514   3.653   9.480  0.1657 -0.1872  0.1255
 1275PEP     CB47303  13.245   4.022   9.628  0.1030  0.1559  0.1959
 1275PEP     CB47304  13.508   4.407   9.642  0.0461  0.0941 -0.0751
 1275PEP     CB47305  13.508   4.682   9.261  0.0819 -0.5776 -0.3143
 1275PEP     CB47306  13.147   4.856   9.054  0.2227  0.0497  0.2125
 1275PEP     CB47307  12.839   4.941   8.733  0.2669  0.1849  0.1622
 1275PEP     CB47308  12.704   4.886   8.270 -0.0962  0.2932  0.2713
 1275PEP     CB47309  12.401   4.802   7.923 -0.0990 -0.1598 -0.1874
 1275PEP     CB47310  11.984   4.759   7.752 -0.0106 -0.0821  0.2941
 1275PEP     CB47311  11.588   4.975   7.640 -0.2253 -0.2105  0.0526
 1275PEP     CB47312  11.413   5.409   7.403 -0.1236 -0.3201  0.1221
 1275PEP     CB47313  11.572   5.639   6.998  0.3878 -0.3216  0.1264
 1275PEP     CB47314  11.593   6.109   6.916  0.0706 -0.7152 -0.3135
 1275PEP     CB47315  12.009   6.374   7.019 -0.0125 -0.4388  0.0874
 1275PEP     CB47316  12.372   6.281   7.279  0.0613 -0.1372 -0.2475
 1275PEP     CB47317  12.553   6.395   7.728 -0.0662 -0.0385  0.1562
 1275PEP     CB47318  12.564   6.470   8.175  0.3376 -0.0353  0.0580
 1275PEP     CB47319  12.604   6.842   8.391 -0.6027  0.1532 -0.0334
 1275PEP     CB47320  12.563   7.036   8.706 -0.0239 -0.1777  0.0181
 1276PEP     CB47321  11.091  17.874   6.800  0.0144  0.0679  0.0672
 1276PEP     CB47322  11.109  17.682   7.232  0.0147 -0.1074  0.0187
 1276PEP     CB47323  11.078  17.504   7.618  0.1525 -0.2700 -0.1547
 1276PEP     CB47324  11.360  17.504   7.968 -0.0100  0.2718 -0.1647
 1276PEP     CB47325  11.804  17.469   7.885 -0.0666  0.0053  0.1383
 1276PEP     CB47326  12.238  17.555   7.807 -0.3454 -0.3160 -0.1264
 1276PEP     CB47327  12.654  17.828   7.595 -0.3106  0.0152 -0.1896
 1276PEP     CB47328  12.955  17.969   7.649 -0.2922 -0.1494  0.0351
 1276PEP     CB47329  13.364  17.998   7.709 -0.1393  0.0958 -0.1672
 1276PEP     CB47330  13.672  17.951   7.333 -0.1079 -0.1087  0.0845
 1276PEP     CB47331  13.955  17.989   7.028  0.3207  0.0685 -0.2224
 1276PEP     CB47332  14.044  17.666   6.905  0.3454  0.0403 -0.0486
 1276PEP     CB47333  13.915  17.284   7.162 -0.5121 -0.3231 -0.1155
 1276PEP     CB47334  13.478  17.225   7.415 -0.2629  0.1478  0.0659
 1276PEP     CB47335  13.459  17.269   7.752 -0.1107 -0.0342 -0.0012
 1276PEP     CB47336  13.647  17.308   8.209 -0.0594 -0.0465 -0.0582
 1276PEP     CB47337  13.797  17.352   8.569  0.1108  0.0285  0.1999
 1276PEP     CB47338  13.945  17.384   9.017 -0.2063 -0.3066  0.1526
 1276PEP     CB47339  14.057  17.042   9.294 -0.2100  0.0386 -0.1107
 1276PEP     CB47340  14.156  16.661   9.107  0.0562 -0.1490  0.2731
 1276PEP     CB47341  14.511  16.469   8.941  0.1509 -0.1060  0.4910
 1276PEP     CB47342  14.801  16.590   8.588  0.4422 -0.0762  0.0809
 1276PEP     CB47343  15.238  16.693   8.432  0.1336 -0.0310 -0.2099
 1276PEP     CB47344  15.640  16.858   8.193  0.0254  0.0875  0.2170
 1276PEP     CB47345  15.710  17.044   7.811 -0.1689 -0.3653 -0.2399
 1276PEP     CB47346  15.327  17.034   7.452  0.1742 -0.3572 -0.1711
 1276PEP     CB47347  15.027  16.724   7.388  0.1021 -0.0045 -0.0392
 1276PEP     CB47348  14.966  16.315   7.459  0.1529 -0.2417  0.1025
 1276PEP     CB47349  15.156  16.012   7.827  0.0752 -0.3500  0.1710
 1276PEP     CB47350  15.612  15.870   8.017 -0.1080  0.2000  0.1144
 1276PEP     CB47351  16.027  15.648   7.928 -0.0108 -0.1234  0.1180
 1276PEP     CB47352  16.250  15.363   7.630  0.3514 -0.4516 -0.0139
 1276PEP     CB47353  16.295  14.948   7.518 -0.1263 -0.0184  0.0609
 1276PEP     CB47354  16.435  14.651   7.866 -0.3486  0.1935  0.3685
 1276PEP     CB47355  16.604  14.701   8.195 -0.2594 -0.4066  0.1351
 1276PEP     CB47356  16.958  14.576   8.502 -0.0640  0.1704 -0.2169
 1276PEP     CB47357  17.277  14.314   8.655 -0.0836 -0.0695 -0.1413
 1276PEP     CB47358  17.195  13.925   8.997 -0.2592  0.3235 -0.0803
 1276PEP     CB47359  16.918  13.744   9.298  0.2292 -0.1448 -0.3847
 1276PEP     CB47360  16.650  13.679   9.558 -0.2436 -0.0703  0.2030
 1277PEP     CB47361  20.326  20.066   1.214  0.1208 -0.4931 -0.3148
 1277PEP     CB47362  20.658  20.011   1.602  0.4069  0.2000 -0.0688
 1277PEP     CB47363  20.858  20.006   1.998 -0.2355  0.0076  0.6546
 1277PEP     CB47364  20.987  19.768   2.291 -0.1413 -0.5780 -0.2345
 1277PEP     CB47365  20.992  19.721   2.635 -0.2422  0.0093 -0.1489
 1277PEP     CB47366  20.974  19.813   3.058 -0.1418  0.0106 -0.1377
 1277PEP     CB47367  21.192  19.769   3.442 -0.5527 -0.2151 -0.2240
 1277PEP     CB47368  21.569  19.905   3.451  0.0288 -0.3658 -0.2135
 1277PEP     CB47369  21.687  20.356   3.494  0.0652  0.2825 -0.0439
 1277PEP     CB47370  21.647  20.652   3.860  0.3838  0.2432  0.0076
 1277PEP     CB47371  21.295  20.883   4.047 -0.3046 -0.0750  0.1489
 1277PEP     CB47372  21.035  21.270   3.898 -0.2741 -0.1575  0.0709
 1277PEP     CB47373  20.902  21.578   3.776 -0.1381 -0.1112  0.2137
 1277PEP     CB47374  20.741  21.913   3.487  0.2912 -0.1275  0.2890
 1277PEP     CB47375  20.872  22.308   3.331  0.3032  0.0140 -0.1345
 1277PEP     CB47376  21.109  22.652   3.209  0.1391 -0.0361 -0.1128
 1277PEP     CB47377  21.508  22.698   3.426  0.1258 -0.1341  0.1699
 1277PEP     CB47378  21.754  22.783   3.842 -0.1999 -0.0131  0.1597
 1277PEP     CB47379  21.772  22.969   4.266 -0.2276 -0.1512  0.0761
 1277PEP     CB47380  21.975  23.001   4.592 -0.0970  0.2469  0.1461
 1277PEP     CB47381  21.948  23.006   5.052  0.0689  0.0656 -0.5036
 1277PEP     CB47382  22.284  23.010   5.346 -0.2219  0.2852 -0.3624
 1277PEP     CB47383  22.685  22.907   5.219  0.0558 -0.0924 -0.2988
 1277PEP     CB47384  23.094  23.071   5.005  0.1939  0.1091  0.2533
 1277PEP     CB47385  23.007  23.256   4.683  0.3094  0.2354  0.1906
 1277PEP     CB47386  22.987  23.348   4.245 -0.2157 -0.4535  0.2096
 1277PEP     CB47387  22.681  23.436   3.808 -0.1551  0.3854  0.1308
 1277PEP     CB47388  22.516  23.296   3.388  0.2589 -0.1402 -0.1174
 1277PEP     CB47389  22.680  23.039   3.033 -0.1317 -0.2561  0.0897
 1277PEP     CB47390  22.676  22.623   2.886  0.4359 -0.2942  0.2088
 1277PEP     CB47391  23.034  22.295   3.030 -0.3093  0.0398 -0.1264
 1277PEP     CB47392  23.442  22.302   3.018  0.0862  0.2143  0.0882
 1277PEP     CB47393  23.883  22.338   3.068  0.1037  0.0625  0.2272
 1277PEP     CB47394  24.283  22.301   3.157 -0.1617 -0.0059  0.2453
 1277PEP     CB47395  24.637  22.131   3.410  0.2011  0.5001  0.0942
 1277PEP     CB47396  25.047  22.123   3.662  0.3275  0.0413 -0.1446
 1277PEP     CB47397  25.267  22.517   3.812 -0.1025  0.0222 -0.1865
 1277PEP     CB47398  25.447  22.897   3.590 -0.2720 -0.0286  0.1935
 1277PEP     CB47399  25.637  22.959   3.189  0.0406 -0.0546  0.0413
 1277PEP     CB47400  25.834  22.885   2.747 -0.3724  0.1352 -0.2273
 1278PEP     CB47401  16.922  12.511  12.316 -0.1156  0.0641 -0.2641
 1278PEP     CB47402  16.955  12.515  12.735 -0.3145 -0.0714  0.2767
 1278PEP     CB47403  17.300  12.429  13.028  0.0162 -0.0509 -0.1575
 1278PEP     CB47404  17.443  11.997  13.300  0.0311  0.1373  0.1896
 1278PEP     CB47405  17.839  11.698  13.306 -0.0224  0.1473  0.0708
 1278PEP     CB47406  17.966  11.278  13.071  0.0414 -0.5782  0.0521
 1278PEP     CB47407  17.833  10.898  13.323  0.6950 -0.2706  0.4726
 1278PEP     CB47408  17.414  10.817  13.457  0.2150  0.3345  0.3562
 1278PEP     CB47409  17.061  11.057  13.248 -0.0246 -0.0133  0.2676
 1278PEP     CB47410  17.077  11.223  12.832 -0.0401  0.1626  0.2463
 1278PEP     CB47411  17.005  11.599  12.538 -0.1544  0.4688  0.0439
 1278PEP     CB47412  16.733  11.939  12.336 -0.1588 -0.0195 -0.0498
 1278PEP     CB47413  16.348  11.865  12.126  0.3963  0.1472  0.1705
 1278PEP     CB47414  16.032  11.620  12.144 -0.2139  0.2324 -0.1706
 1278PEP     CB47415  15.891  11.216  12.319 -0.1620 -0.0449 -0.4387
 1278PEP     CB47416  15.879  11.126  12.756  0.5007 -0.1406  0.0261
 1278PEP     CB47417  16.246  11.118  12.985  0.0661 -0.3417 -0.2436
 1278PEP     CB47418  16.611  11.387  12.966 -0.0001 -0.2134  0.0365
 1278PEP     CB47419  16.931  11.644  13.230  0.3530 -0.0444  0.0237
 1278PEP     CB47420  16.926  11.992  13.521 -0.0285 -0.1848  0.2474
 1278PEP     CB47421  17.066  12.190  13.944 -0.2642 -0.1248 -0.1431
 1278PEP     CB47422  17.189  11.926  14.313 -0.1698 -0.3488  0.2844
 1278PEP     CB47423  16.969  11.514  14.272  0.0272  0.0711 -0.1273
 1278PEP     CB47424  16.485  11.524  14.415 -0.3380  0.1931  0.3204
 1278PEP     CB47425  16.284  11.562  14.736  0.0769 -0.3561 -0.1367
 1278PEP     CB47426  16.342  11.919  14.946 -0.3819 -0.2192  0.1160
 1278PEP     CB47427  16.471  12.344  14.836 -0.0706  0.1730 -0.1487
 1278PEP     CB47428  16.754  12.632  14.873 -0.1149  0.0613  0.3695
 1278PEP     CB47429  17.126  12.902  14.964  0.1514 -0.0801 -0.3257
 1278PEP     CB47430  17.364  13.017  15.305 -0.0193  0.3452 -0.5082
 1278PEP     CB47431  17.451  12.662  15.565 -0.1335  0.2423 -0.1590
 1278PEP     CB47432  17.297  12.515  15.967 -0.2260  0.1542  0.0358
 1278PEP     CB47433  17.206  12.399  16.403 -0.3470  0.1640 -0.0257
 1278PEP     CB47434  17.008  11.990  16.525  0.2384  0.3110  0.2620
 1278PEP     CB47435  16.728  11.820  16.831  0.5380  0.2650  0.4018
 1278PEP     CB47436  16.382  11.705  16.889  0.0735  0.1469  0.1856
 1278PEP     CB47437  15.938  11.685  17.025 -0.1135  0.2864 -0.2625
 1278PEP     CB47438  15.856  11.878  17.379 -0.2063  0.4517  0.1263
 1278PEP     CB47439  16.213  12.113  17.450 -0.4950 -0.0085  0.1772
 1278PEP     CB47440  16.544  12.398  17.287  0.3087  0.3603  0.0294
 1279PEP     CB47441   5.722   1.950  18.971 -0.0394 -0.6821 -0.2844
 1279PEP     CB47442   5.630   1.843  18.539 -0.0956 -0.1686  0.3343
 1279PEP     CB47443   5.508   1.875  18.144  0.0595  0.2269 -0.6414
 1279PEP     CB47444   5.621   1.798  17.707  0.1901 -0.0167 -0.2378
 1279PEP     CB47445   5.884   1.925  17.424 -0.1657  0.1160  0.0919
 1279PEP     CB47446   6.126   2.347  17.501 -0.1752 -0.0677 -0.1586
 1279PEP     CB47447   6.000   2.655  17.733 -0.1068  0.2523 -0.0475
 1279PEP     CB47448   5.648   2.991  17.864 -0.3246 -0.1381 -0.1923
 1279PEP     CB47449   5.312   3.309  18.003 -0.1451  0.2789 -0.8472
 1279PEP     CB47450   5.254   3.595  17.816  0.2516  0.3827  0.2410
 1279PEP     CB47451   5.413   3.959  17.617 -0.1017  0.1772 -0.0046
 1279PEP     CB47452   5.815   4.258  17.640 -0.0762  0.1327  0.1257
 1279PEP     CB47453   6.069   4.300  17.915  0.0954 -0.2363  0.1082
 1279PEP     CB47454   6.475   4.132  18.073 -0.0892 -0.1252 -0.0850
 1279PEP     CB47455   6.830   3.805  18.017  0.3059  0.3372 -0.0136
 1279PEP     CB47456   7.114   3.810  17.775 -0.1983 -0.4244  0.0402
 1279PEP     CB47457   7.130   3.963  17.353  0.1558 -0.2027  0.1586
 1279PEP     CB47458   7.053   4.317  17.042 -0.1178 -0.0137  0.1891
 1279PEP     CB47459   7.020   4.678  16.817 -0.0885  0.0921 -0.4192
 1279PEP     CB47460   6.993   4.965  16.549  0.2074  0.2500 -0.0705
 1279PEP     CB47461   6.780   5.372  16.419 -0.6759  0.0393  0.2992
 1279PEP     CB47462   6.668   5.695  16.269 -0.1062 -0.0833 -0.0378
 1279PEP     CB47463   6.466   5.921  15.943  0.4865  0.0737  0.1580
 1279PEP     CB47464   6.315   6.385  15.941  0.0076  0.1394  0.0371
 1279PEP     CB47465   6.372   6.875  16.053 -0.0316 -0.0654 -0.4696
 1279PEP     CB47466   6.314   7.106  16.445 -0.0319  0.3209 -0.1960
 1279PEP     CB47467   6.607   7.053  16.734  0.0381  0.1472  0.2334
 1279PEP     CB47468   7.017   6.811  16.764 -0.0022 -0.1752 -0.1545
 1279PEP     CB47469   7.278   6.505  16.421 -0.0784 -0.0170 -0.2438
 1279PEP     CB47470   7.350   6.644  16.001 -0.0588  0.1217 -0.4764
 1279PEP     CB47471   7.353   6.966  15.730 -0.2980 -0.3877  0.1679
 1279PEP     CB47472   7.291   7.357  15.643 -0.0817  0.1928 -0.1841
 1279PEP     CB47473   7.504   7.677  15.674  0.0522  0.2404  0.2396
 1279PEP     CB47474   7.715   8.022  15.833 -0.0398 -0.1170  0.2459
 1279PEP     CB47475   7.904   8.114  16.298 -0.0951  0.0343  0.3432
 1279PEP     CB47476   7.944   7.783  16.610  0.3617  0.0331 -0.1723
 1279PEP     CB47477   8.099   7.290  16.481  0.1706 -0.0317  0.2966
 1279PEP     CB47478   8.413   6.930  16.596  0.3183  0.1543 -0.1196
 1279PEP     CB47479   8.480   6.607  16.254 -0.1172 -0.3396  0.2248
 1279PEP     CB47480   8.365   6.708  15.812  0.0933 -0.0557  0.5105
 1280PEP     CB47481  14.341  11.772   8.025  0.0082 -0.0540  0.3722
 1280PEP     CB47482  14.512  11.431   8.271  0.1087 -0.0970  0.0488
 1280PEP     CB47483  14.807  11.087   8.189  0.1505 -0.0493  0.0694
 1280PEP     CB47484  14.860  10.909   7.778 -0.2863  0.1008  0.2664
 1280PEP     CB47485  14.624  11.103   7.532  0.1470  0.1728  0.5831
 1280PEP     CB47486  14.295  11.414   7.513 -0.1269  0.1610 -0.1582
 1280PEP     CB47487  13.977  11.654   7.742  0.1624  0.3030 -0.0703
 1280PEP     CB47488  13.775  11.839   8.097  0.1535 -0.3915  0.0536
 1280PEP     CB47489  13.734  12.245   8.390 -0.3735  0.1149 -0.2349
 1280PEP     CB47490  13.650  12.685   8.175  0.0940  0.0063 -0.1712
 1280PEP     CB47491  13.967  12.870   7.922  0.1733  0.3701 -0.1246
 1280PEP     CB47492  14.268  12.890   7.552 -0.2108 -0.2033  0.4070
 1280PEP     CB47493  14.334  13.201   7.198  0.3662  0.1935  0.1808
 1280PEP     CB47494  14.038  13.260   6.835 -0.1087 -0.3376  0.1359
 1280PEP     CB47495  13.611  12.954   6.729  0.2552 -0.1120  0.2482
 1280PEP     CB47496  13.520  12.552   6.917  0.2324  0.4186  0.1279
 1280PEP     CB47497  13.466  12.554   7.376 -0.3343 -0.0513  0.3626
 1280PEP     CB47498  13.328  12.783   7.700  0.0682 -0.1795 -0.1352
 1280PEP     CB47499  13.519  13.152   7.975 -0.0352 -0.1116 -0.0087
 1280PEP     CB47500  13.875  13.322   8.191 -0.5007 -0.4402  0.1800
 1280PEP     CB47501  14.293  13.229   8.395 -0.2960 -0.2488 -0.0473
 1280PEP     CB47502  14.663  13.324   8.557 -0.0041  0.0482 -0.4264
 1280PEP     CB47503  15.063  13.542   8.773  0.3143  0.0296  0.4737
 1280PEP     CB47504  15.234  13.870   8.859 -0.2391 -0.0383 -0.0892
 1280PEP     CB47505  15.121  14.363   8.748 -0.0037 -0.2081  0.5996
 1280PEP     CB47506  14.948  14.685   8.742 -0.4268 -0.2364  0.1702
 1280PEP     CB47507  14.925  15.178   8.827  0.0431  0.0297  0.1872
 1280PEP     CB47508  14.963  15.567   8.865  0.2654 -0.0907  0.3288
 1280PEP     CB47509  15.210  15.787   9.099 -0.2907 -0.2474 -0.0450
 1280PEP     CB47510  15.380  15.745   9.493  0.0957  0.1092 -0.0541
 1280PEP     CB47511  15.711  15.986   9.731 -0.0623 -0.4138 -0.0187
 1280PEP     CB47512  15.838  16.380   9.542 -0.0511 -0.0665 -0.4641
 1280PEP     CB47513  15.580  16.732   9.297  0.0439  0.5400 -0.0861
 1280PEP     CB47514  15.225  17.021   9.362  0.1191 -0.0348 -0.2417
 1280PEP     CB47515  14.925  17.265   9.500  0.0230 -0.2372  0.0792
 1280PEP     CB47516  14.734  17.507   9.842  0.3563 -0.0462  0.1552
 1280PEP     CB47517  14.765  17.911  10.033 -0.0252  0.6212 -0.0948
 1280PEP     CB47518  14.604  18.066  10.434 -0.2104 -0.3369  0.0533
 1280PEP     CB47519  14.349  17.772  10.621 -0.0436 -0.3257  0.2412
 1280PEP     CB47520  13.914  17.710  10.590  0.1588 -0.1073 -0.2188
 1281PEP     CB47521   9.556  15.897   5.546 -0.0293  0.0684 -0.3252
 1281PEP     CB47522   9.509  15.518   5.504  0.2801  0.1785 -0.1489
 1281PEP     CB47523   9.057  15.372   5.447  0.1867  0.1855 -0.4481
 1281PEP     CB47524   8.664  15.428   5.693 -0.1110 -0.0440  0.3941
 1281PEP     CB47525   8.275  15.628   5.751  0.0897  0.3401  0.1727
 1281PEP     CB47526   7.881  15.889   5.679 -0.0036 -0.1771  0.1412
 1281PEP     CB47527   7.523  15.906   5.882 -0.0723  0.2169  0.2800
 1281PEP     CB47528   7.232  15.634   5.925  0.1414 -0.1702 -0.3807
 1281PEP     CB47529   6.992  15.342   5.633  0.2191 -0.1720 -0.0564
 1281PEP     CB47530   6.880  15.536   5.241  0.1469  0.1411  0.0271
 1281PEP     CB47531   6.918  15.949   5.091 -0.0591 -0.2893  0.1265
 1281PEP     CB47532   6.898  16.349   5.334 -0.4732  0.3557  0.3551
 1281PEP     CB47533   6.764  16.808   5.375 -0.1434  0.0789  0.3498
 1281PEP     CB47534   6.671  17.197   5.370  0.0176  0.1857  0.1802
 1281PEP     CB47535   6.541  17.419   5.696 -0.1059 -0.0049  0.2645
 1281PEP     CB47536   6.354  17.868   5.771 -0.2646  0.1167  0.2047
 1281PEP     CB47537   6.303  18.331   5.624  0.1823  0.2409 -0.5574
 1281PEP     CB47538   6.299  18.744   5.330  0.2181  0.3973  0.1551
 1281PEP     CB47539   6.450  19.135   5.329  0.0118 -0.0548 -0.0699
 1281PEP     CB47540   6.741  19.449   5.667  0.2216  0.1347 -0.2854
 1281PEP     CB47541   6.919  19.880   5.881  0.0542  0.2094  0.1543
 1281PEP     CB47542   7.130  20.243   6.036 -0.5385  0.2986 -0.0192
 1281PEP     CB47543   7.516  20.370   5.848  0.2459 -0.1368  0.5231
 1281PEP     CB47544   7.639  20.361   5.469 -0.1527  0.0444 -0.2421
 1281PEP     CB47545   7.812  20.095   5.226 -0.3270 -0.1343  0.1187
 1281PEP     CB47546   7.860  19.670   5.163 -0.1771 -0.0842 -0.3642
 1281PEP     CB47547   8.019  19.306   4.929  0.1212 -0.3982 -0.0785
 1281PEP     CB47548   8.059  19.159   4.509  0.1736 -0.0220  0.0303
 1281PEP     CB47549   8.079  18.916   4.088  0.2955 -0.1923 -0.4233
 1281PEP     CB47550   7.754  18.712   3.821 -0.0925 -0.0685 -0.0498
 1281PEP     CB47551   7.393  18.647   3.718  0.0058  0.0576  0.0017
 1281PEP     CB47552   7.002  18.797   3.718 -0.0843 -0.0005  0.0602
 1281PEP     CB47553   6.551  18.669   3.614  0.5615 -0.4333  0.0825
 1281PEP     CB47554   6.182  18.634   3.721  0.4663 -0.1001 -0.2280
 1281PEP     CB47555   5.835  18.484   3.448  0.1597 -0.1883  0.0799
 1281PEP     CB47556   5.766  18.568   2.996 -0.1022  0.2779 -0.2604
 1281PEP     CB47557   5.881  18.414   2.563 -0.0466 -0.1662 -0.2863
 1281PEP     CB47558   6.186  18.403   2.263 -0.2584 -0.1325  0.0352
 1281PEP     CB47559   6.163  18.326   1.834 -0.0535  0.1970  0.3170
 1281PEP     CB47560   6.004  18.489   1.438 -0.2995 -0.0551  0.0972
 1282PEP     CB47561  12.602  21.175  18.179 -0.1226 -0.0205  0.2564
 1282PEP     CB47562  12.375  21.532  18.105  0.4990 -0.0308 -0.0882
 1282PEP     CB47563  11.965  21.566  18.025  0.2297 -0.0045  0.1270
 1282PEP     CB47564  11.589  21.436  18.108 -0.1351  0.3956 -0.3012
 1282PEP     CB47565  11.433  21.067  18.264 -0.2299 -0.5466 -0.0798
 1282PEP     CB47566  11.320  20.634  18.356  0.1468  0.1904  0.0715
 1282PEP     CB47567  11.612  20.235  18.289 -0.1477  0.0584  0.3633
 1282PEP     CB47568  11.897  19.940  18.398 -0.3107 -0.2505 -0.4194
 1282PEP     CB47569  11.964  19.560  18.571 -0.4014 -0.0915 -0.0080
 1282PEP     CB47570  11.796  19.144  18.794  0.4404  0.0809 -0.2686
 1282PEP     CB47571  11.475  18.848  18.966  0.2826  0.2330  0.2786
 1282PEP     CB47572  11.293  18.816  19.353  0.3155  0.0930 -0.3021
 1282PEP     CB47573  11.244  18.703  19.803  0.2494  0.2821 -0.2732
 1282PEP     CB47574  11.133  18.849  20.195 -0.0219 -0.0883 -0.1863
 1282PEP     CB47575  10.959  19.039  20.593  0.0294  0.0898  0.4874
 1282PEP     CB47576  10.741  19.444  20.845  0.2961  0.1325  0.2323
 1282PEP     CB47577  10.436  19.739  20.899  0.1434 -0.0320 -0.1278
 1282PEP     CB47578  10.136  19.924  20.568 -0.2337 -0.0457 -0.0440
 1282PEP     CB47579   9.849  19.865  20.187  0.0367  0.1713 -0.1016
 1282PEP     CB47580   9.632  19.904  19.852 -0.3438  0.1119 -0.0356
 1282PEP     CB47581   9.385  20.270  19.776  0.0984 -0.0423  0.3589
 1282PEP     CB47582   9.034  20.500  19.946  0.0475  0.1181  0.2264
 1282PEP     CB47583   8.605  20.440  19.961 -0.1036 -0.0258 -0.1109
 1282PEP     CB47584   8.352  20.267  19.587 -0.0101 -0.3313  0.4800
 1282PEP     CB47585   8.462  20.105  19.193 -0.1471 -0.0361  0.1199
 1282PEP     CB47586   8.797  20.121  18.980  0.2772 -0.2338  0.0195
 1282PEP     CB47587   9.167  20.245  19.078  0.3011 -0.2883 -0.0223
 1282PEP     CB47588   9.554  20.150  19.362  0.1858 -0.2237  0.4983
 1282PEP     CB47589   9.861  20.204  19.518 -0.0691 -0.0402 -0.0954
 1282PEP     CB47590  10.206  20.471  19.674 -0.0553 -0.0813  0.3300
 1282PEP     CB47591  10.559  20.549  19.898 -0.3494 -0.0178 -0.1184
 1282PEP     CB47592  10.817  20.430  20.194  0.0224  0.1346 -0.3094
 1282PEP     CB47593  11.148  20.088  20.284  0.1727  0.2024  0.0687
 1282PEP     CB47594  11.581  19.983  20.370 -0.6125 -0.0894 -0.1061
 1282PEP     CB47595  11.976  20.170  20.505 -0.0231 -0.0934  0.1684
 1282PEP     CB47596  11.874  20.618  20.562  0.3489  0.3101  0.0034
 1282PEP     CB47597  11.602  21.003  20.392 -0.2441  0.2436 -0.0457
 1282PEP     CB47598  11.184  21.015  20.275 -0.2839  0.5492 -0.1466
 1282PEP     CB47599  10.704  20.978  20.338  0.0003  0.4225 -0.1527
 1282PEP     CB47600  10.327  20.754  20.260 -0.4399  0.2208 -0.2214
 1283PEP     CB47601   1.108   9.481  11.251  0.0237 -0.1347  0.2350
 1283PEP     CB47602   1.443   9.357  11.269 -0.0056  0.4385  0.2371
 1283PEP     CB47603   1.793   9.168  11.421 -0.1404  0.0936  0.1380
 1283PEP     CB47604   2.272   9.132  11.610  0.2598 -0.0845 -0.3543
 1283PEP     CB47605   2.637   8.941  11.818  0.4191  0.1917  0.0084
 1283PEP     CB47606   2.918   8.722  12.022  0.0580 -0.0968  0.0687
 1283PEP     CB47607   3.139   8.806  12.395  0.2682 -0.1366  0.0444
 1283PEP     CB47608   3.135   8.616  12.708  0.2015  0.2819 -0.2847
 1283PEP     CB47609   3.340   8.355  12.773 -0.2992  0.1618 -0.1966
 1283PEP     CB47610   3.472   8.020  13.030  0.2225  0.0797 -0.1821
 1283PEP     CB47611   3.397   7.719  13.280 -0.1255 -0.4238  0.1741
 1283PEP     CB47612   3.386   7.345  13.554  0.4010  0.4690  0.1927
 1283PEP     CB47613   3.668   6.955  13.798  0.0728  0.0668 -0.0203
 1283PEP     CB47614   3.933   6.610  13.736 -0.0973 -0.1515  0.3306
 1283PEP     CB47615   4.268   6.487  13.962  0.1320  0.0619 -0.1981
 1283PEP     CB47616   4.326   6.613  14.361 -0.3555 -0.0306  0.0586
 1283PEP     CB47617   4.099   6.766  14.581  0.3300  0.1058  0.0166
 1283PEP     CB47618   3.912   6.990  14.974  0.1921 -0.4332 -0.1110
 1283PEP     CB47619   3.831   7.197  15.339 -0.1355 -0.0906  0.2481
 1283PEP     CB47620   3.876   7.240  15.890 -0.3549 -0.1414 -0.0245
 1283PEP     CB47621   3.772   7.036  16.162 -0.0458 -0.0646 -0.4431
 1283PEP     CB47622   3.686   6.836  16.583  0.3081 -0.1461  0.3477
 1283PEP     CB47623   3.424   6.754  17.020  0.0546 -0.0448 -0.2084
 1283PEP     CB47624   3.376   6.613  17.464 -0.5606  0.1600  0.0826
 1283PEP     CB47625   3.426   6.121  17.558 -0.0794 -0.2558 -0.3251
 1283PEP     CB47626   3.470   5.804  17.229  0.0777  0.0859 -0.1377
 1283PEP     CB47627   3.530   5.952  16.730  0.1512  0.2387 -0.0097
 1283PEP     CB47628   3.327   6.349  16.481  0.0361  0.0839  0.0313
 1283PEP     CB47629   3.219   6.635  16.001 -0.0237  0.2837  0.0172
 1283PEP     CB47630   3.125   6.600  15.490  0.1086  0.6763 -0.4364
 1283PEP     CB47631   3.258   6.373  15.188  0.0554 -0.0600  0.2620
 1283PEP     CB47632   3.145   6.373  14.853 -0.1019 -0.3933 -0.1490
 1283PEP     CB47633   2.971   6.369  14.537  0.2733 -0.2087  0.2067
 1283PEP     CB47634   2.669   6.139  14.223 -0.0882 -0.0108 -0.4441
 1283PEP     CB47635   2.692   5.710  14.008 -0.3745  0.4433 -0.0960
 1283PEP     CB47636   2.839   5.292  13.838  0.2238  0.2745  0.0506
 1283PEP     CB47637   3.150   5.021  14.030  0.0407 -0.3488 -0.0338
 1283PEP     CB47638   3.488   4.778  14.045  0.0116  0.1215  0.2520
 1283PEP     CB47639   3.602   4.397  13.983 -0.3962  0.0120 -0.1636
 1283PEP     CB47640   3.443   4.023  14.054  0.0707  0.0581  0.2688
 1284PEP     CB47641   5.662   6.300   2.144  0.2660 -0.2293  0.1543
 1284PEP     CB47642   5.771   6.563   1.831 -0.0275  0.1232 -0.0145
 1284PEP     CB47643   6.090   6.848   1.643  0.4925  0.2561 -0.0460
 1284PEP     CB47644   6.127   7.290   1.423 -0.1712 -0.1402 -0.2499
 1284PEP     CB47645   5.785   7.344   1.154 -0.0085  0.0305 -0.0021
 1284PEP     CB47646   5.479   7.148   1.061  0.6437  0.2242 -0.1605
 1284PEP     CB47647   5.157   7.101   1.279  0.3592 -0.0531  0.0785
 1284PEP     CB47648   4.924   7.110   1.657 -0.0171  0.0000 -0.4170
 1284PEP     CB47649   4.926   6.972   2.136 -0.1060 -0.0797  0.2104
 1284PEP     CB47650   4.946   6.762   2.492 -0.1500  0.1761 -0.1667
 1284PEP     CB47651   4.938   6.857   2.887 -0.1173 -0.0582 -0.3437
 1284PEP     CB47652   4.960   6.660   3.254 -0.0445  0.1274 -0.1205
 1284PEP     CB47653   5.006   6.348   3.653 -0.3272  0.1804  0.0067
 1284PEP     CB47654   5.326   6.042   3.778  0.2179 -0.0383 -0.0806
 1284PEP     CB47655   5.541   5.833   3.740  0.2841  0.1797  0.2377
 1284PEP     CB47656   5.951   5.646   3.714  0.1148  0.3655  0.1123
 1284PEP     CB47657   6.216   5.453   3.925  0.0647 -0.1592 -0.2157
 1284PEP     CB47658   6.163   5.358   4.339 -0.4174  0.1143  0.5866
 1284PEP     CB47659   6.054   5.498   4.736  0.1675  0.2805  0.0317
 1284PEP     CB47660   6.081   5.685   5.094  0.3876 -0.4468  0.3661
 1284PEP     CB47661   6.471   5.889   5.349  0.1431  0.0509 -0.1136
 1284PEP     CB47662   6.805   5.864   5.518 -0.7516  0.0498  0.1293
 1284PEP     CB47663   7.244   5.754   5.568 -0.0201  0.4566 -0.2276
 1284PEP     CB47664   7.594   5.770   5.787  0.0609  0.0707 -0.0153
 1284PEP     CB47665   7.656   5.785   6.245 -0.3372 -0.1189  0.2980
 1284PEP     CB47666   7.664   6.073   6.568  0.2327 -0.0001 -0.4516
 1284PEP     CB47667   7.590   6.563   6.511 -0.2523  0.0695  0.1108
 1284PEP     CB47668   7.167   6.696   6.265 -0.1834 -0.0249 -0.2339
 1284PEP     CB47669   7.179   6.554   5.867 -0.3090 -0.3226 -0.0637
 1284PEP     CB47670   7.321   6.261   5.663 -0.0259  0.2017 -0.0341
 1284PEP     CB47671   7.613   6.270   5.313  0.4284  0.3528  0.0338
 1284PEP     CB47672   7.990   6.622   5.162 -0.1936  0.0073 -0.1251
 1284PEP     CB47673   7.875   7.052   4.965 -0.1388  0.1153 -0.0019
 1284PEP     CB47674   7.487   7.326   4.898  0.0832  0.0961 -0.0955
 1284PEP     CB47675   7.093   7.438   4.755  0.0046  0.0783 -0.3057
 1284PEP     CB47676   6.672   7.526   4.882  0.0667 -0.3067  0.4512
 1284PEP     CB47677   6.272   7.549   5.106 -0.3311 -0.3662 -0.3248
 1284PEP     CB47678   5.852   7.510   5.055  0.1141 -0.1975  0.3557
 1284PEP     CB47679   5.490   7.709   4.800 -0.0713 -0.0799  0.2038
 1284PEP     CB47680   5.127   7.874   4.852  0.1969 -0.1862  0.2522
 1285PEP     CB47681  19.970  16.077   3.184  0.0797  0.2035 -0.2044
 1285PEP     CB47682  19.744  15.862   2.834  0.0439 -0.1103  0.0674
 1285PEP     CB47683  19.847  15.936   2.447  0.2189  0.4801 -0.1527
 1285PEP     CB47684  19.714  16.235   2.152 -0.2714  0.0729 -0.0722
 1285PEP     CB47685  19.444  16.460   1.777 -0.0399  0.2493  0.2947
 1285PEP     CB47686  19.410  16.665   1.323  0.2351  0.3150 -0.0907
 1285PEP     CB47687  19.201  16.936   1.051  0.2305 -0.4295  0.0976
 1285PEP     CB47688  18.770  17.039   0.834  0.4081  0.5669  0.1180
 1285PEP     CB47689  18.590  17.210   0.431  0.2724  0.1304  0.0892
 1285PEP     CB47690  18.686  17.393   0.166 -0.0186  0.0197  0.0109
 1285PEP     CB47691  18.673  17.731  -0.116 -0.0493  0.2634  0.0985
 1285PEP     CB47692  18.510  17.886  -0.501  0.3516  0.3631 -0.4315
 1285PEP     CB47693  18.523  18.114  -0.789 -0.1991 -0.1121 -0.2166
 1285PEP     CB47694  18.801  18.331  -1.049  0.3441 -0.2934  0.2764
 1285PEP     CB47695  19.104  18.643  -1.057 -0.0176 -0.4577  0.0172
 1285PEP     CB47696  19.367  19.057  -1.124 -0.1684  0.2386  0.2798
 1285PEP     CB47697  19.273  19.409  -1.285  0.3018  0.0810  0.4010
 1285PEP     CB47698  18.981  19.607  -1.603  0.3415 -0.0288  0.2013
 1285PEP     CB47699  18.885  19.645  -2.050  0.3551  0.3899 -0.0719
 1285PEP     CB47700  18.990  19.424  -2.469  0.2730 -0.5464  0.1602
 1285PEP     CB47701  19.182  19.252  -2.847  0.0725  0.1740 -0.2143
 1285PEP     CB47702  19.148  19.369  -3.264 -0.0256 -0.1745 -0.2982
 1285PEP     CB47703  19.100  19.811  -3.440 -0.2424 -0.1120  0.2822
 1285PEP     CB47704  18.952  20.180  -3.527 -0.4417  0.1977 -0.2907
 1285PEP     CB47705  18.882  20.597  -3.698  0.1606  0.2020 -0.0515
 1285PEP     CB47706  18.844  20.857  -4.120  0.3537 -0.2856  0.3231
 1285PEP     CB47707  19.015  21.206  -4.203  0.0153  0.1528 -0.5471
 1285PEP     CB47708  19.356  21.367  -3.880 -0.3622 -0.0929  0.0251
 1285PEP     CB47709  19.674  21.204  -3.758 -0.0056  0.1731  0.3402
 1285PEP     CB47710  19.930  20.901  -3.609 -0.0972 -0.0601  0.3447
 1285PEP     CB47711  20.201  20.707  -3.778  0.0886  0.1116  0.2575
 1285PEP     CB47712  20.675  20.708  -3.863  0.2280  0.3898 -0.1008
 1285PEP     CB47713  20.903  21.006  -3.895  0.1643  0.0759  0.3360
 1285PEP     CB47714  20.719  21.419  -3.874 -0.0757  0.2857 -0.4595
 1285PEP     CB47715  20.383  21.607  -4.128  0.2711  0.2320 -0.2325
 1285PEP     CB47716  20.088  21.888  -4.164  0.1047  0.1761  0.1824
 1285PEP     CB47717  19.862  22.111  -3.973  0.0604 -0.1841 -0.0323
 1285PEP     CB47718  19.723  22.492  -3.743  0.4140 -0.1285 -0.1608
 1285PEP     CB47719  19.804  22.700  -3.397 -0.1214  0.0016  0.0695
 1285PEP     CB47720  19.720  22.632  -2.995  0.6090  0.1618  0.1841
 1286PEP     CB47721  21.756   6.733  20.015 -0.0555 -0.2589 -0.1756
 1286PEP     CB47722  22.134   6.786  19.768  0.1801 -0.1459  0.5201
 1286PEP     CB47723  22.408   6.575  19.547 -0.2449  0.1056 -0.0182
 1286PEP     CB47724  22.853   6.557  19.603  0.3659  0.0360  0.1780
 1286PEP     CB47725  23.127   6.782  19.422  0.5171  0.0439  0.2527
 1286PEP     CB47726  23.204   6.769  18.942  0.2922 -0.3045  0.2387
 1286PEP     CB47727  23.299   6.448  18.676  0.0826  0.0988  0.2949
 1286PEP     CB47728  23.337   6.164  18.261  0.3945 -0.2436 -0.1286
 1286PEP     CB47729  23.665   6.208  17.940  0.0875 -0.2258 -0.2574
 1286PEP     CB47730  23.633   5.997  17.564 -0.1783  0.1876 -0.0727
 1286PEP     CB47731  23.273   5.691  17.502 -0.0847 -0.0824  0.0792
 1286PEP     CB47732  22.787   5.764  17.563 -0.6568  0.0592  0.1705
 1286PEP     CB47733  22.603   6.180  17.720 -0.1735 -0.4496  0.0977
 1286PEP     CB47734  22.637   6.619  17.473 -0.0115 -0.1283  0.1083
 1286PEP     CB47735  22.689   6.810  17.126  0.3082  0.0981  0.4652
 1286PEP     CB47736  22.586   7.126  16.876 -0.2013 -0.0683  0.1991
 1286PEP     CB47737  22.406   7.514  16.729  0.6080  0.0990  0.1743
 1286PEP     CB47738  22.445   7.936  16.422 -0.4510  0.1887 -0.1623
 1286PEP     CB47739  22.771   8.188  16.190 -0.2110 -0.1244  0.0515
 1286PEP     CB47740  23.071   8.417  15.989  0.1796 -0.0953 -0.0941
 1286PEP     CB47741  23.281   8.650  15.666 -0.5504 -0.3302 -0.2615
 1286PEP     CB47742  23.360   8.835  15.281 -0.1780  0.2143  0.1349
 1286PEP     CB47743  23.199   8.678  14.841 -0.3056  0.1738  0.2658
 1286PEP     CB47744  23.411   8.765  14.440  0.0143 -0.4807 -0.1006
 1286PEP     CB47745  23.429   9.149  14.254  0.3302 -0.1141 -0.5196
 1286PEP     CB47746  23.226   9.569  14.094 -0.1732 -0.0305 -0.4566
 1286PEP     CB47747  23.112   9.705  13.654  0.2957  0.3565 -0.0198
 1286PEP     CB47748  23.088   9.460  13.256  0.1481  0.0014 -0.1397
 1286PEP     CB47749  23.152   9.081  13.222  0.0541  0.1044 -0.0964
 1286PEP     CB47750  23.385   8.744  13.082  0.1092  0.3062 -0.1985
 1286PEP     CB47751  23.516   8.460  12.748 -0.3067  0.0203  0.3045
 1286PEP     CB47752  23.641   8.136  12.459  0.3252  0.1288  0.1785
 1286PEP     CB47753  23.400   7.932  12.032 -0.3002 -0.3410  0.2520
 1286PEP     CB47754  23.058   7.972  11.838  0.1266  0.1578  0.3139
 1286PEP     CB47755  22.930   8.367  11.684  0.3181  0.1623  0.0399
 1286PEP     CB47756  22.820   8.734  11.952  0.0597  0.2786  0.4507
 1286PEP     CB47757  23.176   8.967  12.151  0.2673  0.2967 -0.1249
 1286PEP     CB47758  23.416   9.261  11.925 -0.2992 -0.2975 -0.1394
 1286PEP     CB47759  23.698   9.474  11.807 -0.1383  0.0918 -0.3078
 1286PEP     CB47760  24.099   9.519  11.776  0.2665 -0.0202  0.0801
 1287PEP     CB47761  13.621   5.351  14.852 -0.0656  0.0231 -0.0346
 1287PEP     CB47762  13.274   5.453  15.098 -0.1186 -0.4288 -0.2414
 1287PEP     CB47763  13.200   5.721  15.453  0.0830 -0.0678 -0.4574
 1287PEP     CB47764  13.364   5.703  15.892 -0.0099 -0.2501 -0.2260
 1287PEP     CB47765  13.739   5.529  16.087 -0.0534  0.1187 -0.1237
 1287PEP     CB47766  14.059   5.199  16.012  0.1965  0.2410  0.1393
 1287PEP     CB47767  14.098   4.709  15.951  0.1200  0.0988 -0.1419
 1287PEP     CB47768  13.894   4.408  16.192  0.0631 -0.2111  0.2612
 1287PEP     CB47769  13.583   4.094  16.275 -0.3968 -0.2522  0.1902
 1287PEP     CB47770  13.258   3.858  16.433  0.4183 -0.1771 -0.1680
 1287PEP     CB47771  13.100   3.880  16.820  0.0513  0.1210 -0.0496
 1287PEP     CB47772  13.226   4.127  17.177  0.0205  0.0890 -0.4330
 1287PEP     CB47773  13.607   4.318  17.182  0.1171 -0.0565  0.2230
 1287PEP     CB47774  14.027   4.218  17.483 -0.0989  0.2652  0.2174
 1287PEP     CB47775  14.466   4.207  17.759  0.2744  0.0130  0.4126
 1287PEP     CB47776  14.783   4.413  17.959  0.0845 -0.2267 -0.3436
 1287PEP     CB47777  15.225   4.254  17.964  0.1894 -0.0930  0.0793
 1287PEP     CB47778  15.444   3.865  17.708 -0.3811 -0.1611  0.1161
 1287PEP     CB47779  15.812   3.611  17.723 -0.1408  0.2744 -0.0239
 1287PEP     CB47780  16.062   3.390  17.967  0.1919 -0.4194 -0.0437
 1287PEP     CB47781  16.210   3.331  18.347  0.0201 -0.2078  0.1960
 1287PEP     CB47782  16.634   3.367  18.523 -0.0707 -0.0208 -0.1086
 1287PEP     CB47783  17.018   3.188  18.452  0.0109  0.0801  0.0945
 1287PEP     CB47784  17.192   2.796  18.554  0.0791  0.1281 -0.1836
 1287PEP     CB47785  17.487   2.512  18.435  0.1113 -0.2058  0.0595
 1287PEP     CB47786  17.879   2.420  18.442 -0.7513  0.1726 -0.2210
 1287PEP     CB47787  18.310   2.150  18.402  0.3535 -0.1206 -0.0633
 1287PEP     CB47788  18.602   1.888  18.251 -0.1197  0.2435  0.2379
 1287PEP     CB47789  19.013   1.779  18.307  0.2337 -0.2575 -0.2948
 1287PEP     CB47790  19.420   1.546  18.460  0.0534 -0.0390 -0.1254
 1287PEP     CB47791  19.857   1.438  18.753 -0.2240 -0.0911 -0.1465
 1287PEP     CB47792  20.253   1.223  18.889  0.1725  0.0142 -0.0072
 1287PEP     CB47793  20.490   1.050  19.229  0.3388 -0.1739 -0.0219
 1287PEP     CB47794  20.544   1.020  19.619 -0.1774 -0.1456 -0.5358
 1287PEP     CB47795  20.545   1.371  19.984  0.1045  0.4184 -0.3390
 1287PEP     CB47796  20.772   1.752  19.881 -0.4023 -0.0731 -0.1736
 1287PEP     CB47797  21.263   1.756  19.764  0.1048  0.2451 -0.3125
 1287PEP     CB47798  21.504   1.623  19.453  0.2643 -0.1384 -0.0420
 1287PEP     CB47799  21.566   1.429  19.095  0.1515  0.1666 -0.0949
 1287PEP     CB47800  21.682   1.081  18.899  0.0439  0.0945 -0.1243
 1288PEP     CB47801   1.929   6.135   1.036 -0.0453 -0.2045  0.0220
 1288PEP     CB47802   2.240   5.843   1.226  0.1845 -0.1459  0.0156
 1288PEP     CB47803   2.444   5.466   1.272  0.3515  0.0653 -0.2614
 1288PEP     CB47804   2.907   5.367   1.211 -0.0533 -0.0422  0.2272
 1288PEP     CB47805   3.274   5.142   1.146 -0.0725 -0.1900 -0.1902
 1288PEP     CB47806   3.324   4.662   1.316  0.0117  0.1131  0.0951
 1288PEP     CB47807   3.050   4.463   1.456 -0.0869 -0.2714 -0.0699
 1288PEP     CB47808   2.742   4.100   1.565  0.1648  0.0449  0.1636
 1288PEP     CB47809   2.513   3.765   1.463  0.2617  0.0272 -0.0143
 1288PEP     CB47810   2.620   3.437   1.364  0.0755 -0.1144 -0.1289
 1288PEP     CB47811   2.715   3.014   1.300  0.0989  0.4035 -0.2041
 1288PEP     CB47812   2.574   2.507   1.288 -0.0888 -0.4198 -0.1380
 1288PEP     CB47813   2.404   2.189   0.994  0.1202  0.0080  0.0576
 1288PEP     CB47814   2.557   2.114   0.624  0.2054 -0.0856 -0.5136
 1288PEP     CB47815   3.008   2.120   0.548 -0.1360  0.0574  0.1794
 1288PEP     CB47816   3.361   2.268   0.473 -0.1423  0.4084  0.0477
 1288PEP     CB47817   3.743   2.249   0.360 -0.4975  0.0045  0.0971
 1288PEP     CB47818   4.108   2.011   0.387  0.2511  0.0432 -0.2632
 1288PEP     CB47819   4.079   1.584   0.619 -0.3137  0.4067 -0.0544
 1288PEP     CB47820   3.890   1.346   0.931  0.1231  0.5122  0.2565
 1288PEP     CB47821   3.809   0.928   0.952  0.3137 -0.0431  0.2547
 1288PEP     CB47822   3.996   0.496   0.883  0.0436  0.1186  0.1885
 1288PEP     CB47823   4.250   0.160   0.734  0.1554 -0.2525 -0.2556
 1288PEP     CB47824   4.611  -0.136   0.636 -0.2276 -0.1283  0.0499
 1288PEP     CB47825   4.882  -0.220   0.267 -0.1375  0.0759 -0.2636
 1288PEP     CB47826   4.746  -0.327  -0.175 -0.2287 -0.1529  0.2520
 1288PEP     CB47827   4.938  -0.183  -0.627  0.3887 -0.1185  0.1205
 1288PEP     CB47828   5.121   0.190  -0.670  0.0528 -0.0041  0.2561
 1288PEP     CB47829   5.146   0.536  -0.433 -0.2379 -0.3033  0.0549
 1288PEP     CB47830   5.001   0.743  -0.044 -0.1027  0.2491 -0.5169
 1288PEP     CB47831   4.897   1.033   0.222 -0.3551  0.1175  0.0657
 1288PEP     CB47832   4.686   1.069   0.643 -0.1356 -0.3140 -0.1310
 1288PEP     CB47833   4.315   0.874   0.680  0.3065  0.1095  0.1243
 1288PEP     CB47834   4.255   0.567   0.424  0.1135 -0.0619 -0.0091
 1288PEP     CB47835   3.910   0.321   0.210 -0.1198 -0.1518 -0.0437
 1288PEP     CB47836   3.629  -0.002   0.086  0.1541 -0.1127 -0.2373
 1288PEP     CB47837   3.278  -0.258  -0.122 -0.1356  0.3046  0.3122
 1288PEP     CB47838   2.805  -0.295  -0.173  0.1402 -0.2126  0.4034
 1288PEP     CB47839   2.500  -0.033  -0.371 -0.1109 -0.4005 -0.0244
 1288PEP     CB47840   2.123   0.083  -0.641 -0.0817  0.0281 -0.0916
 1289PEP     CB47841  13.590   6.959   1.270 -0.1313  0.0604 -0.3693
 1289PEP     CB47842  13.357   7.283   1.347 -0.1946  0.2072 -0.0897
 1289PEP     CB47843  13.177   7.598   1.090  0.1601 -0.1734 -0.1204
 1289PEP     CB47844  13.273   7.623   0.676 -0.2584 -0.1285  0.3715
 1289PEP     CB47845  13.613   7.822   0.453  0.1629  0.0346  0.1953
 1289PEP     CB47846  13.988   8.039   0.483 -0.1055  0.1394 -0.3288
 1289PEP     CB47847  14.366   8.399   0.349 -0.0523 -0.0765 -0.0063
 1289PEP     CB47848  14.738   8.562   0.174 -0.4173 -0.3616  0.0475
 1289PEP     CB47849  14.934   8.385  -0.016  0.1759 -0.3682  0.2627
 1289PEP     CB47850  14.907   7.907   0.033 -0.3413  0.0555 -0.3649
 1289PEP     CB47851  15.111   7.637   0.257 -0.2042 -0.1571  0.3289
 1289PEP     CB47852  15.217   7.614   0.729 -0.1281 -0.1762  0.1794
 1289PEP     CB47853  15.094   7.825   1.046 -0.1139 -0.1258  0.2231
 1289PEP     CB47854  14.697   8.091   1.126 -0.0972  0.4633  0.1388
 1289PEP     CB47855  14.204   8.186   1.350 -0.0946 -0.2562 -0.2495
 1289PEP     CB47856  13.754   8.395   1.323  0.5378  0.3207 -0.1608
 1289PEP     CB47857  13.525   8.770   1.135 -0.0768  0.6320 -0.0926
 1289PEP     CB47858  13.295   9.111   1.100  0.0449 -0.1201 -0.3884
 1289PEP     CB47859  13.232   9.613   1.068 -0.1469 -0.1836  0.0119
 1289PEP     CB47860  13.203  10.012   0.818 -0.0115 -0.0312 -0.1532
 1289PEP     CB47861  13.031  10.402   0.568  0.1930 -0.1719 -0.0129
 1289PEP     CB47862  13.041  10.870   0.513 -0.0484 -0.2476 -0.1407
 1289PEP     CB47863  13.277  11.256   0.567 -0.4768 -0.0632  0.0944
 1289PEP     CB47864  13.730  11.375   0.383  0.0337  0.3355  0.1250
 1289PEP     CB47865  13.763  11.161   0.007 -0.2042 -0.2327  0.1197
 1289PEP     CB47866  13.698  10.830  -0.292 -0.0205 -0.0333  0.0281
 1289PEP     CB47867  13.783  10.460  -0.426  0.2483 -0.3091  0.5599
 1289PEP     CB47868  13.692  10.074  -0.451  0.4013  0.3217  0.0099
 1289PEP     CB47869  13.674   9.675  -0.279  0.1853  0.2118  0.1076
 1289PEP     CB47870  13.446   9.399  -0.001  0.0281  0.3213 -0.1908
 1289PEP     CB47871  13.134   9.185   0.053 -0.0506  0.0242  0.0289
 1289PEP     CB47872  12.752   8.842  -0.030 -0.1159 -0.2046  0.0049
 1289PEP     CB47873  12.496   8.482   0.169 -0.3922 -0.2012 -0.0431
 1289PEP     CB47874  12.505   8.041   0.436  0.4266 -0.0959  0.3645
 1289PEP     CB47875  12.529   8.051   0.839 -0.2414 -0.1243  0.3860
 1289PEP     CB47876  12.351   8.166   1.240 -0.2670  0.2220  0.3889
 1289PEP     CB47877  12.334   8.528   1.479  0.1901 -0.0108 -0.0625
 1289PEP     CB47878  12.413   8.892   1.312  0.1879 -0.4610  0.1013
 1289PEP     CB47879  12.687   9.376   1.366 -0.0225 -0.4593  0.2232
 1289PEP     CB47880  12.881   9.739   1.486 -0.2465  0.1014 -0.1571
 1290PEP     CB47881  13.453   8.100  19.348 -0.0440  0.3357  0.0241
 1290PEP     CB47882  13.866   8.069  19.155 -0.1146  0.2213  0.1746
 1290PEP     CB47883  14.187   8.128  18.877  0.1337  0.3412 -0.3844
 1290PEP     CB47884  14.249   8.372  18.517 -0.1478  0.0324  0.2982
 1290PEP     CB47885  14.591   8.656  18.541 -0.1426  0.2190 -0.7099
 1290PEP     CB47886  14.664   8.975  18.854 -0.0326  0.3132 -0.3342
 1290PEP     CB47887  14.554   9.302  19.065 -0.3263  0.5868  0.4074
 1290PEP     CB47888  14.230   9.607  19.220  0.4484  0.0978  0.2467
 1290PEP     CB47889  13.797   9.672  19.364  0.3636 -0.0250  0.1028
 1290PEP     CB47890  13.453   9.943  19.547  0.2586  0.0561 -0.0915
 1290PEP     CB47891  13.139  10.101  19.896  0.0483  0.1026  0.1270
 1290PEP     CB47892  13.319  10.381  20.289 -0.0040 -0.3472  0.0776
 1290PEP     CB47893  13.418  10.526  20.705  0.1668 -0.1043  0.0916
 1290PEP     CB47894  13.446  10.327  21.122  0.0837 -0.1328  0.2406
 1290PEP     CB47895  13.139  10.138  21.457  0.1118 -0.5068  0.2391
 1290PEP     CB47896  12.838   9.820  21.523  0.5820 -0.0155  0.0156
 1290PEP     CB47897  12.375   9.659  21.323 -0.0772  0.0523 -0.0904
 1290PEP     CB47898  11.938   9.704  21.283  0.2155  0.0177 -0.0695
 1290PEP     CB47899  11.625   9.739  21.402  0.2212 -0.0308  0.0300
 1290PEP     CB47900  11.194   9.738  21.519 -0.0686  0.0050  0.0142
 1290PEP     CB47901  10.767   9.697  21.534 -0.0807  0.3163  0.1661
 1290PEP     CB47902  10.527  10.043  21.317 -0.0507  0.2666 -0.2719
 1290PEP     CB47903  10.769  10.147  20.951 -0.2390  0.0208  0.3637
 1290PEP     CB47904  10.780   9.813  20.665 -0.0648  0.4822 -0.0366
 1290PEP     CB47905  10.702   9.412  20.716 -0.2205 -0.2329  0.3023
 1290PEP     CB47906  10.889   9.002  20.767 -0.5334 -0.1252  0.0863
 1290PEP     CB47907  10.933   8.692  21.140  0.0809  0.1880  0.0447
 1290PEP     CB47908  10.945   8.611  21.555 -0.1635 -0.2838  0.0895
 1290PEP     CB47909  11.012   8.261  21.843  0.1371  0.2430 -0.1200
 1290PEP     CB47910  11.082   7.958  22.015 -0.1949 -0.2952  0.1042
 1290PEP     CB47911  11.242   7.604  22.185  0.1645 -0.4025 -0.0742
 1290PEP     CB47912  11.114   7.281  22.395  0.0872 -0.1950  0.2313
 1290PEP     CB47913  11.142   6.944  22.628 -0.2301  0.3546  0.0860
 1290PEP     CB47914  11.224   6.709  23.069  0.4304  0.0553 -0.1486
 1290PEP     CB47915  11.125   6.300  23.214 -0.6432  0.0129  0.1030
 1290PEP     CB47916  11.361   5.906  23.067 -0.1542 -0.1647 -0.3759
 1290PEP     CB47917  11.405   5.606  22.731  0.2269  0.2505 -0.1233
 1290PEP     CB47918  11.566   5.320  22.454 -0.0179 -0.1584 -0.5662
 1290PEP     CB47919  11.498   5.229  22.078  0.0566  0.0927 -0.1940
 1290PEP     CB47920  11.141   5.058  21.843 -0.0827 -0.0789  0.0510
 1291PEP     CB47921  17.457   7.184  20.055  0.1177  0.0416 -0.1474
 1291PEP     CB47922  17.325   6.731  20.123  0.1537 -0.1047 -0.3549
 1291PEP     CB47923  17.083   6.330  20.132 -0.2057 -0.3313 -0.6308
 1291PEP     CB47924  17.187   5.900  20.026 -0.4188 -0.2274 -0.0949
 1291PEP     CB47925  17.128   5.514  19.894  0.0003  0.0153  0.1775
 1291PEP     CB47926  16.816   5.268  19.595  0.5242  0.3044  0.0138
 1291PEP     CB47927  16.677   5.332  19.158 -0.1524 -0.1097  0.0404
 1291PEP     CB47928  16.942   5.438  18.770 -0.0532  0.0900 -0.1727
 1291PEP     CB47929  17.383   5.460  18.770 -0.1082  0.0561  0.1338
 1291PEP     CB47930  17.744   5.341  19.064  0.0388 -0.1363  0.1897
 1291PEP     CB47931  18.142   5.133  19.032 -0.1275  0.0037  0.0232
 1291PEP     CB47932  18.674   5.264  18.910  0.2753 -0.1195  0.0502
 1291PEP     CB47933  19.088   5.586  18.964 -0.0303  0.5475  0.0831
 1291PEP     CB47934  19.375   5.726  19.368 -0.1618 -0.1494 -0.0122
 1291PEP     CB47935  19.202   5.723  19.781 -0.1399 -0.0130 -0.2860
 1291PEP     CB47936  18.933   5.684  20.209 -0.1850 -0.0845 -0.0144
 1291PEP     CB47937  18.931   5.717  20.602  0.2937  0.0897  0.1139
 1291PEP     CB47938  18.561   5.954  20.841  0.3028  0.1013  0.1743
 1291PEP     CB47939  18.168   6.189  21.033 -0.1598 -0.2838  0.1822
 1291PEP     CB47940  18.000   6.035  21.453  0.0964  0.1484 -0.0957
 1291PEP     CB47941  18.325   5.726  21.756  0.2301 -0.2595  0.0249
 1291PEP     CB47942  18.726   5.785  21.948 -0.2753 -0.2858 -0.1265
 1291PEP     CB47943  19.147   5.888  22.132  0.3474 -0.3545 -0.3329
 1291PEP     CB47944  19.483   5.916  22.401 -0.1906 -0.2351 -0.0296
 1291PEP     CB47945  19.877   5.699  22.489  0.3609 -0.1338  0.0204
 1291PEP     CB47946  19.959   5.292  22.433 -0.1765 -0.4449 -0.0877
 1291PEP     CB47947  19.939   5.008  22.029  0.4898 -0.0078  0.1290
 1291PEP     CB47948  20.030   4.760  21.721 -0.0275 -0.1469 -0.2929
 1291PEP     CB47949  20.378   4.728  21.469 -0.0908 -0.0462 -0.0207
 1291PEP     CB47950  20.731   4.566  21.304  0.0206  0.1102 -0.0351
 1291PEP     CB47951  20.838   4.467  20.943 -0.0130  0.1203  0.1781
 1291PEP     CB47952  21.073   4.333  20.632  0.0090 -0.5453 -0.1332
 1291PEP     CB47953  21.367   4.018  20.513  0.1022 -0.1201  0.2583
 1291PEP     CB47954  21.639   3.888  20.261  0.1179 -0.0006  0.1574
 1291PEP     CB47955  22.092   3.851  20.154 -0.3249 -0.3739  0.1914
 1291PEP     CB47956  22.472   4.019  20.092  0.0489  0.3678  0.3042
 1291PEP     CB47957  22.932   3.812  20.196  0.0919  0.1854  0.1295
 1291PEP     CB47958  23.388   3.906  20.297  0.0877  0.2692 -0.1392
 1291PEP     CB47959  23.697   4.264  20.408 -0.3754 -0.1103  0.0083
 1291PEP     CB47960  24.050   4.553  20.682 -0.3028 -0.0130 -0.1450
 1292PEP     CB47961   4.444  20.983   9.011 -0.2629  0.1691  0.5175
 1292PEP     CB47962   4.807  21.195   8.847  0.0986  0.2060 -0.1199
 1292PEP     CB47963   5.132  21.463   8.588  0.1110 -0.4237  0.1919
 1292PEP     CB47964   5.407  21.763   8.391 -0.1864  0.1107  0.3147
 1292PEP     CB47965   5.725  21.795   8.214  0.1165 -0.1612  0.5231
 1292PEP     CB47966   6.013  21.948   7.902 -0.2920 -0.0760 -0.1158
 1292PEP     CB47967   6.481  21.970   8.003  0.2186  0.4627 -0.0654
 1292PEP     CB47968   6.712  22.084   8.367  0.1951  0.0313  0.1536
 1292PEP     CB47969   6.965  22.374   8.631 -0.5458  0.0185  0.2845
 1292PEP     CB47970   6.911  22.677   8.824 -0.2212  0.1904  0.1801
 1292PEP     CB47971   7.092  22.918   9.168  0.2022  0.2831 -0.5270
 1292PEP     CB47972   7.352  23.193   9.457  0.4110  0.0963  0.1300
 1292PEP     CB47973   7.627  23.506   9.579 -0.0816  0.1960 -0.0837
 1292PEP     CB47974   7.995  23.798   9.536  0.0393 -0.2198  0.1975
 1292PEP     CB47975   8.027  24.308   9.407 -0.1512  0.7161 -0.0399
 1292PEP     CB47976   7.986  24.661   9.148  0.3033 -0.2554  0.2424
 1292PEP     CB47977   8.186  24.833   8.702 -0.0804  0.1237  0.3158
 1292PEP     CB47978   8.579  25.000   8.487  0.1386 -0.1318  0.3122
 1292PEP     CB47979   9.039  24.875   8.465 -0.3337  0.0346  0.3760
 1292PEP     CB47980   9.128  24.419   8.690  0.0339  0.5625  0.0087
 1292PEP     CB47981   8.854  24.150   8.589 -0.1063  0.2412  0.0308
 1292PEP     CB47982   8.627  23.986   8.218 -0.0189 -0.2000 -0.0463
 1292PEP     CB47983   8.552  23.896   7.763  0.5166  0.1878 -0.3623
 1292PEP     CB47984   8.502  24.069   7.314 -0.2687 -0.2326 -0.0624
 1292PEP     CB47985   8.762  24.306   7.024 -0.0398  0.2387  0.0271
 1292PEP     CB47986   9.102  24.368   6.982 -0.1384 -0.1593 -0.0698
 1292PEP     CB47987   9.473  24.277   7.110 -0.3639  0.2201  0.1271
 1292PEP     CB47988   9.834  24.326   7.349 -0.0521 -0.0166  0.0051
 1292PEP     CB47989  10.047  24.536   7.599  0.0394 -0.1649 -0.4999
 1292PEP     CB47990  10.314  24.884   7.667  0.1529 -0.1168 -0.4045
 1292PEP     CB47991  10.690  25.062   7.606 -0.0505  0.1212 -0.1211
 1292PEP     CB47992  11.104  25.112   7.647 -0.3517  0.0269 -0.0001
 1292PEP     CB47993  11.393  24.843   7.465  0.1015  0.1567 -0.2790
 1292PEP     CB47994  11.436  24.463   7.589 -0.2601  0.2837 -0.2594
 1292PEP     CB47995  11.420  24.301   8.065 -0.0872  0.2043 -0.0772
 1292PEP     CB47996  11.110  24.489   8.382 -0.0560 -0.0006 -0.0855
 1292PEP     CB47997  10.956  24.681   8.652  0.1127  0.3725  0.3739
 1292PEP     CB47998  10.900  25.000   9.030  0.0779 -0.0641  0.0462
 1292PEP     CB47999  10.838  25.066   9.459 -0.0476 -0.3202 -0.2172
 1292PEP     CB48000  10.685  24.761   9.762  0.0191 -0.2195  0.0047
 1293PEP     CB48001   6.270   4.921   3.858 -0.1543 -0.1536  0.2279
 1293PEP     CB48002   5.860   5.040   3.778  0.1563  0.2617  0.2719
 1293PEP     CB48003   5.508   5.207   3.878 -0.0965  0.0806 -0.1731
 1293PEP     CB48004   5.053   5.141   3.912  0.0608  0.0885  0.1356
 1293PEP     CB48005   4.631   5.352   3.773  0.3297 -0.0493  0.0409
 1293PEP     CB48006   4.321   5.371   3.466  0.0400  0.2901 -0.1366
 1293PEP     CB48007   3.978   5.201   3.304 -0.1241 -0.2316  0.0325
 1293PEP     CB48008   3.751   5.288   2.981  0.4078  0.0036  0.1192
 1293PEP     CB48009   3.708   5.138   2.619 -0.3868  0.0294  0.1407
 1293PEP     CB48010   3.702   5.078   2.189 -0.1567 -0.2120  0.2608
 1293PEP     CB48011   3.662   5.167   1.783 -0.1194 -0.1423 -0.5384
 1293PEP     CB48012   3.727   5.010   1.366 -0.1663 -0.1545  0.3206
 1293PEP     CB48013   3.735   4.960   0.948  0.3414  0.3291 -0.1613
 1293PEP     CB48014   3.481   4.963   0.587  0.3262 -0.2191  0.0922
 1293PEP     CB48015   3.355   5.137   0.260 -0.1435 -0.0702 -0.2342
 1293PEP     CB48016   3.057   5.122  -0.114  0.2283  0.0612 -0.3906
 1293PEP     CB48017   2.750   5.324  -0.493  0.0336  0.0760 -0.1205
 1293PEP     CB48018   2.867   5.666  -0.696  0.5084  0.1776 -0.0327
 1293PEP     CB48019   3.305   5.665  -0.908  0.2643  0.2113 -0.2003
 1293PEP     CB48020   3.622   5.488  -1.084  0.0144 -0.1062  0.1180
 1293PEP     CB48021   3.858   5.441  -1.400  0.1717 -0.4422 -0.0589
 1293PEP     CB48022   3.984   5.566  -1.825  0.0106  0.2484  0.0207
 1293PEP     CB48023   3.903   5.622  -2.240 -0.0767 -0.1017  0.1348
 1293PEP     CB48024   4.131   5.637  -2.700  0.2235 -0.1595  0.1182
 1293PEP     CB48025   4.468   5.370  -2.855 -0.0711 -0.0539  0.2878
 1293PEP     CB48026   4.881   5.477  -2.852 -0.0992  0.0575  0.1946
 1293PEP     CB48027   5.253   5.847  -2.890  0.0358 -0.2359  0.2994
 1293PEP     CB48028   5.643   5.936  -2.839  0.0722 -0.0658 -0.3364
 1293PEP     CB48029   6.148   5.928  -2.884 -0.1508 -0.1818 -0.1260
 1293PEP     CB48030   6.598   5.873  -2.788  0.2970 -0.1319 -0.2182
 1293PEP     CB48031   6.932   5.985  -2.467  0.1116 -0.5517  0.0275
 1293PEP     CB48032   6.938   6.516  -2.303 -0.0981  0.1942 -0.4877
 1293PEP     CB48033   6.583   6.749  -2.196 -0.0150  0.2210  0.1262
 1293PEP     CB48034   6.190   6.592  -2.431 -0.3032 -0.3278 -0.3183
 1293PEP     CB48035   5.764   6.534  -2.442  0.1224  0.0753 -0.3680
 1293PEP     CB48036   5.460   6.858  -2.299  0.0173 -0.1648 -0.4069
 1293PEP     CB48037   5.556   7.251  -2.075 -0.0431 -0.1638 -0.2552
 1293PEP     CB48038   5.963   7.455  -1.935  0.0143 -0.0105  0.1020
 1293PEP     CB48039   6.426   7.444  -1.910  0.0409 -0.0638  0.1554
 1293PEP     CB48040   6.935   7.399  -1.818  0.0882  0.0275 -0.3502
 1294PEP     CB48041   6.650   1.283   5.009 -0.4520  0.4300 -0.1854
 1294PEP     CB48042   7.056   1.209   4.843 -0.0643  0.1559 -0.2829
 1294PEP     CB48043   7.187   1.437   4.382  0.2037 -0.1817 -0.0711
 1294PEP     CB48044   6.911   1.695   4.119  0.1765 -0.0187  0.3525
 1294PEP     CB48045   6.577   1.954   4.221  0.3416  0.2292  0.2358
 1294PEP     CB48046   6.544   2.230   4.405 -0.3377 -0.0537  0.1865
 1294PEP     CB48047   6.638   2.598   4.541  0.0480 -0.2145  0.4748
 1294PEP     CB48048   6.823   2.924   4.320 -0.4033 -0.1207  0.2471
 1294PEP     CB48049   6.702   3.124   3.831 -0.0189  0.3832  0.3742
 1294PEP     CB48050   6.330   3.353   3.602 -0.2362 -0.5277  0.2737
 1294PEP     CB48051   5.957   3.465   3.454  0.0053  0.0852  0.6285
 1294PEP     CB48052   5.721   3.824   3.354  0.3230 -0.2379  0.0438
 1294PEP     CB48053   5.472   4.144   3.580  0.1412 -0.1065 -0.4802
 1294PEP     CB48054   5.339   4.174   3.993  0.0111 -0.3078  0.1651
 1294PEP     CB48055   5.286   3.864   4.287 -0.1896 -0.2796 -0.1352
 1294PEP     CB48056   5.194   3.776   4.683 -0.0558  0.1241  0.0536
 1294PEP     CB48057   4.971   3.488   4.872  0.3890 -0.3086 -0.1717
 1294PEP     CB48058   5.000   3.033   5.013 -0.1080 -0.0848  0.0590
 1294PEP     CB48059   5.160   2.736   4.867  0.0843 -0.3472  0.2067
 1294PEP     CB48060   5.574   2.386   4.725  0.1023 -0.0728  0.4112
 1294PEP     CB48061   5.943   2.276   4.907  0.2817 -0.0117 -0.3750
 1294PEP     CB48062   6.332   2.200   5.042  0.1142  0.2287  0.3284
 1294PEP     CB48063   6.774   1.912   5.096  0.2533  0.1300 -0.0378
 1294PEP     CB48064   7.048   1.579   5.195 -0.2191  0.2449 -0.2971
 1294PEP     CB48065   7.529   1.448   5.213  0.0898  0.3289 -0.2146
 1294PEP     CB48066   7.926   1.166   5.119 -0.3509  0.2984  0.1593
 1294PEP     CB48067   7.975   0.970   4.702 -0.2334  0.0574  0.0705
 1294PEP     CB48068   7.693   1.144   4.255  0.1956  0.0615 -0.1775
 1294PEP     CB48069   7.349   1.129   3.957 -0.4144  0.0884 -0.0586
 1294PEP     CB48070   6.959   1.085   3.827  0.0755 -0.2099  0.1496
 1294PEP     CB48071   6.682   0.903   3.597 -0.0489 -0.3462  0.2744
 1294PEP     CB48072   6.546   0.771   3.140  0.0676  0.1043  0.0376
 1294PEP     CB48073   6.324   0.869   2.784  0.0574 -0.2305  0.3493
 1294PEP     CB48074   6.444   1.172   2.442 -0.0394 -0.4710 -0.1875
 1294PEP     CB48075   6.565   1.608   2.318 -0.2173  0.1059  0.1464
 1294PEP     CB48076   6.853   1.877   2.503  0.1619 -0.2036  0.2940
 1294PEP     CB48077   6.906   1.948   2.989 -0.1553  0.0458  0.2538
 1294PEP     CB48078   7.179   1.825   3.327  0.3094  0.2033  0.2339
 1294PEP     CB48079   7.190   1.392   3.545 -0.2483 -0.2874  0.0528
 1294PEP     CB48080   7.416   1.007   3.464 -0.1172  0.1779  0.1044
 1295PEP     CB48081   3.354  18.913   3.181  0.2562  0.0270  0.0804
 1295PEP     CB48082   3.059  18.623   3.337 -0.4005 -0.3415  0.2195
 1295PEP     CB48083   3.056  18.182   3.435 -0.0281  0.3648 -0.4145
 1295PEP     CB48084   3.302  17.887   3.194  0.2446 -0.0782  0.1860
 1295PEP     CB48085   3.732  17.737   3.079 -0.0880 -0.1758 -0.1026
 1295PEP     CB48086   4.200  17.623   3.077  0.0189 -0.3093  0.0930
 1295PEP     CB48087   4.600  17.546   3.197 -0.5070  0.3893  0.0154
 1295PEP     CB48088   5.071  17.639   3.198 -0.1384  0.1232 -0.4015
 1295PEP     CB48089   5.393  17.764   3.362  0.1319  0.1481 -0.0053
 1295PEP     CB48090   5.670  17.706   3.624  0.3051  0.0731  0.1049
 1295PEP     CB48091   6.122  17.892   3.797 -0.3009  0.0710  0.0620
 1295PEP     CB48092   6.527  18.091   3.761  0.0882 -0.0949 -0.0666
 1295PEP     CB48093   6.946  18.260   3.887 -0.5287 -0.2119 -0.2441
 1295PEP     CB48094   7.105  18.549   4.159  0.0895 -0.2060 -0.0976
 1295PEP     CB48095   6.935  18.962   4.359 -0.3366 -0.2397  0.0730
 1295PEP     CB48096   7.134  19.325   4.651 -0.3690  0.0618  0.2955
 1295PEP     CB48097   7.447  19.199   4.895 -0.1031 -0.3400 -0.0084
 1295PEP     CB48098   7.637  18.916   4.914  0.0342 -0.2213  0.3903
 1295PEP     CB48099   7.853  18.623   4.856  0.3309 -0.0715 -0.3060
 1295PEP     CB48100   8.124  18.330   4.640 -0.0993  0.0569  0.2144
 1295PEP     CB48101   8.458  18.295   4.408 -0.0641  0.0343  0.1232
 1295PEP     CB48102   8.709  18.640   4.383 -0.0422 -0.3308  0.0181
 1295PEP     CB48103   8.853  18.920   4.733 -0.3289 -0.4814 -0.2714
 1295PEP     CB48104   9.120  18.775   5.055  0.1776 -0.2352 -0.3190
 1295PEP     CB48105   9.247  18.328   5.089  0.0112  0.0059 -0.1100
 1295PEP     CB48106   9.139  17.986   4.804  0.0941  0.4194 -0.0733
 1295PEP     CB48107   8.831  17.977   4.494 -0.1107  0.0678  0.1112
 1295PEP     CB48108   8.839  18.246   4.070 -0.0598 -0.1238 -0.1449
 1295PEP     CB48109   9.144  18.435   3.794  0.0301  0.1654 -0.0598
 1295PEP     CB48110   9.551  18.521   3.759 -0.0253 -0.1538 -0.2714
 1295PEP     CB48111   9.874  18.267   3.936 -0.1233 -0.1169  0.2165
 1295PEP     CB48112   9.802  17.917   4.236 -0.1316 -0.2472 -0.1265
 1295PEP     CB48113   9.405  17.666   4.361  0.3237 -0.0454 -0.3602
 1295PEP     CB48114   9.139  17.461   4.057 -0.6068 -0.0681 -0.2161
 1295PEP     CB48115   9.358  17.149   3.817 -0.0185  0.3324  0.0902
 1295PEP     CB48116   9.676  16.848   3.756 -0.1870  0.2134 -0.0459
 1295PEP     CB48117  10.012  16.680   4.047  0.2380 -0.1214  0.2208
 1295PEP     CB48118  10.413  16.679   4.292 -0.1951 -0.1647 -0.1758
 1295PEP     CB48119  10.798  16.831   4.410 -0.1988  0.0047  0.2188
 1295PEP     CB48120  11.113  17.103   4.637  0.7782  0.0940 -0.0169
 1296PEP     CB48121  16.334  18.225  12.052 -0.2639 -0.4249 -0.0456
 1296PEP     CB48122  16.187  18.643  12.072 -0.0665  0.0538  0.3444
 1296PEP     CB48123  16.240  19.090  12.061 -0.3044  0.1864  0.1394
 1296PEP     CB48124  16.551  19.450  11.926  0.0888  0.0675 -0.1730
 1296PEP     CB48125  16.861  19.873  11.926  0.2614  0.3605  0.0925
 1296PEP     CB48126  17.001  20.290  11.936 -0.0605 -0.0622 -0.3038
 1296PEP     CB48127  17.050  20.640  12.192  0.2004 -0.0008  0.1082
 1296PEP     CB48128  16.841  20.751  12.585  0.1774 -0.0520  0.0561
 1296PEP     CB48129  16.334  20.812  12.554 -0.2295 -0.3142 -0.4438
 1296PEP     CB48130  16.153  20.887  12.215 -0.3733  0.4301 -0.1893
 1296PEP     CB48131  16.242  20.978  11.845  0.0168  0.0185 -0.1105
 1296PEP     CB48132  16.341  21.049  11.426 -0.3884  0.0492 -0.0073
 1296PEP     CB48133  16.482  21.192  11.072 -0.2380  0.3125  0.3874
 1296PEP     CB48134  16.397  21.332  10.676  0.0345 -0.0773  0.4670
 1296PEP     CB48135  16.228  21.443  10.231  0.1774  0.0442 -0.1431
 1296PEP     CB48136  16.338  21.427   9.756  0.0036 -0.2809  0.1416
 1296PEP     CB48137  16.293  21.327   9.370  0.1527  0.3453 -0.5425
 1296PEP     CB48138  15.876  21.388   9.094 -0.5365 -0.2451  0.1588
 1296PEP     CB48139  15.458  21.635   9.157 -0.3201 -0.1840  0.3692
 1296PEP     CB48140  15.046  21.530   9.136 -0.3576  0.1114  0.1198
 1296PEP     CB48141  14.781  21.523   8.795 -0.2243  0.1258 -0.0322
 1296PEP     CB48142  14.929  21.273   8.488 -0.2863 -0.1393 -0.0530
 1296PEP     CB48143  15.157  20.983   8.536  0.0341  0.0304  0.2918
 1296PEP     CB48144  15.467  20.944   8.855  0.0990 -0.0125 -0.1686
 1296PEP     CB48145  15.475  21.075   9.207  0.1932  0.1677  0.1319
 1296PEP     CB48146  15.708  21.041   9.629 -0.1745  0.3071 -0.1403
 1296PEP     CB48147  16.265  20.930   9.737  0.4248 -0.1202  0.1213
 1296PEP     CB48148  16.531  20.741   9.319 -0.2211 -0.1889  0.0919
 1296PEP     CB48149  16.591  20.416   9.188 -0.1211 -0.2711  0.3774
 1296PEP     CB48150  16.723  20.018   9.097  0.2343  0.0790 -0.0676
 1296PEP     CB48151  17.066  19.775   8.846 -0.4079  0.1182  0.5457
 1296PEP     CB48152  17.376  19.799   8.620  0.0142 -0.0222 -0.1807
 1296PEP     CB48153  17.460  20.048   8.250 -0.1712  0.0793  0.1463
 1296PEP     CB48154  17.486  20.548   8.256 -0.4720 -0.1760 -0.0087
 1296PEP     CB48155  17.731  20.944   8.377  0.5206 -0.4200 -0.2277
 1296PEP     CB48156  18.130  20.824   8.534  0.2792 -0.2698  0.1975
 1296PEP     CB48157  18.129  20.434   8.785 -0.0294  0.3647 -0.1406
 1296PEP     CB48158  17.925  20.165   8.921 -0.0181  0.0171 -0.3912
 1296PEP     CB48159  17.463  20.175   9.049  0.1597  0.2880 -0.1381
 1296PEP     CB48160  17.180  20.258   9.354 -0.2816  0.1134 -0.0335
 1297PEP     CB48161  16.773   2.496  18.233 -0.2497  0.3598 -0.4721
 1297PEP     CB48162  16.810   2.533  18.704  0.0926  0.1506 -0.1234
 1297PEP     CB48163  16.720   2.555  19.135 -0.3641 -0.0197  0.2024
 1297PEP     CB48164  16.741   2.524  19.559 -0.2816 -0.0583 -0.1054
 1297PEP     CB48165  16.855   2.489  19.937  0.0066 -0.3908  0.3400
 1297PEP     CB48166  16.689   2.166  20.200  0.0752  0.0587 -0.1277
 1297PEP     CB48167  16.388   1.924  20.120 -0.1994 -0.1453 -0.0570
 1297PEP     CB48168  15.934   1.803  20.002  0.0096  0.4002 -0.1546
 1297PEP     CB48169  15.487   1.670  20.013  0.3250 -0.1976 -0.0368
 1297PEP     CB48170  15.092   1.596  19.919  0.2998 -0.0411 -0.0710
 1297PEP     CB48171  14.738   1.683  20.159  0.1821  0.4655  0.1955
 1297PEP     CB48172  14.469   2.041  20.342 -0.0746 -0.0793 -0.1945
 1297PEP     CB48173  14.510   2.357  20.444  0.0116  0.4964 -0.0021
 1297PEP     CB48174  14.194   2.639  20.553 -0.0123 -0.1336  0.1448
 1297PEP     CB48175  13.697   2.541  20.799  0.1599 -0.0746  0.1479
 1297PEP     CB48176  13.665   2.345  21.250 -0.2179  0.0153  0.0129
 1297PEP     CB48177  13.879   2.512  21.587  0.0731  0.0419  0.4593
 1297PEP     CB48178  13.980   2.943  21.570  0.1043 -0.2474 -0.2625
 1297PEP     CB48179  14.367   3.129  21.250 -0.3226  0.0815  0.1819
 1297PEP     CB48180  14.363   3.032  20.832  0.3015 -0.1565  0.2080
 1297PEP     CB48181  13.889   2.983  20.632  0.0011  0.1278 -0.1459
 1297PEP     CB48182  13.461   3.037  20.647 -0.0780  0.0465 -0.2423
 1297PEP     CB48183  13.226   2.793  20.887 -0.0578 -0.0658  0.2635
 1297PEP     CB48184  12.738   2.652  20.853  0.2045 -0.3566  0.1737
 1297PEP     CB48185  12.249   2.454  20.819 -0.0319 -0.0683 -0.0995
 1297PEP     CB48186  11.914   2.368  21.039  0.0000 -0.2968  0.2258
 1297PEP     CB48187  11.664   2.184  21.367  0.3263  0.1687 -0.1689
 1297PEP     CB48188  11.415   1.894  21.674  0.3195 -0.0096 -0.1064
 1297PEP     CB48189  11.388   1.678  22.093 -0.4706 -0.1990  0.0938
 1297PEP     CB48190  11.362   1.384  22.457  0.4693 -0.1960  0.0155
 1297PEP     CB48191  11.196   1.165  22.818  0.2229 -0.9336  0.2096
 1297PEP     CB48192  10.792   1.037  22.989 -0.2464  0.3535 -0.1458
 1297PEP     CB48193  10.423   0.791  23.118  0.1405  0.3754 -0.0787
 1297PEP     CB48194  10.114   0.834  23.546  0.0239 -0.0309 -0.0168
 1297PEP     CB48195   9.794   0.797  23.860 -0.2961  0.1585 -0.1921
 1297PEP     CB48196   9.519   0.633  24.218  0.2496  0.0183  0.5113
 1297PEP     CB48197   9.061   0.529  24.313  0.0266  0.0372  0.1196
 1297PEP     CB48198   8.674   0.484  24.590 -0.0509 -0.2029  0.1134
 1297PEP     CB48199   8.332   0.291  24.735  0.0526  0.1547  0.1287
 1297PEP     CB48200   8.085   0.250  25.164  0.6581 -0.0920  0.0502
 1298PEP     CB48201   6.631  11.944  17.061 -0.3287  0.0815 -0.1164
 1298PEP     CB48202   6.524  11.659  17.382  0.0719  0.1426 -0.1085
 1298PEP     CB48203   6.424  11.740  17.895 -0.2190  0.2980  0.2048
 1298PEP     CB48204   6.409  11.746  18.341  0.1338 -0.0762  0.5692
 1298PEP     CB48205   6.535  11.854  18.707  0.0715 -0.6995 -0.2610
 1298PEP     CB48206   6.814  12.094  18.909 -0.0053  0.3287 -0.3456
 1298PEP     CB48207   6.976  12.316  19.323  0.0861 -0.1437 -0.2678
 1298PEP     CB48208   7.057  12.467  19.735  0.3138 -0.3645  0.3546
 1298PEP     CB48209   7.079  12.470  20.155  0.0244  0.6046  0.0643
 1298PEP     CB48210   7.084  12.386  20.640 -0.2094 -0.0761 -0.1874
 1298PEP     CB48211   6.919  12.263  21.042 -0.1372 -0.0678  0.2129
 1298PEP     CB48212   6.871  11.923  21.401 -0.0044 -0.1358  0.3734
 1298PEP     CB48213   6.704  11.520  21.587 -0.1268  0.1715  0.7678
 1298PEP     CB48214   6.644  11.504  21.971 -0.1921  0.1844  0.1545
 1298PEP     CB48215   6.899  11.790  22.200  0.0769 -0.1852  0.0641
 1298PEP     CB48216   7.385  11.766  22.298  0.0796 -0.0321  0.0066
 1298PEP     CB48217   7.694  11.768  22.540  0.6029 -0.2989  0.0645
 1298PEP     CB48218   7.724  11.507  22.933 -0.1562  0.2230  0.4690
 1298PEP     CB48219   7.539  11.499  23.365  0.0492 -0.0344  0.1599
 1298PEP     CB48220   7.150  11.647  23.442  0.1355  0.2598  0.0657
 1298PEP     CB48221   6.827  11.856  23.196  0.5174  0.0535  0.3052
 1298PEP     CB48222   6.894  12.015  22.716 -0.2608 -0.2529 -0.0765
 1298PEP     CB48223   7.341  12.330  22.634 -0.2188 -0.0798  0.0552
 1298PEP     CB48224   7.566  12.774  22.845  0.2273 -0.0551  0.4299
 1298PEP     CB48225   7.974  12.639  23.142  0.0001  0.1463 -0.1021
 1298PEP     CB48226   8.400  12.544  23.252 -0.1014  0.0567  0.1374
 1298PEP     CB48227   8.579  12.239  23.383 -0.1129  0.1428  0.1728
 1298PEP     CB48228   8.614  11.830  23.695  0.0339 -0.2090 -0.1579
 1298PEP     CB48229   8.447  11.429  23.744 -0.1439  0.1750 -0.1406
 1298PEP     CB48230   8.253  11.161  23.327  0.0305  0.0032  0.2666
 1298PEP     CB48231   8.295  11.496  22.960  0.1576  0.1563  0.1421
 1298PEP     CB48232   8.570  11.817  23.125 -0.0527 -0.0434  0.4007
 1298PEP     CB48233   9.039  11.801  23.237  0.1908  0.1185 -0.1323
 1298PEP     CB48234   9.364  11.680  22.992 -0.2111  0.0362 -0.1268
 1298PEP     CB48235   9.428  11.284  22.887  0.0956  0.0568 -0.0641
 1298PEP     CB48236   9.303  10.845  22.754 -0.1291  0.1859 -0.0450
 1298PEP     CB48237   9.067  10.596  22.482 -0.0925 -0.1924  0.1114
 1298PEP     CB48238   8.727  10.306  22.457 -0.2014  0.0133 -0.1872
 1298PEP     CB48239   8.666   9.956  22.739  0.0860 -0.1743  0.0900
 1298PEP     CB48240   8.933   9.948  23.174  0.6357 -0.1812 -0.0650
 1299PEP     CB48241  13.119  21.070   3.394  0.6807  0.0210 -0.1498
 1299PEP     CB48242  13.009  21.197   2.954 -0.0989 -0.4581 -0.1953
 1299PEP     CB48243  12.814  21.439   2.663  0.0812  0.0803  0.0244
 1299PEP     CB48244  12.866  21.762   2.303 -0.0100 -0.0788  0.0504
 1299PEP     CB48245  12.686  22.168   2.200  0.0100 -0.2613 -0.3792
 1299PEP     CB48246  12.342  22.333   2.381  0.0052 -0.1463 -0.0559
 1299PEP     CB48247  12.137  22.151   2.713 -0.2367  0.2666  0.2437
 1299PEP     CB48248  12.200  21.768   2.991  0.2246 -0.0575 -0.0626
 1299PEP     CB48249  12.424  21.388   3.050  0.3009  0.1524 -0.0614
 1299PEP     CB48250  12.473  20.985   2.917  0.4069  0.0085 -0.1352
 1299PEP     CB48251  12.328  20.668   2.599  0.4231 -0.2793  0.2055
 1299PEP     CB48252  12.336  20.309   2.296 -0.3207 -0.0504 -0.3472
 1299PEP     CB48253  12.279  19.888   2.036  0.3775 -0.3155  0.0974
 1299PEP     CB48254  12.139  19.476   2.058 -0.1229 -0.0202 -0.2771
 1299PEP     CB48255  12.159  18.949   2.163  0.5283 -0.1831 -0.0155
 1299PEP     CB48256  12.016  18.583   2.221 -0.0427  0.5545  0.2718
 1299PEP     CB48257  11.562  18.472   2.395  0.1399  0.0085 -0.0846
 1299PEP     CB48258  11.317  18.381   2.632 -0.1289 -0.1335  0.0818
 1299PEP     CB48259  10.907  18.525   2.624 -0.1207  0.1175 -0.0767
 1299PEP     CB48260  10.608  18.471   2.174  0.0101  0.0934  0.3322
 1299PEP     CB48261  10.541  18.070   1.972  0.1472 -0.1171 -0.2642
 1299PEP     CB48262  10.631  17.724   1.874 -0.1291 -0.1142 -0.1700
 1299PEP     CB48263  10.701  17.403   1.621 -0.0401 -0.0788 -0.0330
 1299PEP     CB48264  10.970  17.117   1.469  0.0939 -0.1488 -0.3292
 1299PEP     CB48265  11.052  16.858   1.243 -0.2082 -0.5229 -0.1515
 1299PEP     CB48266  11.245  16.633   0.880  0.1526  0.0474  0.0356
 1299PEP     CB48267  11.456  16.231   0.894 -0.3132  0.0462 -0.0782
 1299PEP     CB48268  11.285  15.914   0.847  0.1198  0.2844 -0.1930
 1299PEP     CB48269  10.894  15.790   0.798 -0.3986  0.0774  0.0370
 1299PEP     CB48270  10.558  15.970   0.971  0.1185 -0.0438  0.2769
 1299PEP     CB48271  10.428  15.984   1.397  0.0376 -0.0472 -0.0589
 1299PEP     CB48272  10.365  16.080   1.837 -0.1047  0.0180  0.0935
 1299PEP     CB48273  10.181  16.316   2.164 -0.2504  0.1665 -0.1028
 1299PEP     CB48274  10.130  16.411   2.613 -0.1528  0.1612  0.0145
 1299PEP     CB48275  10.152  16.550   3.012  0.3397  0.1987 -0.0695
 1299PEP     CB48276   9.953  16.648   3.402 -0.0956 -0.2335  0.2767
 1299PEP     CB48277   9.687  16.303   3.645  0.0646  0.1550 -0.1348
 1299PEP     CB48278   9.447  15.830   3.479 -0.2023  0.1271  0.3950
 1299PEP     CB48279   9.625  15.567   3.148 -0.2751 -0.1104  0.4928
 1299PEP     CB48280   9.893  15.229   3.076  0.1715 -0.3210  0.1721
 1300PEP     CB48281   5.050   2.847  13.458  0.1086 -0.1172  0.0984
 1300PEP     CB48282   4.732   2.820  13.724 -0.0348 -0.1123  0.3438
 1300PEP     CB48283   4.413   2.758  14.072  0.2966 -0.2728 -0.2215
 1300PEP     CB48284   3.965   2.791  14.263 -0.2304  0.1037  0.1734
 1300PEP     CB48285   3.672   3.040  14.463  0.1041 -0.2481 -0.3425
 1300PEP     CB48286   3.440   3.357  14.596 -0.2417  0.1240  0.1345
 1300PEP     CB48287   3.061   3.554  14.767  0.0398 -0.2868  0.1751
 1300PEP     CB48288   2.653   3.659  14.652 -0.1143  0.0296  0.0624
 1300PEP     CB48289   2.444   3.782  14.203 -0.0278  0.2246  0.3780
 1300PEP     CB48290   2.341   3.849  13.780  0.2712 -0.1052 -0.1553
 1300PEP     CB48291   2.058   3.877  13.403  0.3866  0.1475 -0.2743
 1300PEP     CB48292   1.689   3.715  13.162 -0.1696 -0.1175 -0.0059
 1300PEP     CB48293   1.292   3.614  13.116  0.0068  0.1100 -0.1183
 1300PEP     CB48294   0.901   3.430  13.126  0.0214  0.1797 -0.1588
 1300PEP     CB48295   0.506   3.317  13.081  0.0579  0.2194  0.2623
 1300PEP     CB48296   0.175   3.181  13.229  0.3280  0.1210  0.0640
 1300PEP     CB48297  -0.072   3.446  13.586  0.3059  0.0513  0.1224
 1300PEP     CB48298   0.110   3.869  13.700  0.0828  0.4873 -0.3512
 1300PEP     CB48299   0.283   4.138  13.983  0.1967 -0.1099  0.0999
 1300PEP     CB48300   0.592   4.009  14.291 -0.2662  0.1298  0.0507
 1300PEP     CB48301   0.697   3.623  14.397 -0.1202 -0.0369 -0.0478
 1300PEP     CB48302   0.871   3.307  14.629 -0.1366  0.0557  0.2136
 1300PEP     CB48303   1.142   3.032  14.851 -0.3399  0.1738  0.1709
 1300PEP     CB48304   1.399   3.150  15.195 -0.1336 -0.3251 -0.4144
 1300PEP     CB48305   1.631   3.578  15.271 -0.1150 -0.3203 -0.1419
 1300PEP     CB48306   1.705   4.087  15.378 -0.0595 -0.1309 -0.1348
 1300PEP     CB48307   1.726   4.477  15.583  0.2370 -0.2789 -0.2550
 1300PEP     CB48308   1.686   4.795  15.329  0.1857  0.0046  0.0716
 1300PEP     CB48309   1.878   4.890  14.985 -0.0729 -0.1349  0.1261
 1300PEP     CB48310   2.231   4.616  14.721  0.1053 -0.3273  0.1633
 1300PEP     CB48311   2.350   4.214  14.854 -0.1573  0.1824 -0.2400
 1300PEP     CB48312   2.340   4.011  15.232 -0.1177  0.2685 -0.0884
 1300PEP     CB48313   2.559   4.100  15.622 -0.0118  0.0291 -0.2697
 1300PEP     CB48314   2.703   4.424  15.902  0.0415 -0.3537  0.0484
 1300PEP     CB48315   2.611   4.883  15.914 -0.3226 -0.4010  0.0966
 1300PEP     CB48316   2.420   5.325  15.881 -0.1406 -0.1276  0.0083
 1300PEP     CB48317   2.327   5.651  15.472 -0.5206  0.3186  0.0988
 1300PEP     CB48318   2.309   6.107  15.433  0.3021 -0.5140 -0.1480
 1300PEP     CB48319   2.310   6.633  15.418 -0.0182  0.2163  0.1858
 1300PEP     CB48320   2.434   6.979  15.294 -0.2285  0.1663  0.3521
 1301PEP     CB48321  19.636  16.241  13.350  0.2494  0.1517 -0.1898
 1301PEP     CB48322  19.506  16.259  13.726 -0.1969  0.2041  0.1888
 1301PEP     CB48323  19.585  16.492  14.178 -0.5571  0.0396  0.3606
 1301PEP     CB48324  19.604  16.902  14.385  0.3865 -0.0181  0.1071
 1301PEP     CB48325  19.539  17.139  14.700  0.1020 -0.3638 -0.1813
 1301PEP     CB48326  19.628  17.469  14.988 -0.1125 -0.3199  0.2304
 1301PEP     CB48327  20.009  17.613  15.093  0.2893  0.2426 -0.1455
 1301PEP     CB48328  20.185  17.784  15.470  0.4097 -0.1379 -0.0649
 1301PEP     CB48329  20.274  17.971  15.923 -0.4651  0.0613  0.2103
 1301PEP     CB48330  20.195  18.218  16.260  0.1822 -0.8725  0.1389
 1301PEP     CB48331  20.195  18.416  16.577 -0.0007  0.1020  0.6068
 1301PEP     CB48332  19.972  18.547  16.963  0.4807 -0.2194 -0.1780
 1301PEP     CB48333  19.946  18.459  17.426 -0.1179  0.0981 -0.0032
 1301PEP     CB48334  19.891  18.150  17.736 -0.0035 -0.0100  0.2461
 1301PEP     CB48335  19.720  17.813  17.979  0.0645  0.0335 -0.4049
 1301PEP     CB48336  19.876  17.492  18.277 -0.3706  0.0623 -0.0014
 1301PEP     CB48337  20.115  17.573  18.614 -0.0194  0.2315  0.4234
 1301PEP     CB48338  20.443  18.024  18.630  0.3692 -0.0802 -0.0954
 1301PEP     CB48339  20.641  18.346  18.431 -0.2779  0.4727 -0.0949
 1301PEP     CB48340  20.623  18.722  18.071  0.1029  0.0590  0.3319
 1301PEP     CB48341  20.864  19.000  17.992 -0.0240  0.0617  0.3182
 1301PEP     CB48342  21.280  19.105  18.131  0.1672  0.0347  0.1392
 1301PEP     CB48343  21.438  19.360  18.482  0.3393 -0.1256 -0.0815
 1301PEP     CB48344  21.435  19.680  18.848  0.1827 -0.5198  0.0882
 1301PEP     CB48345  21.587  19.985  19.240 -0.3387  0.0088  0.1689
 1301PEP     CB48346  21.491  20.108  19.744  0.0524  0.0805 -0.2690
 1301PEP     CB48347  21.814  19.935  20.044  0.1705 -0.3848 -0.1832
 1301PEP     CB48348  22.086  19.545  19.883  0.0912 -0.1006 -0.0511
 1301PEP     CB48349  22.315  19.473  19.501  0.3217  0.3969  0.1457
 1301PEP     CB48350  22.225  19.572  19.054  0.2373  0.0115  0.1537
 1301PEP     CB48351  21.973  19.908  18.896  0.2617 -0.0216 -0.1764
 1301PEP     CB48352  21.697  20.267  18.856 -0.1171 -0.0415  0.1494
 1301PEP     CB48353  21.391  20.380  18.615 -0.1011  0.3114 -0.0408
 1301PEP     CB48354  21.096  20.717  18.649 -0.0379 -0.2185  0.1308
 1301PEP     CB48355  20.674  20.817  18.683 -0.2670  0.2610 -0.3410
 1301PEP     CB48356  20.386  21.221  18.502  0.1940  0.0171  0.0350
 1301PEP     CB48357  20.283  21.593  18.430 -0.1709 -0.1479  0.0538
 1301PEP     CB48358  19.863  21.684  18.307 -0.1115  0.0932 -0.2322
 1301PEP     CB48359  19.478  21.666  18.550 -0.1664 -0.2046 -0.2304
 1301PEP     CB48360  19.093  21.638  18.731 -0.1333  0.0062 -0.2833
 1302PEP     CB48361   4.851   0.155  14.406  0.0265  0.2314 -0.2934
 1302PEP     CB48362   4.395   0.167  14.519 -0.1348  0.3718  0.0157
 1302PEP     CB48363   4.126   0.256  14.277  0.0017  0.3122  0.2513
 1302PEP     CB48364   4.207   0.319  13.821 -0.0634  0.3801  0.1615
 1302PEP     CB48365   4.476   0.214  13.519  0.1332  0.0633 -0.4239
 1302PEP     CB48366   4.712   0.272  13.160 -0.2254 -0.3148  0.3975
 1302PEP     CB48367   4.947   0.420  12.693 -0.0627  0.2153  0.1150
 1302PEP     CB48368   5.276   0.460  12.350  0.1740  0.0626 -0.1763
 1302PEP     CB48369   5.643   0.759  12.148 -0.1656 -0.3069  0.2484
 1302PEP     CB48370   6.044   0.781  12.203 -0.0509  0.1483  0.4931
 1302PEP     CB48371   6.308   0.440  12.184  0.2707 -0.0762 -0.0532
 1302PEP     CB48372   6.337   0.197  11.805  0.3935 -0.0903 -0.0474
 1302PEP     CB48373   6.095  -0.151  11.562  0.0281 -0.4934  0.2042
 1302PEP     CB48374   6.109  -0.636  11.569 -0.1336 -0.2820  0.1263
 1302PEP     CB48375   6.286  -1.060  11.688 -0.1237 -0.1644 -0.1889
 1302PEP     CB48376   6.413  -1.370  11.881  0.1711  0.3476  0.0079
 1302PEP     CB48377   6.426  -1.430  12.346 -0.3155 -0.2884  0.0758
 1302PEP     CB48378   6.220  -1.202  12.521 -0.1839  0.5499 -0.2275
 1302PEP     CB48379   6.049  -0.792  12.445 -0.1970  0.1125  0.0938
 1302PEP     CB48380   5.636  -0.598  12.291 -0.0309 -0.0453 -0.2304
 1302PEP     CB48381   5.198  -0.487  12.373  0.2907  0.1201 -0.0353
 1302PEP     CB48382   4.742  -0.345  12.314 -0.1156  0.0775 -0.3141
 1302PEP     CB48383   4.329  -0.639  12.351  0.3591 -0.0505 -0.0198
 1302PEP     CB48384   4.055  -0.865  12.163 -0.1437  0.0026  0.1672
 1302PEP     CB48385   3.807  -1.220  11.913  0.0512 -0.2094  0.1462
 1302PEP     CB48386   3.656  -1.571  11.772 -0.3219  0.0649  0.0230
 1302PEP     CB48387   3.451  -1.941  11.918  0.2919 -0.0461  0.1809
 1302PEP     CB48388   3.481  -2.349  11.895  0.1257 -0.5580 -0.1723
 1302PEP     CB48389   3.799  -2.600  11.782 -0.0263 -0.2034  0.0654
 1302PEP     CB48390   3.827  -2.732  11.372 -0.1495 -0.1108  0.3928
 1302PEP     CB48391   3.626  -2.752  10.955 -0.2163 -0.0640 -0.0735
 1302PEP     CB48392   3.451  -2.775  10.512  0.1592 -0.1763  0.1760
 1302PEP     CB48393   3.465  -2.803  10.078 -0.2069  0.2481 -0.1673
 1302PEP     CB48394   3.495  -2.512   9.664  0.0507  0.3241 -0.4275
 1302PEP     CB48395   3.599  -2.508   9.174  0.0866  0.1061  0.0343
 1302PEP     CB48396   3.870  -2.631   8.811 -0.3377 -0.0548 -0.1938
 1302PEP     CB48397   3.741  -2.617   8.313  0.3413  0.4373  0.4197
 1302PEP     CB48398   3.578  -2.659   7.917  0.2070 -0.2267 -0.2656
 1302PEP     CB48399   3.198  -2.501   7.806  0.2003  0.1998  0.2137
 1302PEP     CB48400   2.990  -2.111   7.639  0.4212  0.3171 -0.1963
 1303PEP     CB48401  17.983   5.314  19.506 -0.4779 -0.0926  0.0275
 1303PEP     CB48402  17.764   5.299  19.919  0.2327  0.4698 -0.1628
 1303PEP     CB48403  17.474   5.433  20.236  0.1439  0.3103 -0.1934
 1303PEP     CB48404  17.113   5.567  20.407  0.0484 -0.0341 -0.1221
 1303PEP     CB48405  16.689   5.531  20.671 -0.1458 -0.0391  0.2421
 1303PEP     CB48406  16.350   5.450  21.030 -0.2879  0.4921 -0.0900
 1303PEP     CB48407  16.184   5.280  21.323  0.1392  0.2764 -0.1383
 1303PEP     CB48408  15.865   5.195  21.624 -0.2488 -0.2179  0.1649
 1303PEP     CB48409  15.574   5.486  21.833 -0.2679  0.0052  0.2570
 1303PEP     CB48410  15.394   5.902  21.866  0.1515 -0.0623 -0.0702
 1303PEP     CB48411  15.346   6.363  21.670 -0.1247  0.2027  0.0183
 1303PEP     CB48412  15.155   6.757  21.361 -0.0985  0.1161  0.1160
 1303PEP     CB48413  14.860   6.909  21.016  0.1169  0.1290  0.0827
 1303PEP     CB48414  14.855   6.959  20.615  0.1130 -0.2293  0.0467
 1303PEP     CB48415  14.890   7.077  20.200 -0.0739 -0.1868 -0.2902
 1303PEP     CB48416  15.187   7.265  20.004  0.0354  0.2096 -0.3404
 1303PEP     CB48417  15.515   7.458  20.216  0.0556  0.1367 -0.1387
 1303PEP     CB48418  15.793   7.619  20.456 -0.0775  0.0593  0.2762
 1303PEP     CB48419  16.064   7.705  20.746  0.0204  0.3402  0.1015
 1303PEP     CB48420  16.264   7.941  21.104  0.1052  0.2589 -0.0535
 1303PEP     CB48421  16.569   8.170  21.213 -0.2814 -0.0435 -0.0301
 1303PEP     CB48422  16.767   8.568  21.302  0.2814  0.5297 -0.0261
 1303PEP     CB48423  16.838   8.937  21.062  0.0635 -0.2673  0.0582
 1303PEP     CB48424  17.208   9.123  20.773 -0.1458  0.1515 -0.2664
 1303PEP     CB48425  17.321   9.202  20.287  0.2245  0.1056 -0.3968
 1303PEP     CB48426  17.280   9.555  20.024 -0.0469  0.1084  0.1880
 1303PEP     CB48427  17.673   9.793  19.699  0.0197  0.1902  0.0141
 1303PEP     CB48428  18.080  10.067  19.830  0.0924 -0.0672  0.0074
 1303PEP     CB48429  18.326  10.125  20.163 -0.0368  0.2801  0.0817
 1303PEP     CB48430  18.460   9.987  20.569 -0.1212  0.4677 -0.1576
 1303PEP     CB48431  18.104  10.051  20.845  0.0616 -0.1638  0.1476
 1303PEP     CB48432  17.903  10.138  21.235 -0.1217 -0.0075  0.1526
 1303PEP     CB48433  17.600  10.319  21.524 -0.3722 -0.5219 -0.2725
 1303PEP     CB48434  17.319  10.560  21.653  0.2902 -0.0122 -0.1194
 1303PEP     CB48435  17.152  10.838  21.549 -0.0214 -0.3528 -0.1450
 1303PEP     CB48436  16.914  10.924  21.223  0.1115  0.0195 -0.0353
 1303PEP     CB48437  16.863  11.116  20.844  0.1186  0.0117 -0.2045
 1303PEP     CB48438  16.789  11.237  20.482  0.0231  0.3215 -0.1726
 1303PEP     CB48439  16.745  11.586  20.169  0.4584  0.1829 -0.1397
 1303PEP     CB48440  16.668  11.745  19.791  0.1943 -0.1508 -0.2455
 1304PEP     CB48441   4.106  11.248   5.524  0.0978  0.0914 -0.2389
 1304PEP     CB48442   3.958  11.477   5.900  0.2786 -0.2996  0.1672
 1304PEP     CB48443   3.609  11.344   6.175  0.2389  0.1595 -0.5633
 1304PEP     CB48444   3.391  10.928   6.255  0.0792  0.0223  0.3032
 1304PEP     CB48445   3.401  10.541   6.334 -0.0116  0.2655  0.0227
 1304PEP     CB48446   3.145  10.192   6.361  0.0460  0.0651  0.0431
 1304PEP     CB48447   2.874   9.920   6.313  0.1070  0.1865  0.0010
 1304PEP     CB48448   2.771   9.464   6.239 -0.2492  0.1447 -0.0111
 1304PEP     CB48449   2.779   9.047   6.179  0.2919  0.0869 -0.2383
 1304PEP     CB48450   2.559   8.769   6.352  0.1556  0.1419 -0.0611
 1304PEP     CB48451   2.138   8.635   6.271  0.1242 -0.0687 -0.4252
 1304PEP     CB48452   1.758   8.311   6.226  0.2846 -0.3758 -0.1451
 1304PEP     CB48453   1.583   8.081   6.540  0.3652  0.0930 -0.3494
 1304PEP     CB48454   1.184   7.848   6.669 -0.2834  0.0880 -0.1462
 1304PEP     CB48455   0.894   7.550   6.421 -0.1173  0.0784  0.0313
 1304PEP     CB48456   0.599   7.441   6.068 -0.2932 -0.0969  0.1089
 1304PEP     CB48457   0.210   7.399   5.829  0.5213 -0.0721  0.1582
 1304PEP     CB48458  -0.127   7.341   5.501 -0.5768 -0.0314  0.2986
 1304PEP     CB48459  -0.344   7.553   5.254  0.1046  0.2134 -0.1071
 1304PEP     CB48460  -0.776   7.577   5.274 -0.3214 -0.2505  0.1232
 1304PEP     CB48461  -1.098   7.344   5.293  0.0480  0.1700 -0.1146
 1304PEP     CB48462  -1.648   7.346   5.271  0.0472 -0.0987 -0.1454
 1304PEP     CB48463  -1.859   7.037   5.455 -0.1941 -0.1015  0.1952
 1304PEP     CB48464  -1.608   6.746   5.682  0.2129 -0.2711 -0.1109
 1304PEP     CB48465  -1.154   6.742   5.427  0.1846 -0.1198  0.1702
 1304PEP     CB48466  -1.272   6.637   4.977 -0.3258 -0.0007 -0.2719
 1304PEP     CB48467  -1.697   6.702   4.767 -0.2379  0.1222 -0.3182
 1304PEP     CB48468  -2.112   7.050   4.997 -0.1242  0.2552  0.3792
 1304PEP     CB48469  -2.189   7.472   5.172 -0.0594 -0.1082 -0.1019
 1304PEP     CB48470  -2.164   7.788   5.362  0.3460  0.4411 -0.4571
 1304PEP     CB48471  -1.976   7.987   5.615 -0.0729 -0.2378 -0.2492
 1304PEP     CB48472  -1.655   8.424   5.661 -0.0811 -0.1910 -0.0424
 1304PEP     CB48473  -1.284   8.564   5.359 -0.2379 -0.0825 -0.0455
 1304PEP     CB48474  -1.007   8.506   4.990 -0.0600 -0.0341 -0.0424
 1304PEP     CB48475  -0.832   8.526   4.646  0.2314  0.1520  0.0592
 1304PEP     CB48476  -0.747   8.586   4.195  0.2657  0.0190  0.0279
 1304PEP     CB48477  -0.814   8.812   3.722 -0.2328 -0.1788  0.2227
 1304PEP     CB48478  -1.044   8.823   3.426 -0.2158 -0.0149 -0.0403
 1304PEP     CB48479  -1.298   8.736   3.087  0.1896  0.1098 -0.0970
 1304PEP     CB48480  -1.431   8.944   2.744  0.1774  0.1562 -0.2688
 1305PEP     CB48481  19.367   7.862  20.810  0.0379 -0.1788 -0.0667
 1305PEP     CB48482  18.979   8.056  21.140  0.1637 -0.2225  0.0643
 1305PEP     CB48483  18.938   8.219  21.561  0.2400  0.4262 -0.2081
 1305PEP     CB48484  18.923   8.259  21.983  0.1368 -0.1064 -0.0112
 1305PEP     CB48485  19.001   8.561  22.320  0.1428 -0.2384  0.1040
 1305PEP     CB48486  19.167   8.769  22.690 -0.0115 -0.1581  0.2996
 1305PEP     CB48487  19.469   9.039  22.939 -0.5946  0.4077 -0.0802
 1305PEP     CB48488  19.786   9.319  23.174 -0.1524 -0.1823 -0.1039
 1305PEP     CB48489  19.975   9.639  23.016 -0.4858  0.0326  0.0117
 1305PEP     CB48490  20.063   9.794  22.636  0.3788 -0.0284  0.2127
 1305PEP     CB48491  19.916   9.713  22.235 -0.0885  0.0745 -0.3153
 1305PEP     CB48492  19.508   9.812  21.984  0.5946 -0.1473 -0.1808
 1305PEP     CB48493  19.097  10.056  22.059  0.2496 -0.1754  0.1235
 1305PEP     CB48494  18.927  10.426  22.289  0.0133 -0.2919 -0.0925
 1305PEP     CB48495  18.761  10.793  22.358  0.0074 -0.0406  0.3496
 1305PEP     CB48496  18.877  11.201  22.414 -0.3669  0.1607 -0.0565
 1305PEP     CB48497  18.685  11.520  22.330  0.2305  0.1323  0.4019
 1305PEP     CB48498  18.266  11.573  22.316  0.1560 -0.2565  0.0920
 1305PEP     CB48499  17.973  11.735  22.485  0.3968 -0.2385 -0.2185
 1305PEP     CB48500  17.508  11.801  22.444 -0.1094 -0.1953 -0.2419
 1305PEP     CB48501  17.195  11.776  22.120  0.1344 -0.0546  0.0710
 1305PEP     CB48502  17.042  11.701  21.791 -0.3589 -0.2897 -0.1075
 1305PEP     CB48503  16.767  11.318  21.748  0.2909 -0.1098  0.1293
 1305PEP     CB48504  16.820  11.050  22.065  0.0602  0.1318 -0.0870
 1305PEP     CB48505  17.004  11.101  22.426 -0.0932 -0.3377 -0.0778
 1305PEP     CB48506  17.001  11.558  22.602 -0.0156  0.3471  0.2976
 1305PEP     CB48507  17.051  12.010  22.573  0.0138 -0.1918  0.0540
 1305PEP     CB48508  16.922  12.268  22.313  0.1060 -0.4350  0.2952
 1305PEP     CB48509  16.848  12.183  21.835 -0.2059  0.1651 -0.0259
 1305PEP     CB48510  17.031  12.102  21.495  0.0811  0.2935  0.3002
 1305PEP     CB48511  17.363  12.146  21.268  0.0461  0.2785  0.1404
 1305PEP     CB48512  17.782  12.050  21.041  0.0848  0.3856 -0.2171
 1305PEP     CB48513  18.081  11.829  20.981 -0.3503 -0.0426  0.2692
 1305PEP     CB48514  18.073  11.422  20.937  0.0419  0.0245  0.1184
 1305PEP     CB48515  17.739  11.141  20.773  0.1655 -0.2608 -0.4188
 1305PEP     CB48516  17.312  11.240  20.582 -0.2612 -0.1254  0.0889
 1305PEP     CB48517  17.124  11.647  20.455  0.3222  0.0597  0.1712
 1305PEP     CB48518  16.806  11.964  20.552 -0.0252 -0.0741 -0.0194
 1305PEP     CB48519  16.614  12.427  20.500 -0.0743  0.4230 -0.0926
 1305PEP     CB48520  16.278  12.793  20.520 -0.5012 -0.1499  0.3115
 1306PEP     CB48521  20.986   0.555   1.429  0.0385  0.1237 -0.0539
 1306PEP     CB48522  20.532   0.627   1.583 -0.1876 -0.0532 -0.2225
 1306PEP     CB48523  20.156   0.593   1.378  0.3855  0.1538 -0.3079
 1306PEP     CB48524  19.976   0.664   1.070  0.5309 -0.0427  0.2504
 1306PEP     CB48525  19.580   0.728   0.840 -0.2767  0.4011  0.0801
 1306PEP     CB48526  19.180   0.989   0.884  0.2075  0.3314 -0.1236
 1306PEP     CB48527  18.738   0.950   0.746  0.2014 -0.0276  0.2564
 1306PEP     CB48528  18.310   0.822   0.828  0.3324 -0.0570 -0.0350
 1306PEP     CB48529  17.897   0.661   0.960  0.0025 -0.3104  0.2418
 1306PEP     CB48530  17.464   0.683   0.807  0.1325 -0.1089  0.0735
 1306PEP     CB48531  17.103   0.913   0.838 -0.1323 -0.0190  0.2297
 1306PEP     CB48532  16.641   0.893   0.875 -0.1986  0.0466  0.2913
 1306PEP     CB48533  16.196   0.789   1.048  0.0222 -0.0247 -0.2084
 1306PEP     CB48534  15.856   0.837   1.403  0.5997 -0.3035  0.0383
 1306PEP     CB48535  15.653   1.033   1.720 -0.5116 -0.0871  0.0190
 1306PEP     CB48536  15.770   1.310   2.026 -0.0315  0.1870  0.0688
 1306PEP     CB48537  15.872   1.769   1.936 -0.1898  0.4686  0.0611
 1306PEP     CB48538  16.095   2.052   1.655  0.0528  0.0454 -0.3163
 1306PEP     CB48539  16.420   2.290   1.457  0.2580 -0.1939 -0.2886
 1306PEP     CB48540  16.850   2.396   1.338  0.0545 -0.1395  0.3037
 1306PEP     CB48541  17.274   2.610   1.242 -0.3573  0.1220 -0.0752
 1306PEP     CB48542  17.653   2.868   1.348 -0.1024  0.2116  0.0914
 1306PEP     CB48543  18.140   2.884   1.326 -0.2860 -0.0442  0.0368
 1306PEP     CB48544  18.501   3.120   1.444  0.0438 -0.5024 -0.1948
 1306PEP     CB48545  18.875   3.376   1.387  0.2741 -0.1979  0.1141
 1306PEP     CB48546  19.195   3.556   1.130  0.0159 -0.2868  0.2597
 1306PEP     CB48547  19.292   3.931   0.915  0.1745 -0.1962 -0.1687
 1306PEP     CB48548  19.351   4.122   0.543  0.3470 -0.5490 -0.2335
 1306PEP     CB48549  19.259   4.141   0.216 -0.2096  0.3476 -0.0730
 1306PEP     CB48550  19.310   3.884  -0.158  0.0399 -0.2802 -0.2662
 1306PEP     CB48551  19.233   3.636  -0.584  0.0319 -0.1563  0.2057
 1306PEP     CB48552  18.989   3.516  -0.939  0.1534 -0.2520  0.0721
 1306PEP     CB48553  18.639   3.653  -1.094  0.1334 -0.5448 -0.1694
 1306PEP     CB48554  18.305   3.888  -1.281 -0.0752  0.1109 -0.2419
 1306PEP     CB48555  18.234   4.202  -1.426 -0.1621  0.2956 -0.2721
 1306PEP     CB48556  18.376   4.596  -1.198  0.0180 -0.1552  0.0446
 1306PEP     CB48557  18.391   4.935  -1.089  0.1967 -0.2331  0.1463
 1306PEP     CB48558  18.519   5.352  -1.290 -0.4829 -0.3746 -0.0368
 1306PEP     CB48559  18.369   5.713  -1.587  0.2105  0.0238 -0.2626
 1306PEP     CB48560  18.104   5.990  -1.509  0.4679 -0.1261  0.1678
 1307PEP     CB48561  12.902  14.513   8.495  0.0489  0.1789  0.0463
 1307PEP     CB48562  12.537  14.723   8.742 -0.0546 -0.2043  0.0472
 1307PEP     CB48563  12.470  14.935   9.143 -0.0948 -0.1514  0.2981
 1307PEP     CB48564  12.420  14.799   9.522  0.1720 -0.5315  0.2724
 1307PEP     CB48565  12.055  14.467   9.616 -0.0439 -0.0133  0.0051
 1307PEP     CB48566  11.675  14.399   9.492  0.1866  0.0131  0.0066
 1307PEP     CB48567  11.475  14.485   9.202 -0.0858  0.0211  0.1142
 1307PEP     CB48568  11.454  14.369   8.770 -0.2319  0.0099 -0.1606
 1307PEP     CB48569  11.246  14.337   8.376 -0.1678  0.1547  0.1196
 1307PEP     CB48570  10.970  14.170   8.045  0.0279  0.2893  0.3140
 1307PEP     CB48571  10.889  14.269   7.713 -0.1862  0.0729  0.2705
 1307PEP     CB48572  10.785  14.701   7.646 -0.6972 -0.1545 -0.1234
 1307PEP     CB48573  10.540  15.012   7.430  0.4222 -0.4156 -0.0666
 1307PEP     CB48574  10.519  15.500   7.396 -0.3184  0.3050 -0.4861
 1307PEP     CB48575  10.823  15.771   7.440  0.2808 -0.1436 -0.1090
 1307PEP     CB48576  11.005  16.042   7.115 -0.2939  0.0528  0.1790
 1307PEP     CB48577  11.111  16.145   6.677  0.0983 -0.1548 -0.0688
 1307PEP     CB48578  11.130  15.966   6.214 -0.2774 -0.1429  0.2429
 1307PEP     CB48579  11.334  15.654   6.000 -0.1394 -0.1578  0.0036
 1307PEP     CB48580  11.752  15.386   5.998 -0.2639  0.3250  0.2260
 1307PEP     CB48581  11.971  15.065   5.709 -0.2091 -0.1916 -0.3987
 1307PEP     CB48582  11.614  14.820   5.320  0.0851 -0.1557 -0.2227
 1307PEP     CB48583  11.221  14.980   5.263 -0.4469  0.1338 -0.2978
 1307PEP     CB48584  10.825  15.022   5.052 -0.3503  0.1147  0.3594
 1307PEP     CB48585  10.585  14.688   4.970 -0.0962  0.1574 -0.0657
 1307PEP     CB48586  10.222  14.429   4.863 -0.0988  0.2085 -0.1075
 1307PEP     CB48587   9.800  14.267   4.843 -0.0840 -0.3779 -0.2724
 1307PEP     CB48588   9.413  14.478   4.692 -0.2313 -0.5851  0.0655
 1307PEP     CB48589   9.278  14.388   4.304  0.0966 -0.0410 -0.2315
 1307PEP     CB48590   9.177  14.679   3.918  0.0822  0.2945  0.1580
 1307PEP     CB48591   9.130  15.107   3.805  0.1761  0.0663  0.0751
 1307PEP     CB48592   8.928  15.445   4.023  0.1850  0.3744 -0.0938
 1307PEP     CB48593   8.613  15.444   4.405 -0.1729 -0.1269  0.3142
 1307PEP     CB48594   8.486  15.121   4.634  0.2933 -0.2936  0.0567
 1307PEP     CB48595   8.159  15.085   4.881  0.3593 -0.0683 -0.3795
 1307PEP     CB48596   7.868  15.107   5.161 -0.0560  0.3290 -0.2270
 1307PEP     CB48597   7.785  14.768   5.473 -0.0495 -0.0428  0.1917
 1307PEP     CB48598   7.942  14.354   5.690 -0.1762  0.0336 -0.3162
 1307PEP     CB48599   7.841  13.958   5.781  0.0550  0.0969  0.1229
 1307PEP     CB48600   7.446  13.722   5.609  0.0671  0.1566 -0.1088
 1308PEP     CB48601  14.134   6.958   1.426 -0.3871 -0.2327 -0.0050
 1308PEP     CB48602  14.458   7.147   1.693  0.0507  0.2287 -0.2229
 1308PEP     CB48603  14.895   7.169   1.736 -0.1376 -0.5797  0.2339
 1308PEP     CB48604  15.110   6.779   1.720 -0.0216 -0.0861  0.1563
 1308PEP     CB48605  14.852   6.480   1.414 -0.3824  0.1006  0.1222
 1308PEP     CB48606  14.707   6.466   1.029  0.2302  0.0480  0.0347
 1308PEP     CB48607  14.576   6.646   0.595 -0.0507 -0.1098  0.0377
 1308PEP     CB48608  14.364   7.027   0.422 -0.0336 -0.5040 -0.0269
 1308PEP     CB48609  14.066   7.399   0.529  0.0588  0.5390  0.4539
 1308PEP     CB48610  13.656   7.256   0.720  0.3086  0.0546 -0.1060
 1308PEP     CB48611  13.496   6.742   0.828  0.0347 -0.2792 -0.4187
 1308PEP     CB48612  13.736   6.521   1.127 -0.2083 -0.2187  0.0044
 1308PEP     CB48613  14.241   6.451   1.151 -0.7544  0.1141 -0.0710
 1308PEP     CB48614  14.502   6.938   1.090 -0.0930 -0.0722  0.1080
 1308PEP     CB48615  14.716   7.131   0.758  0.0180 -0.2808  0.1028
 1308PEP     CB48616  14.865   7.005   0.409 -0.1651  0.3304  0.1379
 1308PEP     CB48617  14.963   7.189   0.010  0.3090 -0.0505 -0.2124
 1308PEP     CB48618  14.817   7.135  -0.458  0.2025  0.0287 -0.1891
 1308PEP     CB48619  14.380   7.283  -0.737  0.0205  0.2292 -0.3055
 1308PEP     CB48620  13.951   7.313  -0.977  0.2852  0.0198 -0.2428
 1308PEP     CB48621  13.605   7.045  -1.026 -0.0570 -0.3450  0.1884
 1308PEP     CB48622  13.184   6.965  -1.177 -0.0699  0.3010 -0.0878
 1308PEP     CB48623  12.814   6.981  -1.244 -0.0366  0.0213  0.0583
 1308PEP     CB48624  12.413   6.939  -1.375 -0.3103  0.0457 -0.0676
 1308PEP     CB48625  12.119   6.799  -1.568  0.0250 -0.2021 -0.0467
 1308PEP     CB48626  11.678   6.856  -1.537  0.0788  0.0531 -0.1398
 1308PEP     CB48627  11.371   7.141  -1.537  0.1482 -0.0921 -0.3509
 1308PEP     CB48628  11.055   7.300  -1.859  0.0735  0.2689  0.1169
 1308PEP     CB48629  11.156   7.652  -2.161  0.0824  0.0624 -0.0626
 1308PEP     CB48630  11.530   7.895  -2.084  0.1282 -0.2333 -0.4138
 1308PEP     CB48631  11.954   7.749  -2.018  0.1040 -0.3609 -0.0274
 1308PEP     CB48632  12.175   7.377  -1.913 -0.3477  0.0279 -0.0583
 1308PEP     CB48633  12.538   7.038  -1.998 -0.0539  0.0179 -0.1326
 1308PEP     CB48634  12.958   7.105  -2.293 -0.4387 -0.2159  0.1555
 1308PEP     CB48635  13.208   7.484  -2.425  0.1956 -0.0755 -0.1471
 1308PEP     CB48636  13.244   7.707  -2.868  0.1566  0.3614  0.2893
 1308PEP     CB48637  13.033   7.518  -3.205  0.0543  0.0089 -0.0412
 1308PEP     CB48638  13.203   7.202  -3.542  0.1696 -0.0612 -0.0001
 1308PEP     CB48639  13.469   6.952  -3.788 -0.1137  0.3305 -0.0107
 1308PEP     CB48640  13.656   6.710  -4.129  0.0607 -0.3930  0.4313
 1309PEP     CB48641  18.969  10.685   9.797 -0.1867 -0.0557  0.3400
 1309PEP     CB48642  19.009  10.245   9.855 -0.4903  0.2502  0.2276
 1309PEP     CB48643  19.296  10.009   9.994  0.3312  0.3397 -0.3588
 1309PEP     CB48644  19.618   9.774  10.231 -0.1107  0.1099 -0.2092
 1309PEP     CB48645  19.862   9.525  10.487 -0.3859 -0.0371 -0.0015
 1309PEP     CB48646  20.134   9.109  10.586 -0.4344 -0.1016 -0.2838
 1309PEP     CB48647  20.336   9.060  10.951  0.4479  0.1813  0.3065
 1309PEP     CB48648  20.270   9.301  11.361  0.0354  0.1661 -0.1035
 1309PEP     CB48649  19.947   9.344  11.692 -0.2464  0.2672  0.3269
 1309PEP     CB48650  19.526   9.229  11.585 -0.0784  0.0019  0.0155
 1309PEP     CB48651  19.572   9.019  11.217  0.0667 -0.1688  0.1189
 1309PEP     CB48652  19.848   8.648  10.989 -0.0913 -0.0514  0.1071
 1309PEP     CB48653  19.913   8.233  11.006  0.3028  0.0778 -0.3803
 1309PEP     CB48654  19.836   7.835  10.825 -0.0193  0.1362  0.1333
 1309PEP     CB48655  19.698   7.391  10.789 -0.3891 -0.1114 -0.1804
 1309PEP     CB48656  19.617   6.942  10.945  0.1787  0.0633 -0.0663
 1309PEP     CB48657  19.700   6.761  11.367  0.1645  0.4651 -0.0122
 1309PEP     CB48658  20.084   6.643  11.532 -0.2564  0.2164  0.1077
 1309PEP     CB48659  20.481   6.658  11.741  0.0100  0.1081 -0.2792
 1309PEP     CB48660  20.606   6.733  12.151 -0.0793  0.0232  0.0356
 1309PEP     CB48661  20.256   6.879  12.428 -0.0118  0.3481  0.1056
 1309PEP     CB48662  20.003   7.252  12.288 -0.2592 -0.0922  0.1443
 1309PEP     CB48663  19.826   7.652  12.219  0.3573 -0.0934 -0.4834
 1309PEP     CB48664  19.592   7.872  11.913 -0.1741  0.0956  0.0077
 1309PEP     CB48665  19.577   8.126  11.577 -0.0238  0.3958  0.1953
 1309PEP     CB48666  19.769   8.463  11.448 -0.1107 -0.1646  0.2532
 1309PEP     CB48667  19.915   8.860  11.582  0.0119 -0.1721 -0.3440
 1309PEP     CB48668  19.951   8.928  12.031  0.0129 -0.0383  0.2957
 1309PEP     CB48669  19.944   8.595  12.356  0.1203 -0.2249  0.0289
 1309PEP     CB48670  20.167   8.355  12.649 -0.0884  0.1160  0.1644
 1309PEP     CB48671  20.139   8.068  13.010  0.2167  0.1639 -0.0210
 1309PEP     CB48672  20.347   7.835  13.253 -0.2102  0.3927 -0.4172
 1309PEP     CB48673  20.711   7.558  13.508  0.4613  0.0790  0.1557
 1309PEP     CB48674  20.852   7.175  13.576 -0.0391 -0.2959 -0.2224
 1309PEP     CB48675  20.985   6.704  13.550 -0.0677 -0.1603  0.1833
 1309PEP     CB48676  20.865   6.300  13.398  0.2194 -0.1597 -0.2479
 1309PEP     CB48677  20.489   6.148  13.085 -0.0056  0.1004  0.2679
 1309PEP     CB48678  20.212   6.487  12.902 -0.1174  0.3554 -0.0287
 1309PEP     CB48679  20.269   6.919  12.969  0.0247  0.1362  0.2579
 1309PEP     CB48680  20.670   7.086  13.112 -0.0706 -0.4653 -0.1502
 1310PEP     CB48681  12.107   8.204   0.286  0.3054 -0.2113  0.2442
 1310PEP     CB48682  12.165   7.978  -0.070 -0.0064 -0.2121  0.3619
 1310PEP     CB48683  11.928   7.742  -0.335  0.4534  0.4390  0.0038
 1310PEP     CB48684  11.507   7.641  -0.299 -0.0028 -0.1859 -0.2677
 1310PEP     CB48685  11.125   7.563  -0.390  0.1457  0.0856 -0.4507
 1310PEP     CB48686  10.680   7.711  -0.570  0.0495  0.1252  0.2215
 1310PEP     CB48687  10.168   7.681  -0.610 -0.3454 -0.0953  0.0132
 1310PEP     CB48688   9.799   7.809  -0.544 -0.0515  0.0029  0.0703
 1310PEP     CB48689   9.498   8.180  -0.693 -0.1993 -0.2205 -0.5067
 1310PEP     CB48690   9.249   8.396  -1.020 -0.1431  0.5382 -0.1429
 1310PEP     CB48691   9.253   8.613  -1.430  0.4216 -0.2196 -0.1946
 1310PEP     CB48692   9.306   8.397  -1.835 -0.1408  0.2006  0.0896
 1310PEP     CB48693   9.324   8.015  -2.001 -0.3902 -0.1717  0.3061
 1310PEP     CB48694   9.361   7.618  -2.049 -0.2953  0.0569  0.2496
 1310PEP     CB48695   9.647   7.297  -2.285 -0.4592  0.2179 -0.0672
 1310PEP     CB48696   9.904   7.060  -2.570  0.1048 -0.0028 -0.0584
 1310PEP     CB48697  10.281   6.794  -2.504  0.3207  0.4544  0.1920
 1310PEP     CB48698  10.407   6.383  -2.202  0.3983 -0.0004  0.4021
 1310PEP     CB48699  10.472   6.090  -1.831 -0.0239 -0.1762  0.1370
 1310PEP     CB48700  10.396   6.080  -1.326  0.3189  0.1197 -0.0502
 1310PEP     CB48701  10.456   5.930  -0.838  0.1366 -0.0187  0.0314
 1310PEP     CB48702  10.511   5.699  -0.498  0.2591 -0.0515  0.1131
 1310PEP     CB48703  10.626   5.442  -0.169  0.2908 -0.1637 -0.0047
 1310PEP     CB48704  10.684   5.291   0.156 -0.3474  0.0424  0.0613
 1310PEP     CB48705  10.630   4.972   0.501  0.0007  0.1284  0.3306
 1310PEP     CB48706  10.497   4.504   0.592 -0.0197 -0.0201 -0.0539
 1310PEP     CB48707  10.505   4.112   0.331  0.1435 -0.1510  0.1038
 1310PEP     CB48708  10.622   3.957  -0.085 -0.1683 -0.1292  0.2404
 1310PEP     CB48709  10.715   4.179  -0.407  0.2242  0.0691  0.1553
 1310PEP     CB48710  10.989   4.471  -0.544  0.1120  0.1326 -0.1575
 1310PEP     CB48711  11.360   4.757  -0.700 -0.2572  0.0609 -0.3744
 1310PEP     CB48712  11.642   5.065  -0.750  0.5389 -0.1391 -0.2607
 1310PEP     CB48713  12.057   5.167  -0.548 -0.0030  0.0038  0.1888
 1310PEP     CB48714  12.400   5.389  -0.412  0.1853  0.0066 -0.1623
 1310PEP     CB48715  12.794   5.246  -0.516  0.0248 -0.2767  0.1658
 1310PEP     CB48716  12.937   5.007  -0.698  0.0323  0.0529  0.0332
 1310PEP     CB48717  12.986   4.473  -0.665  0.0811  0.0825 -0.1470
 1310PEP     CB48718  12.942   4.164  -1.017  0.0647  0.3003 -0.0549
 1310PEP     CB48719  13.010   4.252  -1.497  0.1433  0.1156 -0.1229
 1310PEP     CB48720  13.118   4.114  -1.851  0.0483 -0.0782  0.1262
 1311PEP     CB48721  15.886  20.383  16.632  0.2740  0.2759 -0.0849
 1311PEP     CB48722  15.608  20.554  16.216  0.1432  0.2006  0.1014
 1311PEP     CB48723  15.297  20.416  16.091 -0.0711 -0.1931 -0.1284
 1311PEP     CB48724  14.936  20.377  16.306  0.2862 -0.4161 -0.2952
 1311PEP     CB48725  14.853  20.189  16.791  0.2496 -0.4602  0.2565
 1311PEP     CB48726  15.117  20.109  17.068 -0.4960 -0.2164 -0.1656
 1311PEP     CB48727  15.581  20.038  16.972  0.0670  0.0202  0.1385
 1311PEP     CB48728  15.740  19.665  16.878  0.2000 -0.1692  0.2139
 1311PEP     CB48729  15.565  19.284  16.640  0.2843  0.0765 -0.2279
 1311PEP     CB48730  15.173  19.103  16.571  0.0493 -0.0915  0.2503
 1311PEP     CB48731  14.727  19.149  16.729  0.0148 -0.3091 -0.3488
 1311PEP     CB48732  14.327  18.908  16.932  0.1417  0.3719  0.0259
 1311PEP     CB48733  13.971  18.939  17.101 -0.2275 -0.2260  0.1728
 1311PEP     CB48734  13.627  19.177  17.013 -0.1067  0.1780 -0.1604
 1311PEP     CB48735  13.334  19.361  17.287  0.1384  0.1216  0.5865
 1311PEP     CB48736  13.156  19.367  17.728  0.1165 -0.0909  0.2571
 1311PEP     CB48737  13.245  19.559  18.160  0.5389  0.7250  0.3351
 1311PEP     CB48738  13.453  19.831  18.360  0.0563  0.2070  0.0209
 1311PEP     CB48739  13.742  20.220  18.369 -0.2374 -0.1802  0.0949
 1311PEP     CB48740  14.017  20.447  18.202  0.1194  0.0343 -0.3182
 1311PEP     CB48741  14.328  20.487  18.396  0.4833  0.1014  0.1159
 1311PEP     CB48742  14.668  20.233  18.565 -0.2023 -0.1338 -0.2261
 1311PEP     CB48743  14.926  19.923  18.791  0.1289  0.1282 -0.2144
 1311PEP     CB48744  15.388  19.960  18.787  0.0356 -0.1166  0.1629
 1311PEP     CB48745  15.795  19.849  18.661 -0.4203  0.1060 -0.1207
 1311PEP     CB48746  16.006  20.132  18.505  0.0011  0.0788  0.2225
 1311PEP     CB48747  15.819  20.441  18.219 -0.0243 -0.0121 -0.0322
 1311PEP     CB48748  15.490  20.301  17.919  0.4409  0.0366  0.3539
 1311PEP     CB48749  15.333  19.840  17.944 -0.1261  0.2893 -0.3658
 1311PEP     CB48750  15.610  19.631  18.293  0.0664 -0.0038 -0.1864
 1311PEP     CB48751  15.976  19.477  18.305 -0.1359  0.1544  0.2816
 1311PEP     CB48752  16.291  19.676  18.245  0.3538  0.0793  0.2096
 1311PEP     CB48753  16.308  20.168  18.137 -0.3351 -0.3576 -0.1985
 1311PEP     CB48754  16.263  20.517  18.316 -0.0381  0.0943  0.1391
 1311PEP     CB48755  16.195  20.592  18.695 -0.6124  0.1607  0.2540
 1311PEP     CB48756  15.985  20.732  19.064  0.1440  0.1241 -0.0825
 1311PEP     CB48757  15.748  20.517  19.309  0.1812 -0.0255 -0.2439
 1311PEP     CB48758  15.547  20.129  19.299  0.0794  0.1578  0.1636
 1311PEP     CB48759  15.731  19.713  19.157 -0.1052 -0.0470 -0.0759
 1311PEP     CB48760  16.129  19.596  19.327  0.2630 -0.1426  0.1378
 1312PEP     CB48761   0.124  17.460  16.783 -0.1542  0.1832  0.1011
 1312PEP     CB48762   0.067  17.011  16.645 -0.2994 -0.3007 -0.0160
 1312PEP     CB48763  -0.280  16.795  16.444 -0.2757 -0.0115  0.5314
 1312PEP     CB48764  -0.681  16.847  16.399 -0.1436  0.1091  0.2903
 1312PEP     CB48765  -0.999  17.070  16.654  0.1311  0.2158 -0.2546
 1312PEP     CB48766  -0.928  17.294  17.018  0.0597 -0.0692 -0.2859
 1312PEP     CB48767  -1.056  17.382  17.448 -0.0386 -0.0029 -0.1329
 1312PEP     CB48768  -1.428  17.309  17.622  0.2377  0.0127  0.4635
 1312PEP     CB48769  -1.728  17.158  17.994  0.3910 -0.0563  0.0520
 1312PEP     CB48770  -1.949  16.965  18.378 -0.1142 -0.0023  0.2404
 1312PEP     CB48771  -2.068  16.708  18.750  0.0606 -0.0033 -0.0905
 1312PEP     CB48772  -1.977  16.235  18.703  0.0356 -0.0356  0.2689
 1312PEP     CB48773  -1.835  15.948  18.346  0.0409 -0.1823 -0.1881
 1312PEP     CB48774  -1.607  16.007  17.913  0.0598 -0.2733 -0.2232
 1312PEP     CB48775  -1.361  16.273  17.647 -0.1160 -0.2733  0.3456
 1312PEP     CB48776  -1.263  16.397  17.285 -0.0561  0.2845  0.1960
 1312PEP     CB48777  -1.023  16.248  16.949 -0.1442  0.1537 -0.0361
 1312PEP     CB48778  -1.021  15.960  16.692 -0.0608 -0.1803  0.4228
 1312PEP     CB48779  -1.104  15.582  16.455 -0.0882 -0.0714 -0.4806
 1312PEP     CB48780  -1.385  15.355  16.112  0.2432 -0.1073 -0.0796
 1312PEP     CB48781  -1.648  15.403  15.778 -0.2301 -0.0545 -0.0374
 1312PEP     CB48782  -1.954  15.686  15.798  0.3931  0.0971  0.1923
 1312PEP     CB48783  -1.964  16.093  15.759  0.0601  0.2793  0.0548
 1312PEP     CB48784  -1.926  16.449  15.517  0.3627 -0.1360  0.1378
 1312PEP     CB48785  -1.781  16.830  15.444 -0.3123 -0.1467 -0.2799
 1312PEP     CB48786  -1.694  17.121  15.192  0.1275  0.1169 -0.3147
 1312PEP     CB48787  -1.528  17.612  15.119 -0.4996  0.2812  0.5983
 1312PEP     CB48788  -1.315  17.887  14.766 -0.4324 -0.0853 -0.1237
 1312PEP     CB48789  -1.053  17.592  14.488 -0.1373 -0.1102 -0.0259
 1312PEP     CB48790  -1.009  17.128  14.467 -0.0861 -0.0419 -0.3202
 1312PEP     CB48791  -1.170  16.757  14.784  0.2171  0.0977 -0.1738
 1312PEP     CB48792  -1.404  16.740  15.093  0.1774 -0.1575  0.0645
 1312PEP     CB48793  -1.292  17.074  15.413  0.0782 -0.1919 -0.3881
 1312PEP     CB48794  -0.937  17.287  15.574  0.1430  0.5424 -0.8212
 1312PEP     CB48795  -0.631  17.571  15.621  0.1292  0.0893 -0.0652
 1312PEP     CB48796  -0.596  17.961  15.721 -0.1768 -0.1187  0.0515
 1312PEP     CB48797  -0.649  18.374  15.547 -0.4060  0.4167  0.1753
 1312PEP     CB48798  -0.637  18.729  15.661  0.2745 -0.0871  0.4371
 1312PEP     CB48799  -0.746  18.843  16.162  0.3817  0.0841  0.0410
 1312PEP     CB48800  -1.002  18.974  16.430  0.4313 -0.1859  0.0160
 1313PEP     CB48801  21.717   7.473  13.025 -0.0793 -0.0632 -0.1074
 1313PEP     CB48802  21.862   7.128  12.887 -0.2738  0.0300 -0.1263
 1313PEP     CB48803  22.050   6.777  12.889 -0.0866  0.0910 -0.3138
 1313PEP     CB48804  22.332   6.382  13.089 -0.0874  0.0565 -0.2188
 1313PEP     CB48805  22.400   5.947  13.343 -0.2912  0.1201  0.3591
 1313PEP     CB48806  22.571   5.636  13.584 -0.0079 -0.3669 -0.4164
 1313PEP     CB48807  22.841   5.330  13.483 -0.0529  0.0667  0.0567
 1313PEP     CB48808  23.095   5.207  13.162  0.1652 -0.3366  0.2359
 1313PEP     CB48809  23.316   5.147  12.786  0.0162 -0.0129 -0.4049
 1313PEP     CB48810  23.796   5.269  12.773  0.3175 -0.1193 -0.0677
 1313PEP     CB48811  24.168   5.073  13.016 -0.3466 -0.0605  0.0376
 1313PEP     CB48812  24.380   4.904  13.389 -0.1457  0.0572  0.3022
 1313PEP     CB48813  24.263   4.683  13.736 -0.1708  0.0357  0.0112
 1313PEP     CB48814  24.040   4.294  13.795 -0.0920  0.2097  0.1885
 1313PEP     CB48815  23.935   3.934  14.072  0.1242  0.0711  0.4149
 1313PEP     CB48816  23.977   3.628  14.291 -0.2895  0.3578 -0.0448
 1313PEP     CB48817  24.269   3.458  14.601  0.1250  0.2402 -0.1746
 1313PEP     CB48818  24.522   3.201  14.919  0.1879  0.1985  0.0268
 1313PEP     CB48819  24.557   2.958  15.298 -0.1029  0.2495  0.0496
 1313PEP     CB48820  24.797   2.588  15.440 -0.0661 -0.1257  0.0634
 1313PEP     CB48821  25.068   2.203  15.114 -0.2088 -0.1240 -0.2379
 1313PEP     CB48822  25.311   2.191  14.689 -0.3901  0.2150  0.1153
 1313PEP     CB48823  25.206   2.348  14.238  0.2459  0.3769 -0.1477
 1313PEP     CB48824  24.949   2.759  14.266  0.2570 -0.4042 -0.6032
 1313PEP     CB48825  25.044   3.104  14.611  0.1216  0.3458 -0.0304
 1313PEP     CB48826  25.056   3.131  15.022 -0.0617 -0.0669 -0.1251
 1313PEP     CB48827  24.964   3.232  15.385  0.3110 -0.2760 -0.2157
 1313PEP     CB48828  25.037   3.340  15.734 -0.2779  0.0135 -0.5204
 1313PEP     CB48829  25.368   3.235  15.957  0.1195  0.1743  0.1969
 1313PEP     CB48830  25.516   2.919  16.140  0.2410  0.3605 -0.1507
 1313PEP     CB48831  25.673   2.964  16.566 -0.0076 -0.0100 -0.1196
 1313PEP     CB48832  25.733   3.398  16.692 -0.2228 -0.0288 -0.0271
 1313PEP     CB48833  25.570   3.726  16.750  0.2187  0.1466  0.2634
 1313PEP     CB48834  25.128   3.770  16.946 -0.1556 -0.2732 -0.3404
 1313PEP     CB48835  24.928   3.565  17.397 -0.3310  0.1587 -0.1483
 1313PEP     CB48836  24.636   3.481  17.753  0.1813 -0.2245  0.0207
 1313PEP     CB48837  24.226   3.391  17.924 -0.1527  0.1262  0.4415
 1313PEP     CB48838  23.876   3.252  17.768  0.0431 -0.1608  0.3457
 1313PEP     CB48839  23.426   3.320  17.553  0.1136 -0.3658 -0.1329
 1313PEP     CB48840  23.289   3.231  17.102  0.0235 -0.1609  0.0914
 1314PEP     CB48841   3.402  11.624  16.348  0.0556 -0.4601  0.1039
 1314PEP     CB48842   3.624  11.962  16.377  0.0641  0.3499  0.3087
 1314PEP     CB48843   3.954  12.164  16.070 -0.1443  0.2602  0.2297
 1314PEP     CB48844   4.282  11.956  15.895 -0.0442  0.0927 -0.1043
 1314PEP     CB48845   4.705  12.001  15.579 -0.4758 -0.4512  0.2308
 1314PEP     CB48846   4.903  12.344  15.437 -0.1469 -0.1836  0.2433
 1314PEP     CB48847   4.772  12.667  15.183 -0.0244  0.3637 -0.0022
 1314PEP     CB48848   4.452  12.666  14.871 -0.0631 -0.2334  0.1967
 1314PEP     CB48849   4.177  12.595  14.581 -0.0138 -0.3242  0.2609
 1314PEP     CB48850   3.687  12.717  14.500 -0.1350 -0.0404 -0.0760
 1314PEP     CB48851   3.405  13.050  14.662 -0.0131 -0.2688  0.4892
 1314PEP     CB48852   3.307  13.490  14.718 -0.6740 -0.2229 -0.1634
 1314PEP     CB48853   3.026  13.672  14.928  0.0254 -0.1720 -0.1098
 1314PEP     CB48854   2.632  13.719  15.083  0.0626 -0.2151  0.1346
 1314PEP     CB48855   2.315  13.706  15.329 -0.0763  0.3772 -0.1296
 1314PEP     CB48856   2.226  13.564  15.773  0.3277 -0.1781 -0.2403
 1314PEP     CB48857   2.332  13.608  16.277  0.3130 -0.4394 -0.2210
 1314PEP     CB48858   2.618  13.424  16.533 -0.1569  0.3490 -0.2290
 1314PEP     CB48859   2.940  13.189  16.741 -0.4362 -0.1494  0.0119
 1314PEP     CB48860   3.119  12.869  16.697 -0.1835 -0.2227  0.5436
 1314PEP     CB48861   3.419  12.557  16.617 -0.1716  0.3304  0.0727
 1314PEP     CB48862   3.419  12.371  16.245  0.0808  0.2601  0.5334
 1314PEP     CB48863   3.325  12.430  15.866 -0.4238  0.0395 -0.0752
 1314PEP     CB48864   2.998  12.474  15.577  0.1132 -0.2035 -0.0861
 1314PEP     CB48865   2.506  12.315  15.432  0.0892  0.0580 -0.1124
 1314PEP     CB48866   2.300  12.269  14.989  0.0241  0.0745  0.2320
 1314PEP     CB48867   2.352  12.601  14.660 -0.0404 -0.2211  0.0797
 1314PEP     CB48868   2.530  12.849  14.249 -0.1872 -0.0684  0.1310
 1314PEP     CB48869   2.796  12.792  13.866  0.0655 -0.1798 -0.1979
 1314PEP     CB48870   2.627  12.761  13.446  0.0667 -0.6685 -0.1081
 1314PEP     CB48871   2.206  12.451  13.387 -0.3302  0.0890 -0.1714
 1314PEP     CB48872   2.041  12.045  13.374 -0.4186  0.0450  0.2844
 1314PEP     CB48873   2.189  11.700  13.516  0.1216  0.1722  0.4331
 1314PEP     CB48874   2.355  11.349  13.794  0.1271 -0.2194 -0.3667
 1314PEP     CB48875   2.519  11.054  14.151  0.0777 -0.0316 -0.0372
 1314PEP     CB48876   2.673  10.813  14.456 -0.1016 -0.3031  0.0845
 1314PEP     CB48877   2.545  10.736  14.873 -0.0276 -0.1476 -0.0269
 1314PEP     CB48878   2.294  10.918  15.240  0.2924 -0.0552 -0.0229
 1314PEP     CB48879   2.140  11.312  15.430 -0.3409  0.2339  0.5316
 1314PEP     CB48880   2.165  11.641  15.704 -0.0252 -0.3211 -0.3012
 1315PEP     CB48881  16.392   8.494  10.377  0.0133  0.1787  0.0310
 1315PEP     CB48882  16.597   8.053  10.488  0.2617 -0.2623  0.1875
 1315PEP     CB48883  16.873   7.675  10.477 -0.0689 -0.3304 -0.0269
 1315PEP     CB48884  17.105   7.544  10.124  0.0389  0.1522 -0.1372
 1315PEP     CB48885  17.295   7.430   9.771 -0.4879 -0.1520  0.2020
 1315PEP     CB48886  17.389   7.116   9.480 -0.2521 -0.0950  0.0519
 1315PEP     CB48887  17.340   6.625   9.311  0.0170  0.2058  0.0709
 1315PEP     CB48888  17.641   6.275   9.197 -0.0412  0.0962 -0.1216
 1315PEP     CB48889  17.802   6.054   8.806 -0.0034  0.1421 -0.4964
 1315PEP     CB48890  17.986   5.882   8.447 -0.1142 -0.0131 -0.1283
 1315PEP     CB48891  18.256   5.543   8.302 -0.2116  0.0729  0.0522
 1315PEP     CB48892  18.703   5.501   8.159 -0.1960 -0.2185  0.1323
 1315PEP     CB48893  19.111   5.494   8.105  0.0229 -0.2928  0.1943
 1315PEP     CB48894  19.466   5.547   8.338 -0.1936  0.2637  0.2810
 1315PEP     CB48895  19.681   5.306   8.563 -0.0089  0.4644 -0.1876
 1315PEP     CB48896  19.656   4.904   8.884 -0.0167 -0.2362  0.0537
 1315PEP     CB48897  19.515   4.737   9.223 -0.0327 -0.0320  0.1771
 1315PEP     CB48898  19.152   4.850   9.475  0.1930  0.3615 -0.3049
 1315PEP     CB48899  18.676   4.849   9.371 -0.1332  0.1408  0.2165
 1315PEP     CB48900  18.529   4.691   9.027  0.2483 -0.1907 -0.2112
 1315PEP     CB48901  18.274   4.479   8.723  0.0636 -0.0301  0.2043
 1315PEP     CB48902  17.967   4.180   8.814  0.0842  0.0382  0.0788
 1315PEP     CB48903  17.940   3.720   8.905 -0.1060 -0.3030  0.0848
 1315PEP     CB48904  18.285   3.480   8.686 -0.0741  0.2598  0.1178
 1315PEP     CB48905  18.580   3.456   8.399  0.0180  0.1618 -0.6503
 1315PEP     CB48906  18.810   3.775   8.156  0.1740  0.1525 -0.1410
 1315PEP     CB48907  18.755   4.219   7.974 -0.1985 -0.2851 -0.0910
 1315PEP     CB48908  18.712   4.654   7.854 -0.3534  0.4382 -0.2388
 1315PEP     CB48909  18.807   5.008   7.603  0.0868 -0.0184  0.0324
 1315PEP     CB48910  18.779   5.468   7.468  0.0513  0.1703  0.1000
 1315PEP     CB48911  18.788   5.822   7.552  0.2658 -0.3494  0.0258
 1315PEP     CB48912  18.573   6.201   7.575  0.2310 -0.0878  0.0785
 1315PEP     CB48913  18.350   6.641   7.437  0.0959 -0.1410 -0.2311
 1315PEP     CB48914  18.026   6.932   7.358 -0.2530 -0.1503 -0.1992
 1315PEP     CB48915  17.853   7.256   7.585 -0.0325 -0.1572 -0.0089
 1315PEP     CB48916  17.823   7.675   7.607  0.0941  0.1005  0.2017
 1315PEP     CB48917  18.107   8.073   7.550 -0.4473  0.0585  0.0093
 1315PEP     CB48918  18.178   8.461   7.691  0.5453 -0.3283  0.1122
 1315PEP     CB48919  18.013   8.883   7.551  0.2177 -0.0673  0.2888
 1315PEP     CB48920  17.562   9.100   7.446 -0.1956 -0.0883 -0.0838
 1316PEP     CB48921  13.658  18.397  12.859 -0.2149 -0.1340 -0.0679
 1316PEP     CB48922  13.583  18.762  12.592  0.1717  0.0567  0.1027
 1316PEP     CB48923  13.210  19.118  12.663  0.1900 -0.0051 -0.1165
 1316PEP     CB48924  13.041  19.282  13.047  0.1949  0.2104 -0.0284
 1316PEP     CB48925  13.209  19.239  13.445  0.1413 -0.3111 -0.1911
 1316PEP     CB48926  13.727  19.185  13.374  0.0704 -0.1401  0.0026
 1316PEP     CB48927  14.013  18.911  13.256  0.1259 -0.1673  0.1268
 1316PEP     CB48928  14.067  18.670  13.009  0.0665  0.1962  0.2782
 1316PEP     CB48929  14.205  18.211  12.875  0.1828  0.0533  0.0664
 1316PEP     CB48930  14.300  17.842  12.503  0.3444  0.2385 -0.0611
 1316PEP     CB48931  14.310  17.363  12.347 -0.0551 -0.2433  0.0762
 1316PEP     CB48932  14.179  17.079  12.033 -0.1919 -0.2049 -0.0664
 1316PEP     CB48933  13.720  17.012  11.923  0.0110 -0.4449  0.1048
 1316PEP     CB48934  13.325  17.277  11.870 -0.1643  0.3380 -0.0505
 1316PEP     CB48935  12.939  17.518  12.042  0.0591  0.2541 -0.1160
 1316PEP     CB48936  12.643  17.685  11.854 -0.3979 -0.1286 -0.3374
 1316PEP     CB48937  12.659  17.905  11.591 -0.3041  0.2483  0.0091
 1316PEP     CB48938  12.702  17.934  11.221 -0.0047  0.0697 -0.0164
 1316PEP     CB48939  12.527  17.698  10.837 -0.0089  0.5040  0.1594
 1316PEP     CB48940  12.087  17.606  10.534  0.2898 -0.4044  0.0000
 1316PEP     CB48941  11.684  17.722  10.276  0.0255 -0.2354 -0.4241
 1316PEP     CB48942  11.592  18.072   9.982  0.0981 -0.1099  0.2745
 1316PEP     CB48943  11.703  18.240   9.582 -0.3322 -0.1783 -0.3181
 1316PEP     CB48944  11.715  18.292   9.189  0.0489  0.0803 -0.1222
 1316PEP     CB48945  11.740  18.263   8.717  0.1717  0.2577  0.1038
 1316PEP     CB48946  11.592  18.311   8.351 -0.0800 -0.0587 -0.2246
 1316PEP     CB48947  11.268  18.181   8.148  0.3185  0.1092 -0.3273
 1316PEP     CB48948  10.996  17.920   8.098 -0.1761  0.4441 -0.0956
 1316PEP     CB48949  10.863  17.509   8.071 -0.1133  0.0936  0.2640
 1316PEP     CB48950  10.608  17.125   8.190  0.2920  0.0874 -0.1743
 1316PEP     CB48951  10.459  16.737   8.455  0.3842 -0.0295 -0.0445
 1316PEP     CB48952  10.313  16.311   8.635  0.1174  0.0163  0.2578
 1316PEP     CB48953  10.200  15.898   8.682 -0.2329 -0.1532  0.1225
 1316PEP     CB48954   9.705  15.775   8.619  0.0168 -0.1710 -0.0704
 1316PEP     CB48955   9.388  15.736   8.385 -0.3021 -0.5337 -0.4944
 1316PEP     CB48956   8.920  15.865   8.222 -0.2871 -0.0701  0.3092
 1316PEP     CB48957   8.585  16.129   8.112  0.1571  0.1204  0.3356
 1316PEP     CB48958   8.090  16.260   8.186  0.7102 -0.0367 -0.2143
 1316PEP     CB48959   7.666  16.396   7.983  0.1216 -0.1149 -0.0693
 1316PEP     CB48960   7.223  16.408   7.871  0.4053 -0.1475 -0.1583
 1317PEP     CB48961  12.283   0.553  18.283 -0.1590  0.4564  0.1726
 1317PEP     CB48962  12.575   0.800  18.533 -0.2341 -0.0419  0.0409
 1317PEP     CB48963  12.986   0.739  18.600 -0.2772  0.0434 -0.0438
 1317PEP     CB48964  13.304   0.863  18.833 -0.0465  0.1635 -0.0769
 1317PEP     CB48965  13.733   1.015  18.942 -0.0455  0.0257  0.1688
 1317PEP     CB48966  14.072   1.362  18.830 -0.0599 -0.1144  0.0166
 1317PEP     CB48967  14.090   1.738  19.050 -0.3044 -0.1914 -0.0826
 1317PEP     CB48968  14.110   2.174  19.341  0.1784 -0.3122 -0.3058
 1317PEP     CB48969  13.993   2.623  19.533 -0.3250  0.2714 -0.0727
 1317PEP     CB48970  13.921   3.094  19.531 -0.2601 -0.0778  0.3485
 1317PEP     CB48971  14.130   3.318  19.270 -0.2771 -0.2613 -0.1463
 1317PEP     CB48972  14.399   3.536  18.996  0.0258 -0.0168 -0.3857
 1317PEP     CB48973  14.450   3.519  18.590 -0.1340 -0.3193 -0.2334
 1317PEP     CB48974  14.665   3.246  18.375  0.2322  0.1571 -0.0488
 1317PEP     CB48975  14.855   2.837  18.423  0.0990 -0.1796 -0.0956
 1317PEP     CB48976  14.962   2.417  18.248  0.4447  0.0115 -0.0727
 1317PEP     CB48977  15.141   2.153  17.895 -0.4096  0.0765  0.0652
 1317PEP     CB48978  15.219   2.001  17.480  0.5147 -0.1863 -0.1285
 1317PEP     CB48979  15.557   1.868  17.323  0.3023 -0.1466 -0.4223
 1317PEP     CB48980  15.976   1.984  17.323  0.0603  0.2418  0.3318
 1317PEP     CB48981  16.271   2.192  17.102  0.2502 -0.1022 -0.3091
 1317PEP     CB48982  16.673   2.087  17.018  0.0354  0.0901  0.0136
 1317PEP     CB48983  17.104   1.986  17.016  0.0528 -0.0494  0.2447
 1317PEP     CB48984  17.313   1.464  17.115 -0.0060  0.1460 -0.0356
 1317PEP     CB48985  17.504   1.002  17.221  0.0296 -0.3375  0.0326
 1317PEP     CB48986  17.710   0.664  17.399 -0.2040  0.3118  0.0876
 1317PEP     CB48987  17.546   0.292  17.460 -0.0504  0.1223  0.4960
 1317PEP     CB48988  17.121   0.260  17.330  0.0351 -0.0535  0.1165
 1317PEP     CB48989  16.730   0.483  17.537  0.0824  0.1008 -0.4371
 1317PEP     CB48990  16.342   0.766  17.523 -0.0646 -0.2595  0.0544
 1317PEP     CB48991  15.970   0.977  17.738 -0.0618 -0.4212 -0.2909
 1317PEP     CB48992  15.793   1.288  18.067  0.1121 -0.1319 -0.2058
 1317PEP     CB48993  15.929   1.285  18.475 -0.0195 -0.1194  0.2652
 1317PEP     CB48994  16.366   1.442  18.491 -0.2763  0.0167  0.4161
 1317PEP     CB48995  16.729   1.368  18.475 -0.0953  0.0061  0.1438
 1317PEP     CB48996  17.175   1.500  18.581 -0.0930 -0.1170 -0.1363
 1317PEP     CB48997  17.440   1.295  18.913 -0.2091  0.0758 -0.2304
 1317PEP     CB48998  17.738   1.227  19.276  0.3657 -0.1073  0.0981
 1317PEP     CB48999  18.063   1.191  19.624 -0.0099 -0.3315  0.0844
 1317PEP     CB49000  18.541   1.360  19.590  0.0072 -0.1637 -0.0841
 1318PEP     CB49001   9.015   3.021  10.062  0.3533  0.0460  0.2294
 1318PEP     CB49002   8.886   2.578   9.964 -0.0493 -0.4680  0.5715
 1318PEP     CB49003   8.604   2.260   9.965  0.2841  0.1549 -0.0137
 1318PEP     CB49004   8.414   2.018   9.708  0.0376  0.0732 -0.2551
 1318PEP     CB49005   8.581   1.737   9.267  0.2362  0.0643 -0.0022
 1318PEP     CB49006   8.695   1.301   9.081 -0.0393  0.2601 -0.0701
 1318PEP     CB49007   9.170   1.086   9.168 -0.1280 -0.0717  0.1297
 1318PEP     CB49008   9.354   1.059   9.499 -0.1793 -0.2829 -0.2709
 1318PEP     CB49009   9.211   1.237   9.905  0.0284  0.0905 -0.0492
 1318PEP     CB49010   8.783   1.263  10.069 -0.2313 -0.0110 -0.1775
 1318PEP     CB49011   8.432   0.975   9.918  0.3156 -0.2916  0.1000
 1318PEP     CB49012   8.360   0.766   9.617 -0.1638  0.0472  0.1720
 1318PEP     CB49013   8.615   0.481   9.300  0.0018 -0.0074 -0.0078
 1318PEP     CB49014   8.792   0.151   9.306 -0.3110 -0.4191 -0.1054
 1318PEP     CB49015   9.130  -0.179   9.449 -0.4021 -0.1305 -0.1218
 1318PEP     CB49016   9.325  -0.544   9.673 -0.1097 -0.1374  0.3724
 1318PEP     CB49017   9.153  -0.819  10.045  0.2972  0.1033  0.0559
 1318PEP     CB49018   8.983  -1.177  10.222 -0.0035  0.2344 -0.1068
 1318PEP     CB49019   8.846  -1.591  10.369 -0.1149 -0.1480 -0.1004
 1318PEP     CB49020   8.583  -2.017  10.482 -0.0224  0.3159  0.3196
 1318PEP     CB49021   8.309  -2.388  10.723 -0.0289  0.0832  0.1774
 1318PEP     CB49022   8.150  -2.716  10.965 -0.1392  0.0941  0.0070
 1318PEP     CB49023   8.061  -2.855  11.424 -0.2035  0.2861 -0.3314
 1318PEP     CB49024   8.107  -3.097  11.777  0.1372  0.0768  0.0182
 1318PEP     CB49025   7.914  -3.481  11.954  0.1612 -0.1016 -0.0179
 1318PEP     CB49026   7.602  -3.636  12.208  0.2874 -0.0177 -0.0916
 1318PEP     CB49027   7.443  -3.592  12.545  0.1354 -0.0482  0.5529
 1318PEP     CB49028   7.625  -3.401  12.838 -0.2222  0.1212  0.1346
 1318PEP     CB49029   8.076  -3.228  13.006 -0.0808  0.2754  0.4269
 1318PEP     CB49030   8.385  -3.089  13.193  0.1424  0.1947  0.0774
 1318PEP     CB49031   8.859  -2.990  13.170  0.1270  0.1178 -0.1739
 1318PEP     CB49032   9.042  -2.550  13.022 -0.1996  0.3802  0.4072
 1318PEP     CB49033   8.854  -2.051  12.910  0.1848 -0.3985  0.2859
 1318PEP     CB49034   8.444  -1.894  12.742  0.0089  0.1184 -0.1572
 1318PEP     CB49035   8.267  -1.801  12.361  0.2209  0.0836  0.1401
 1318PEP     CB49036   8.314  -1.488  12.069  0.0370  0.1569  0.1907
 1318PEP     CB49037   8.606  -1.317  11.864 -0.0503 -0.0422 -0.0235
 1318PEP     CB49038   8.873  -1.374  11.517 -0.0990 -0.2253  0.4159
 1318PEP     CB49039   8.783  -1.597  11.133  0.1561  0.2215  0.1007
 1318PEP     CB49040   8.567  -1.998  11.055  0.0418  0.0411  0.0554
 1319PEP     CB49041  20.714  17.835  15.514 -0.1275 -0.4483 -0.3021
 1319PEP     CB49042  20.680  18.093  15.254  0.0220 -0.0854 -0.0333
 1319PEP     CB49043  20.573  18.416  14.984  0.0637  0.1577 -0.0685
 1319PEP     CB49044  20.710  18.866  14.898 -0.1017 -0.3149  0.0201
 1319PEP     CB49045  20.659  19.354  14.768  0.0414 -0.1583  0.0904
 1319PEP     CB49046  20.398  19.562  14.437 -0.4019  0.1134  0.0392
 1319PEP     CB49047  20.062  19.907  14.258 -0.1956 -0.1507 -0.1617
 1319PEP     CB49048  19.658  20.111  14.268  0.2427 -0.1752 -0.1102
 1319PEP     CB49049  19.398  20.338  13.980  0.2123  0.1251 -0.1966
 1319PEP     CB49050  19.164  20.290  13.672  0.2542 -0.2140  0.2424
 1319PEP     CB49051  18.936  20.201  13.351  0.1980  0.2817  0.4437
 1319PEP     CB49052  18.766  19.819  13.364  0.0872 -0.0635  0.0046
 1319PEP     CB49053  18.913  19.537  13.587 -0.0623 -0.2300  0.3994
 1319PEP     CB49054  18.975  19.510  14.076  0.2692  0.1342  0.2732
 1319PEP     CB49055  18.857  19.438  14.510 -0.0548 -0.5117 -0.0955
 1319PEP     CB49056  18.465  19.220  14.714  0.0368 -0.0517  0.1514
 1319PEP     CB49057  18.100  18.988  14.672  0.0786 -0.3208  0.5158
 1319PEP     CB49058  17.723  18.869  14.746  0.5379  0.0910 -0.4565
 1319PEP     CB49059  17.354  18.979  14.750  0.0494  0.0545  0.1185
 1319PEP     CB49060  17.165  19.344  14.850 -0.0894 -0.0276 -0.0220
 1319PEP     CB49061  17.111  19.696  14.934 -0.2953  0.4120 -0.0041
 1319PEP     CB49062  16.720  19.829  14.909  0.1406  0.1130 -0.1906
 1319PEP     CB49063  16.330  20.114  14.881 -0.1228 -0.3357 -0.0350
 1319PEP     CB49064  16.013  20.441  14.808  0.2395  0.1470 -0.5293
 1319PEP     CB49065  15.682  20.440  14.421  0.2686 -0.3855  0.0702
 1319PEP     CB49066  15.558  20.151  14.143 -0.0389  0.2063  0.0414
 1319PEP     CB49067  15.286  20.113  13.690  0.3673  0.0389  0.3149
 1319PEP     CB49068  15.036  19.752  13.562 -0.1133 -0.0531  0.1449
 1319PEP     CB49069  14.698  19.722  13.440 -0.1503 -0.1848 -0.0495
 1319PEP     CB49070  14.539  19.788  13.117 -0.2467 -0.3836  0.2719
 1319PEP     CB49071  14.479  19.588  12.620  0.3632 -0.2113  0.1900
 1319PEP     CB49072  14.620  19.359  12.192  0.2013  0.3486 -0.2456
 1319PEP     CB49073  14.375  19.390  11.785 -0.3326  0.0205 -0.1572
 1319PEP     CB49074  13.952  19.430  11.711  0.2333  0.2098  0.0945
 1319PEP     CB49075  13.583  19.581  11.973 -0.3263 -0.4923  0.2851
 1319PEP     CB49076  13.474  19.882  12.312  0.1516  0.3225 -0.3460
 1319PEP     CB49077  13.041  19.989  12.419  0.4866 -0.0212  0.3158
 1319PEP     CB49078  12.837  20.186  12.138  0.4042 -0.1654 -0.1844
 1319PEP     CB49079  12.600  20.354  11.868  0.1652 -0.0102  0.1074
 1319PEP     CB49080  12.301  20.175  11.624  0.0416  0.1018  0.4873
 1320PEP     CB49081  17.711   9.844   3.267  0.1229 -0.3193 -0.0899
 1320PEP     CB49082  17.465   9.949   3.663 -0.6508  0.1839 -0.2275
 1320PEP     CB49083  17.219   9.927   3.965 -0.1096 -0.0316 -0.0920
 1320PEP     CB49084  16.832   9.753   3.970  0.1951 -0.1735  0.0788
 1320PEP     CB49085  16.567   9.714   3.635  0.3210 -0.0069 -0.1663
 1320PEP     CB49086  16.512  10.118   3.275  0.1352  0.2145  0.3529
 1320PEP     CB49087  16.546  10.508   3.291  0.0641 -0.4739 -0.2609
 1320PEP     CB49088  16.724  10.828   3.458 -0.0794 -0.0482 -0.0026
 1320PEP     CB49089  17.030  11.055   3.825 -0.4572  0.2544 -0.0464
 1320PEP     CB49090  17.207  11.226   4.095 -0.2035  0.0705  0.0881
 1320PEP     CB49091  17.198  11.608   4.405  0.0951  0.1136  0.0821
 1320PEP     CB49092  16.870  11.688   4.713  0.3247 -0.1178  0.2216
 1320PEP     CB49093  16.580  11.364   4.789  0.0446 -0.4690  0.1404
 1320PEP     CB49094  16.437  10.921   4.554  0.1726 -0.2222  0.3025
 1320PEP     CB49095  16.628  10.492   4.429 -0.3058 -0.3136  0.1495
 1320PEP     CB49096  16.433  10.028   4.217 -0.0401 -0.4378  0.1692
 1320PEP     CB49097  16.087   9.820   4.170  0.3056  0.2165  0.1088
 1320PEP     CB49098  15.756   9.955   4.292 -0.1592 -0.0622  0.1965
 1320PEP     CB49099  15.635  10.250   4.622  0.4253 -0.1894  0.3291
 1320PEP     CB49100  15.256  10.346   4.899  0.1213  0.3771 -0.1140
 1320PEP     CB49101  15.063  10.321   5.347  0.2260 -0.1498  0.0453
 1320PEP     CB49102  14.941  10.163   5.623 -0.1117 -0.0284 -0.0315
 1320PEP     CB49103  14.647   9.888   5.854 -0.2950  0.1452  0.1562
 1320PEP     CB49104  14.257   9.632   5.772  0.1253  0.4736 -0.1302
 1320PEP     CB49105  14.181   9.294   5.583 -0.1828 -0.3785  0.1777
 1320PEP     CB49106  14.356   9.143   5.278 -0.0906 -0.2913 -0.3270
 1320PEP     CB49107  14.352   9.103   4.827 -0.0881  0.0912 -0.0165
 1320PEP     CB49108  14.521   9.348   4.530 -0.3808  0.1554 -0.0422
 1320PEP     CB49109  14.815   9.354   4.129 -0.1269 -0.1057  0.1090
 1320PEP     CB49110  14.983   8.901   3.990 -0.3668 -0.1669  0.0642
 1320PEP     CB49111  15.055   8.489   4.149 -0.1524 -0.0384 -0.2268
 1320PEP     CB49112  15.149   8.046   4.203  0.2031  0.2832  0.0263
 1320PEP     CB49113  15.137   7.707   3.799  0.1218 -0.0499 -0.0806
 1320PEP     CB49114  14.906   7.769   3.367 -0.2330 -0.3655  0.3360
 1320PEP     CB49115  14.592   7.821   3.134 -0.1456 -0.2185 -0.2092
 1320PEP     CB49116  14.267   7.863   2.885 -0.2548  0.3425  0.0656
 1320PEP     CB49117  14.006   7.546   2.591 -0.3726 -0.1170  0.1177
 1320PEP     CB49118  13.857   7.194   2.343 -0.1721  0.2975 -0.0260
 1320PEP     CB49119  13.587   6.806   2.446  0.0989  0.3157  0.0269
 1320PEP     CB49120  13.579   6.524   2.712  0.2989  0.4647  0.3698
 1321PEP     CB49121   7.666  11.584  17.142  0.3819 -0.2216  0.2856
 1321PEP     CB49122   7.831  11.869  16.825  0.3527 -0.0521 -0.0985
 1321PEP     CB49123   7.767  12.252  16.578  0.3235  0.3339  0.1219
 1321PEP     CB49124   7.983  12.627  16.562 -0.2859 -0.1561 -0.1552
 1321PEP     CB49125   8.080  12.946  16.881 -0.1495 -0.3136 -0.1425
 1321PEP     CB49126   7.824  13.271  17.013 -0.0713 -0.0430  0.2313
 1321PEP     CB49127   7.423  13.362  16.912  0.2691  0.0749  0.3337
 1321PEP     CB49128   7.057  13.471  16.689 -0.0696 -0.0843  0.3478
 1321PEP     CB49129   7.031  13.588  16.259  0.3408  0.2381 -0.0718
 1321PEP     CB49130   7.077  13.276  15.918  0.2148  0.0221  0.0866
 1321PEP     CB49131   6.932  12.766  15.875  0.0077 -0.0697  0.0786
 1321PEP     CB49132   6.518  12.700  15.780  0.2173 -0.3043 -0.1406
 1321PEP     CB49133   6.165  12.976  15.614  0.1308  0.6935 -0.0036
 1321PEP     CB49134   6.199  13.397  15.453 -0.1357 -0.1859  0.2900
 1321PEP     CB49135   6.470  13.753  15.263  0.0544 -0.5302 -0.4358
 1321PEP     CB49136   6.713  14.113  15.148 -0.0393 -0.3903  0.0356
 1321PEP     CB49137   6.938  14.449  15.283  0.4739  0.0154 -0.2777
 1321PEP     CB49138   7.257  14.753  15.319 -0.0241  0.3224 -0.2242
 1321PEP     CB49139   7.501  14.880  15.718 -0.1845 -0.1052  0.0594
 1321PEP     CB49140   7.848  14.993  15.988  0.0147 -0.3591 -0.2474
 1321PEP     CB49141   7.976  15.072  16.435 -0.0299 -0.3190  0.0567
 1321PEP     CB49142   7.906  14.948  16.960  0.3831  0.1015  0.0192
 1321PEP     CB49143   7.532  14.907  17.328  0.3270  0.2063  0.1268
 1321PEP     CB49144   7.204  15.199  17.398 -0.0327 -0.0754  0.1399
 1321PEP     CB49145   7.023  15.592  17.288 -0.0546  0.0957  0.1300
 1321PEP     CB49146   6.905  15.901  16.971 -0.0463  0.3279 -0.4732
 1321PEP     CB49147   6.605  16.350  16.901 -0.1858 -0.2669 -0.0902
 1321PEP     CB49148   6.240  16.532  16.975 -0.0688  0.0926  0.2861
 1321PEP     CB49149   6.104  16.681  17.349 -0.1065  0.0881  0.0972
 1321PEP     CB49150   6.165  16.780  17.828  0.0011 -0.1514  0.0979
 1321PEP     CB49151   6.169  17.038  18.180  0.1328  0.3383  0.3197
 1321PEP     CB49152   6.329  17.096  18.531  0.0257  0.0505  0.1508
 1321PEP     CB49153   6.580  16.929  18.872  0.2462  0.1607 -0.0331
 1321PEP     CB49154   6.886  16.894  19.229 -0.2868  0.1443  0.1405
 1321PEP     CB49155   7.202  17.200  19.387 -0.1354 -0.2492  0.3476
 1321PEP     CB49156   7.482  17.470  19.463 -0.2455  0.2567 -0.0260
 1321PEP     CB49157   7.746  17.752  19.613  0.1856  0.0454 -0.2895
 1321PEP     CB49158   8.249  17.833  19.602 -0.1994 -0.5014 -0.1960
 1321PEP     CB49159   8.611  17.928  19.879 -0.0817  0.3320  0.0881
 1321PEP     CB49160   8.701  18.119  20.205 -0.2357  0.0059  0.1319
 1322PEP     CB49161  20.093   0.996   5.435 -0.0411  0.1087 -0.3981
 1322PEP     CB49162  20.207   1.487   5.447  0.0850  0.3977  0.3477
 1322PEP     CB49163  20.524   1.796   5.326  0.3617 -0.3869  0.0899
 1322PEP     CB49164  20.811   1.819   4.938 -0.0337 -0.1385  0.2491
 1322PEP     CB49165  20.990   1.611   4.665 -0.0597  0.2405 -0.1095
 1322PEP     CB49166  21.377   1.282   4.621 -0.0025  0.2256  0.3862
 1322PEP     CB49167  21.763   1.376   4.786  0.1759 -0.4158  0.3472
 1322PEP     CB49168  22.148   1.523   4.775 -0.0325 -0.2319  0.1211
 1322PEP     CB49169  22.340   1.886   4.993 -0.0133  0.1450 -0.5945
 1322PEP     CB49170  22.248   2.003   5.372  0.0168 -0.0457 -0.0356
 1322PEP     CB49171  21.993   1.786   5.716 -0.0412  0.2295 -0.2542
 1322PEP     CB49172  21.592   1.890   5.839 -0.4672  0.0763  0.0145
 1322PEP     CB49173  21.480   2.205   5.585  0.1377 -0.0018 -0.1500
 1322PEP     CB49174  21.856   2.303   5.330  0.0123 -0.1062  0.1763
 1322PEP     CB49175  22.166   2.551   5.479 -0.0517  0.0432 -0.0643
 1322PEP     CB49176  22.236   2.953   5.517  0.0347 -0.2816  0.5031
 1322PEP     CB49177  22.005   3.296   5.490  0.2911 -0.0633  0.1494
 1322PEP     CB49178  21.612   3.326   5.588 -0.1307 -0.2485  0.2131
 1322PEP     CB49179  21.224   3.248   5.535 -0.0714  0.0519 -0.0312
 1322PEP     CB49180  20.791   3.210   5.334  0.3565 -0.1704 -0.0087
 1322PEP     CB49181  20.400   3.431   5.090  0.1511 -0.0331  0.1752
 1322PEP     CB49182  19.946   3.534   5.041 -0.0211 -0.2706 -0.1371
 1322PEP     CB49183  19.556   3.543   5.109 -0.2040 -0.0746  0.3835
 1322PEP     CB49184  19.234   3.324   5.314 -0.0534  0.0981  0.1064
 1322PEP     CB49185  19.197   3.237   5.745  0.0098  0.4845  0.1153
 1322PEP     CB49186  19.427   2.894   5.930  0.1360 -0.0775 -0.1083
 1322PEP     CB49187  19.409   2.538   6.156 -0.1771 -0.2762 -0.1163
 1322PEP     CB49188  19.268   2.140   6.163  0.0770 -0.1645 -0.3470
 1322PEP     CB49189  19.222   1.757   6.087 -0.0481 -0.0871  0.4302
 1322PEP     CB49190  19.253   1.405   6.198  0.3751  0.0451  0.0869
 1322PEP     CB49191  19.018   1.048   6.287 -0.0734 -0.6005  0.2816
 1322PEP     CB49192  18.853   0.640   6.271 -0.0441 -0.0551 -0.0671
 1322PEP     CB49193  18.782   0.164   6.386 -0.3377  0.0746  0.0879
 1322PEP     CB49194  18.487  -0.017   6.574  0.1159  0.0722 -0.2065
 1322PEP     CB49195  18.146   0.214   6.835  0.4401 -0.0220  0.0483
 1322PEP     CB49196  18.004   0.343   7.205  0.1316  0.2091  0.0405
 1322PEP     CB49197  17.747   0.643   7.386 -0.2646  0.1677 -0.0673
 1322PEP     CB49198  17.682   1.007   7.712 -0.1232 -0.2050  0.0565
 1322PEP     CB49199  17.829   1.398   7.861  0.1897 -0.2445 -0.0949
 1322PEP     CB49200  17.981   1.768   7.700  0.0552  0.1229 -0.2046
 1323PEP     CB49201  20.667  21.517  16.633 -0.2327  0.2927 -0.3304
 1323PEP     CB49202  20.583  21.223  16.947  0.3849 -0.5028 -0.0300
 1323PEP     CB49203  20.797  20.874  17.108 -0.5039  0.0894 -0.0458
 1323PEP     CB49204  21.069  20.470  17.047 -0.0253 -0.0449 -0.1809
 1323PEP     CB49205  21.109  20.041  16.940 -0.3425  0.1714 -0.1059
 1323PEP     CB49206  21.125  19.600  16.882 -0.3506  0.1682  0.2002
 1323PEP     CB49207  21.176  19.178  16.871 -0.1369  0.2473  0.3283
 1323PEP     CB49208  21.428  18.848  16.976  0.2931 -0.0845  0.1743
 1323PEP     CB49209  21.701  18.669  16.643 -0.4321  0.2498 -0.2106
 1323PEP     CB49210  21.758  18.708  16.277 -0.1353  0.3083  0.1689
 1323PEP     CB49211  21.777  18.891  15.905 -0.0611  0.1324  0.1143
 1323PEP     CB49212  21.901  18.679  15.490  0.1496  0.0726 -0.2840
 1323PEP     CB49213  22.064  18.529  15.128 -0.1010  0.2779  0.1379
 1323PEP     CB49214  22.489  18.474  14.998 -0.4045 -0.2367 -0.0140
 1323PEP     CB49215  22.875  18.754  15.206 -0.3913  0.1278 -0.1806
 1323PEP     CB49216  22.747  18.972  15.627 -0.0600 -0.1614  0.0840
 1323PEP     CB49217  22.412  18.922  15.824  0.1568 -0.1285 -0.2464
 1323PEP     CB49218  22.094  18.519  15.887  0.1371  0.3679 -0.1260
 1323PEP     CB49219  21.673  18.303  15.960  0.3099  0.2330  0.1092
 1323PEP     CB49220  21.465  18.110  16.280 -0.2180  0.1776 -0.0055
 1323PEP     CB49221  21.124  18.401  16.493 -0.0905  0.2089 -0.0595
 1323PEP     CB49222  20.881  18.641  16.794 -0.2913 -0.0715 -0.0476
 1323PEP     CB49223  20.874  18.875  17.152 -0.2781  0.4622  0.2651
 1323PEP     CB49224  21.004  19.129  17.536  0.3465  0.1156 -0.0339
 1323PEP     CB49225  20.801  19.481  17.785 -0.0498 -0.0347 -0.4127
 1323PEP     CB49226  20.414  19.459  18.013  0.1472 -0.2189  0.1094
 1323PEP     CB49227  20.325  19.111  18.166  0.0648 -0.2549  0.0871
 1323PEP     CB49228  20.312  18.703  18.499  0.0153  0.0803 -0.3638
 1323PEP     CB49229  20.402  18.611  18.905  0.0102 -0.1156 -0.3333
 1323PEP     CB49230  20.173  18.623  19.381 -0.0246 -0.1387  0.4509
 1323PEP     CB49231  20.153  18.772  19.762 -0.1928 -0.0539 -0.1467
 1323PEP     CB49232  20.234  18.944  20.172 -0.0710  0.3966  0.2252
 1323PEP     CB49233  19.826  18.970  20.495 -0.1577  0.0257 -0.0282
 1323PEP     CB49234  19.705  18.685  20.836 -0.1606  0.0641  0.0064
 1323PEP     CB49235  19.570  18.553  21.160  0.3306 -0.2228 -0.2322
 1323PEP     CB49236  19.272  18.778  21.415  0.0151  0.2901  0.2492
 1323PEP     CB49237  19.145  19.183  21.287 -0.2347 -0.2109 -0.0861
 1323PEP     CB49238  19.134  19.660  21.266  0.3484 -0.2004  0.0695
 1323PEP     CB49239  19.142  20.045  21.427  0.6120 -0.0970 -0.1271
 1323PEP     CB49240  19.401  20.485  21.370  0.1651  0.2408 -0.1560
 1324PEP     CB49241   7.534   3.803   9.719 -0.0386 -0.0297  0.1963
 1324PEP     CB49242   7.874   3.911   9.922  0.3246 -0.2944 -0.0207
 1324PEP     CB49243   8.240   3.783   9.924  0.1212  0.2796  0.2954
 1324PEP     CB49244   8.329   3.331   9.986 -0.2089 -0.1020  0.0387
 1324PEP     CB49245   7.975   3.101  10.036 -0.1114  0.1943  0.1538
 1324PEP     CB49246   7.735   3.014  10.442  0.2420  0.1265 -0.0775
 1324PEP     CB49247   7.595   3.497  10.605 -0.0663 -0.0434 -0.0411
 1324PEP     CB49248   7.536   3.800  10.360  0.0005  0.4933 -0.3710
 1324PEP     CB49249   7.551   4.202  10.200  0.0487  0.1790 -0.0063
 1324PEP     CB49250   7.838   4.452   9.964 -0.0569 -0.2650  0.5626
 1324PEP     CB49251   8.191   4.228   9.599  0.1853 -0.1881 -0.0270
 1324PEP     CB49252   8.247   4.020   9.251 -0.1247  0.3679  0.5895
 1324PEP     CB49253   8.305   3.922   8.820 -0.0094  0.0138  0.1913
 1324PEP     CB49254   8.354   3.584   8.501  0.0254  0.2920  0.0508
 1324PEP     CB49255   8.429   3.399   8.064  0.0838 -0.2658  0.2806
 1324PEP     CB49256   8.715   3.167   7.917 -0.1724 -0.0144 -0.2752
 1324PEP     CB49257   9.076   2.989   7.998 -0.0184 -0.2112 -0.0108
 1324PEP     CB49258   9.252   2.637   8.009 -0.2170  0.0603  0.2906
 1324PEP     CB49259   9.196   2.253   8.173 -0.2613 -0.0753 -0.4440
 1324PEP     CB49260   9.122   1.805   8.040 -0.2174  0.0975 -0.2681
 1324PEP     CB49261   8.783   1.512   7.990 -0.2175 -0.2753  0.0079
 1324PEP     CB49262   8.308   1.487   8.033 -0.0963  0.3827  0.0940
 1324PEP     CB49263   7.911   1.489   8.056 -0.1122 -0.0112  0.0143
 1324PEP     CB49264   7.653   1.907   7.961 -0.1448  0.1899  0.1478
 1324PEP     CB49265   7.355   2.072   7.669 -0.2485  0.0530  0.2309
 1324PEP     CB49266   7.457   2.190   7.165 -0.4468  0.0505 -0.2134
 1324PEP     CB49267   7.646   2.001   6.761 -0.2395 -0.1130 -0.1378
 1324PEP     CB49268   7.712   1.957   6.294  0.4233 -0.2343  0.2251
 1324PEP     CB49269   7.987   2.002   5.968  0.4337  0.0070 -0.0967
 1324PEP     CB49270   8.102   1.983   5.572  0.0668 -0.1751 -0.1742
 1324PEP     CB49271   8.049   1.735   5.252  0.0186 -0.3231 -0.0176
 1324PEP     CB49272   7.915   1.813   4.828 -0.2832  0.0385  0.2239
 1324PEP     CB49273   8.209   2.035   4.606 -0.2665  0.2564 -0.0701
 1324PEP     CB49274   8.634   2.194   4.755 -0.2647  0.1885 -0.2869
 1324PEP     CB49275   8.919   1.997   4.937  0.0549 -0.0848  0.3572
 1324PEP     CB49276   8.917   1.564   4.936  0.1532 -0.2577  0.1720
 1324PEP     CB49277   9.006   1.164   5.100  0.3438 -0.1513 -0.2511
 1324PEP     CB49278   8.942   0.620   5.159  0.2307 -0.2057  0.2739
 1324PEP     CB49279   8.435   0.372   5.118  0.2644  0.0040 -0.3040
 1324PEP     CB49280   8.009   0.511   5.026  0.2537 -0.1666 -0.2231
 1325PEP     CB49281  18.197   1.010   6.176  0.1101  0.3029  0.3131
 1325PEP     CB49282  18.315   1.083   5.786 -0.0752  0.0764 -0.1636
 1325PEP     CB49283  18.286   1.489   5.478  0.2356  0.3288 -0.1265
 1325PEP     CB49284  18.223   1.956   5.648  0.1753  0.0125  0.1993
 1325PEP     CB49285  18.412   2.270   5.867  0.3609  0.2292  0.1528
 1325PEP     CB49286  18.761   2.119   6.148 -0.1652  0.0654  0.0332
 1325PEP     CB49287  18.817   1.710   6.334 -0.2238 -0.1507  0.2532
 1325PEP     CB49288  18.588   1.322   6.436 -0.1081  0.2114  0.1770
 1325PEP     CB49289  18.539   0.924   6.611  0.0059 -0.2353  0.3829
 1325PEP     CB49290  18.578   0.557   6.767 -0.0077 -0.2098 -0.1886
 1325PEP     CB49291  18.658   0.178   7.044 -0.0948  0.1674  0.0652
 1325PEP     CB49292  18.552   0.163   7.459 -0.3031 -0.2728 -0.3473
 1325PEP     CB49293  18.704   0.303   7.834  0.3116 -0.1051  0.3111
 1325PEP     CB49294  18.676   0.437   8.228  0.0298 -0.1373 -0.1515
 1325PEP     CB49295  18.388   0.340   8.451 -0.0295  0.3462 -0.0525
 1325PEP     CB49296  18.185  -0.027   8.434  0.3616 -0.1375 -0.2051
 1325PEP     CB49297  17.838  -0.267   8.274  0.1709 -0.1909 -0.5814
 1325PEP     CB49298  17.600  -0.483   8.388 -0.3509 -0.1821  0.2634
 1325PEP     CB49299  17.318  -0.774   8.416  0.0037  0.0441 -0.1054
 1325PEP     CB49300  17.059  -0.839   8.779  0.2227  0.0998  0.2074
 1325PEP     CB49301  16.937  -0.893   9.245  0.2042  0.2740  0.2269
 1325PEP     CB49302  16.796  -0.877   9.674  0.1787 -0.1437  0.3357
 1325PEP     CB49303  16.996  -1.107  10.007 -0.0278 -0.0884  0.1156
 1325PEP     CB49304  17.367  -1.452   9.958 -0.2583 -0.0627 -0.2778
 1325PEP     CB49305  17.650  -1.691   9.639  0.1193 -0.0140  0.0816
 1325PEP     CB49306  17.911  -1.534   9.369  0.1657  0.4132 -0.2143
 1325PEP     CB49307  18.218  -1.404   9.240 -0.3215  0.2309 -0.1127
 1325PEP     CB49308  18.626  -1.318   9.374  0.1071 -0.1253 -0.1508
 1325PEP     CB49309  19.050  -1.183   9.130  0.0755  0.0065 -0.1219
 1325PEP     CB49310  19.244  -1.033   8.814 -0.0453  0.1678  0.3065
 1325PEP     CB49311  19.523  -0.961   8.510 -0.0464  0.1281  0.3467
 1325PEP     CB49312  19.791  -0.523   8.371  0.0670 -0.2301 -0.1365
 1325PEP     CB49313  19.735  -0.063   8.367 -0.0357  0.1061  0.0190
 1325PEP     CB49314  19.463   0.124   8.606 -0.1701  0.2890 -0.0163
 1325PEP     CB49315  19.270   0.055   9.014 -0.4972 -0.3812  0.1009
 1325PEP     CB49316  19.438  -0.168   9.423  0.2378 -0.1479  0.1039
 1325PEP     CB49317  19.846  -0.179   9.624  0.0743 -0.3216 -0.0938
 1325PEP     CB49318  20.174   0.167   9.555  0.1552 -0.1724  0.2892
 1325PEP     CB49319  20.363   0.586   9.636  0.0229 -0.2354  0.2337
 1325PEP     CB49320  20.254   0.977   9.841 -0.1321 -0.0382 -0.1475
 1326PEP     CB49321   9.552   7.460   4.311  0.4415 -0.0807  0.3353
 1326PEP     CB49322   9.573   7.828   4.508  0.1353  0.0453 -0.1594
 1326PEP     CB49323   9.666   8.239   4.695  0.1152  0.1842 -0.0976
 1326PEP     CB49324   9.666   8.532   5.150  0.1723 -0.1118  0.0968
 1326PEP     CB49325   9.387   8.504   5.579 -0.0926  0.4286  0.2248
 1326PEP     CB49326   9.464   8.306   5.941  0.0429 -0.1974 -0.0523
 1326PEP     CB49327   9.747   7.980   6.097  0.0151 -0.2039 -0.1158
 1326PEP     CB49328  10.233   8.011   6.048 -0.1115  0.0830 -0.0951
 1326PEP     CB49329  10.625   8.144   5.816 -0.1861 -0.1992  0.1492
 1326PEP     CB49330  10.695   8.442   5.437  0.1291 -0.0594  0.0252
 1326PEP     CB49331  10.303   8.634   5.316  0.1405 -0.1458 -0.0312
 1326PEP     CB49332  10.015   8.920   5.065  0.1679 -0.2323  0.1245
 1326PEP     CB49333   9.613   8.939   4.841 -0.3023 -0.0733  0.0624
 1326PEP     CB49334   9.197   8.862   5.012  0.1078 -0.2009  0.1120
 1326PEP     CB49335   8.852   8.988   5.208  0.1109 -0.1446  0.1415
 1326PEP     CB49336   8.453   9.319   5.378  0.0219 -0.0339  0.0738
 1326PEP     CB49337   8.057   9.415   5.593  0.1767 -0.2527 -0.2781
 1326PEP     CB49338   7.574   9.350   5.664 -0.1938  0.0273  0.0323
 1326PEP     CB49339   7.173   9.165   5.619 -0.1400  0.2016 -0.2755
 1326PEP     CB49340   6.670   9.138   5.565 -0.0931  0.1997 -0.2561
 1326PEP     CB49341   6.395   9.321   5.356  0.1410  0.0276  0.0070
 1326PEP     CB49342   6.272   9.372   4.995 -0.1612  0.1041  0.0154
 1326PEP     CB49343   6.043   9.247   4.609 -0.1811 -0.1089 -0.0407
 1326PEP     CB49344   5.901   8.990   4.303  0.5021  0.3877 -0.1366
 1326PEP     CB49345   6.200   8.742   4.019  0.1887  0.4107 -0.0111
 1326PEP     CB49346   6.574   8.660   3.794 -0.1728 -0.3251 -0.4994
 1326PEP     CB49347   6.980   8.571   3.563 -0.1527 -0.3166 -0.0626
 1326PEP     CB49348   7.358   8.643   3.523 -0.3373  0.1301  0.2388
 1326PEP     CB49349   7.712   8.765   3.139 -0.1110  0.0478  0.2378
 1326PEP     CB49350   7.795   8.818   2.623 -0.0404 -0.0723 -0.1463
 1326PEP     CB49351   7.761   8.899   2.121 -0.0706 -0.3811  0.0187
 1326PEP     CB49352   7.767   9.208   1.842 -0.3214 -0.0603  0.3627
 1326PEP     CB49353   8.089   9.411   1.609 -0.1267  0.0277  0.1059
 1326PEP     CB49354   8.539   9.358   1.506 -0.1263  0.3536 -0.0219
 1326PEP     CB49355   8.941   9.395   1.254 -0.2739  0.0231  0.2347
 1326PEP     CB49356   9.184   9.552   0.901  0.1012  0.0687 -0.0322
 1326PEP     CB49357   9.458   9.320   0.622 -0.0062  0.2046 -0.1029
 1326PEP     CB49358   9.672   9.015   0.376 -0.3113 -0.1610  0.1398
 1326PEP     CB49359   9.504   8.768  -0.032  0.0410  0.0565 -0.3905
 1326PEP     CB49360   9.254   8.581  -0.325 -0.2716  0.3089  0.0514
 1327PEP     CB49361  12.713   1.128  20.951 -0.1103  0.2979  0.0885
 1327PEP     CB49362  13.069   1.191  21.187 -0.0256 -0.3203  0.1464
 1327PEP     CB49363  13.393   1.478  21.396  0.1938 -0.2257  0.1329
 1327PEP     CB49364  13.757   1.690  21.304  0.0789  0.1576 -0.1335
 1327PEP     CB49365  14.007   2.024  21.091  0.0255 -0.1998 -0.2331
 1327PEP     CB49366  14.314   2.226  20.877 -0.3912 -0.1935 -0.2077
 1327PEP     CB49367  14.651   2.427  20.921  0.0966  0.1530  0.1543
 1327PEP     CB49368  15.105   2.590  20.916  0.0267 -0.4030 -0.1426
 1327PEP     CB49369  15.336   2.837  21.211 -0.0609 -0.1095  0.1129
 1327PEP     CB49370  15.100   2.972  21.618  0.3691 -0.0261  0.0372
 1327PEP     CB49371  14.818   3.230  21.639  0.0147 -0.1883 -0.1390
 1327PEP     CB49372  14.713   3.557  21.386 -0.2912 -0.0636  0.0253
 1327PEP     CB49373  14.483   3.642  20.907 -0.0089 -0.0442  0.0502
 1327PEP     CB49374  14.400   3.871  20.530 -0.0788  0.0478 -0.1779
 1327PEP     CB49375  14.336   4.249  20.329 -0.2110  0.2602 -0.0645
 1327PEP     CB49376  14.409   4.653  20.140 -0.0890  0.0353  0.1533
 1327PEP     CB49377  14.327   5.069  20.101  0.3201  0.2121  0.0864
 1327PEP     CB49378  14.402   5.465  20.242 -0.1984 -0.0133  0.4320
 1327PEP     CB49379  14.640   5.716  20.548  0.2152 -0.0021 -0.2498
 1327PEP     CB49380  15.003   5.795  20.776 -0.3248 -0.1011  0.1513
 1327PEP     CB49381  15.441   5.698  20.947  0.0537 -0.2531 -0.2887
 1327PEP     CB49382  15.746   5.619  21.315  0.1066 -0.1459  0.2161
 1327PEP     CB49383  15.919   5.758  21.705 -0.0823 -0.2932  0.1873
 1327PEP     CB49384  16.327   5.959  21.920 -0.0071  0.1611 -0.2709
 1327PEP     CB49385  16.664   6.239  21.946 -0.2408  0.1854 -0.1695
 1327PEP     CB49386  16.546   6.651  21.735  0.0147  0.1549  0.2371
 1327PEP     CB49387  16.186   6.592  21.492  0.1715  0.2092  0.1517
 1327PEP     CB49388  16.010   6.217  21.245 -0.0046  0.1498  0.4085
 1327PEP     CB49389  15.931   5.952  20.913 -0.3277  0.4246 -0.2298
 1327PEP     CB49390  16.128   5.652  20.606  0.1782 -0.2712  0.1140
 1327PEP     CB49391  16.289   5.558  20.270  0.2060  0.5736  0.1044
 1327PEP     CB49392  16.385   5.652  19.883 -0.2198 -0.3648  0.1201
 1327PEP     CB49393  16.447   5.663  19.467 -0.0145  0.2188  0.1999
 1327PEP     CB49394  16.399   5.835  19.079  0.3720 -0.2002  0.3800
 1327PEP     CB49395  16.231   6.146  18.869  0.0314 -0.3102  0.3440
 1327PEP     CB49396  15.875   6.444  18.804  0.2068 -0.2070 -0.2510
 1327PEP     CB49397  15.868   6.908  18.614  0.0708  0.2401  0.2308
 1327PEP     CB49398  15.885   7.372  18.610  0.4039 -0.3808  0.0656
 1327PEP     CB49399  15.745   7.707  18.425  0.0307  0.0760  0.5006
 1327PEP     CB49400  15.491   7.860  18.099 -0.0303 -0.3159  0.1784
 1328PEP     CB49401  15.249  10.760  19.330 -0.2266  0.5174 -0.0323
 1328PEP     CB49402  15.391  10.435  18.991 -0.0835 -0.2752  0.0492
 1328PEP     CB49403  15.456  10.035  19.088 -0.5162  0.0040 -0.0854
 1328PEP     CB49404  15.579  10.010  19.507  0.0340 -0.2345  0.1601
 1328PEP     CB49405  15.755  10.364  19.735  0.4108 -0.2341  0.0939
 1328PEP     CB49406  15.593  10.732  19.654  0.2266 -0.0670 -0.4314
 1328PEP     CB49407  15.196  10.795  19.956 -0.0642  0.2060 -0.1160
 1328PEP     CB49408  15.201  10.880  20.289  0.2825  0.1132 -0.0056
 1328PEP     CB49409  15.325  10.742  20.711  0.0078  0.3318 -0.2376
 1328PEP     CB49410  15.323  10.468  20.992 -0.1224  0.2923 -0.0148
 1328PEP     CB49411  15.424  10.257  21.403  0.1683 -0.1157 -0.5759
 1328PEP     CB49412  15.569  10.412  21.766 -0.3739 -0.1891  0.2776
 1328PEP     CB49413  15.467  10.503  22.138  0.1105 -0.0527 -0.0874
 1328PEP     CB49414  15.125  10.305  22.362 -0.2364  0.4407 -0.2246
 1328PEP     CB49415  14.987   9.802  22.475  0.2865 -0.1719  0.1341
 1328PEP     CB49416  14.716   9.447  22.358  0.0376  0.1126  0.1114
 1328PEP     CB49417  14.420   9.197  22.282  0.1998 -0.0339  0.3555
 1328PEP     CB49418  14.167   8.861  22.549  0.1468  0.0016  0.2264
 1328PEP     CB49419  13.781   8.768  22.707  0.3321 -0.2878 -0.0621
 1328PEP     CB49420  13.352   8.893  22.626 -0.2135  0.0453  0.1031
 1328PEP     CB49421  12.977   9.115  22.739 -0.0535  0.1436  0.0452
 1328PEP     CB49422  12.594   9.295  22.773 -0.2839 -0.1653  0.1951
 1328PEP     CB49423  12.169   9.343  22.572 -0.2048  0.3382  0.2856
 1328PEP     CB49424  11.711   9.388  22.590 -0.1615 -0.4173 -0.3954
 1328PEP     CB49425  11.287   9.316  22.817 -0.3546  0.0625  0.2296
 1328PEP     CB49426  10.925   9.345  22.694  0.2502 -0.2233  0.0260
 1328PEP     CB49427  10.550   9.449  22.761  0.2750 -0.0009  0.1417
 1328PEP     CB49428  10.291   9.615  23.060 -0.0169  0.2197  0.0211
 1328PEP     CB49429  10.396   9.777  23.555 -0.1955 -0.2160 -0.2266
 1328PEP     CB49430  10.126   9.969  23.940 -0.0837 -0.4473 -0.3907
 1328PEP     CB49431  10.023  10.328  23.988 -0.1897 -0.1286  0.2208
 1328PEP     CB49432  10.148  10.654  23.744 -0.0339 -0.1411  0.1158
 1328PEP     CB49433  10.081  10.979  23.416  0.1010 -0.2080 -0.0087
 1328PEP     CB49434  10.329  11.248  23.045 -0.1874 -0.1632 -0.0641
 1328PEP     CB49435  10.681  11.356  22.823 -0.1287  0.1786  0.1354
 1328PEP     CB49436  10.927  11.557  22.656  0.1679 -0.3488  0.1179
 1328PEP     CB49437  10.855  12.013  22.615  0.1959 -0.1184  0.1675
 1328PEP     CB49438  11.022  12.380  22.657  0.5359  0.0811 -0.1381
 1328PEP     CB49439  11.258  12.498  22.984 -0.0781  0.2094  0.1078
 1328PEP     CB49440  11.575  12.775  23.200 -0.0850 -0.2288  0.3133
 1329PEP     CB49441  10.258  18.339  10.567  0.4405  0.2040 -0.1308
 1329PEP     CB49442  10.661  18.268  10.404 -0.0744  0.0552 -0.3019
 1329PEP     CB49443  10.941  18.006  10.625 -0.4015 -0.1660  0.1971
 1329PEP     CB49444  10.691  17.632  10.932 -0.0913  0.2120  0.1905
 1329PEP     CB49445  10.584  17.507  11.314 -0.1894  0.1361  0.0890
 1329PEP     CB49446  10.901  17.274  11.585 -0.2457  0.1278  0.0550
 1329PEP     CB49447  11.312  17.276  11.549  0.1443 -0.2217  0.0159
 1329PEP     CB49448  11.495  17.117  11.081 -0.1690 -0.3994 -0.2730
 1329PEP     CB49449  11.205  17.108  10.676  0.2178  0.3117  0.0593
 1329PEP     CB49450  11.034  17.452  10.517  0.1958  0.0086  0.2343
 1329PEP     CB49451  11.102  17.749  10.275 -0.0982 -0.1451  0.3260
 1329PEP     CB49452  11.145  18.218  10.123  0.2378  0.1612  0.2449
 1329PEP     CB49453  11.047  18.672   9.910  0.0667 -0.0432  0.3461
 1329PEP     CB49454  11.194  18.928   9.669  0.5512  0.1623  0.1049
 1329PEP     CB49455  11.373  19.311   9.428 -0.1605 -0.0421 -0.1195
 1329PEP     CB49456  11.640  19.656   9.559  0.0941 -0.2429 -0.4075
 1329PEP     CB49457  11.890  19.392   9.980 -0.4607  0.4309  0.1575
 1329PEP     CB49458  12.107  19.027  10.003  0.2300  0.1480  0.0149
 1329PEP     CB49459  12.527  19.023  10.104 -0.1501 -0.1711  0.1034
 1329PEP     CB49460  12.786  19.398  10.286 -0.4511 -0.1221  0.0618
 1329PEP     CB49461  12.650  19.820  10.419  0.1907 -0.0325  0.0789
 1329PEP     CB49462  12.334  20.040  10.328 -0.3307  0.1298  0.0548
 1329PEP     CB49463  11.924  20.234  10.407  0.2977  0.0457  0.2303
 1329PEP     CB49464  11.524  20.281  10.373  0.5956  0.0926  0.0893
 1329PEP     CB49465  11.130  20.128  10.274  0.3548  0.0537 -0.0177
 1329PEP     CB49466  10.719  19.897  10.112  0.1230  0.1785 -0.0081
 1329PEP     CB49467  10.450  19.603  10.047  0.0095  0.3778  0.2125
 1329PEP     CB49468  10.368  19.143  10.030  0.1517  0.2290  0.2292
 1329PEP     CB49469  10.596  18.842   9.729 -0.2677  0.0142  0.3122
 1329PEP     CB49470  10.758  18.367   9.768 -0.1922  0.0092  0.0185
 1329PEP     CB49471  10.598  17.965   9.891 -0.1357  0.0580  0.0582
 1329PEP     CB49472  10.523  17.724  10.287 -0.1506 -0.1280  0.1450
 1329PEP     CB49473  10.253  17.764  10.596 -0.0059 -0.1723 -0.5303
 1329PEP     CB49474  10.346  18.018  10.937  0.2482  0.3321  0.4883
 1329PEP     CB49475  10.674  18.239  11.087 -0.0001 -0.0124 -0.3072
 1329PEP     CB49476  11.026  18.520  10.986 -0.2798  0.0489  0.0916
 1329PEP     CB49477  11.484  18.673  10.995  0.0114 -0.1019 -0.2268
 1329PEP     CB49478  11.868  18.463  10.828  0.2618  0.0033  0.1095
 1329PEP     CB49479  12.252  18.242  10.818 -0.0401  0.4512  0.2455
 1329PEP     CB49480  12.768  18.168  10.768 -0.1549  0.3480  0.0436
 1330PEP     CB49481   9.346   6.102   2.984  0.0868  0.3788 -0.0841
 1330PEP     CB49482   9.077   5.950   3.331  0.2183 -0.0071 -0.0354
 1330PEP     CB49483   8.901   6.206   3.534  0.4568  0.0904 -0.0911
 1330PEP     CB49484   9.106   6.434   3.781 -0.6132  0.2336  0.0077
 1330PEP     CB49485   9.603   6.569   3.806 -0.1714  0.0957 -0.3140
 1330PEP     CB49486   9.959   6.770   3.624 -0.2069 -0.0472 -0.1380
 1330PEP     CB49487   9.822   7.014   3.205  0.1594  0.0168 -0.0086
 1330PEP     CB49488   9.455   7.028   3.112  0.3858 -0.2202 -0.4166
 1330PEP     CB49489   9.066   7.145   3.417 -0.2418 -0.0270 -0.0934
 1330PEP     CB49490   8.720   7.123   3.563  0.0298  0.1086 -0.1177
 1330PEP     CB49491   8.367   7.272   3.607 -0.2626  0.0737  0.0833
 1330PEP     CB49492   8.153   7.324   3.156 -0.0482  0.2942 -0.0331
 1330PEP     CB49493   8.337   7.446   2.748  0.3529 -0.1201  0.2826
 1330PEP     CB49494   8.695   7.576   2.381 -0.2702  0.0425  0.1460
 1330PEP     CB49495   9.019   7.412   2.088  0.1145  0.5045 -0.0887
 1330PEP     CB49496   9.064   7.414   1.694  0.0359  0.1130 -0.3483
 1330PEP     CB49497   8.999   7.672   1.413  0.3540  0.4085 -0.1739
 1330PEP     CB49498   8.522   7.869   1.421 -0.1951 -0.2321  0.1982
 1330PEP     CB49499   8.262   8.172   1.698 -0.1558  0.4168 -0.0804
 1330PEP     CB49500   8.549   8.384   2.011 -0.1485 -0.0869 -0.2018
 1330PEP     CB49501   8.869   8.704   2.253  0.2416  0.0975  0.4398
 1330PEP     CB49502   9.130   9.089   2.473  0.2620  0.2276  0.0921
 1330PEP     CB49503   9.305   9.456   2.297  0.2898 -0.1460 -0.0836
 1330PEP     CB49504   9.583   9.496   1.940  0.1892  0.1421  0.1113
 1330PEP     CB49505   9.796   9.153   1.775 -0.0774  0.0971  0.1169
 1330PEP     CB49506   9.900   8.740   1.925 -0.2246  0.5007  0.1363
 1330PEP     CB49507   9.860   8.426   2.332 -0.2745 -0.4630  0.1703
 1330PEP     CB49508   9.565   8.307   2.676  0.1136 -0.1894  0.2691
 1330PEP     CB49509   9.164   8.185   2.770  0.0083  0.2355  0.3284
 1330PEP     CB49510   8.944   7.791   2.906  0.1481 -0.2736 -0.2520
 1330PEP     CB49511   8.959   7.388   2.724 -0.0581  0.1379 -0.1126
 1330PEP     CB49512   9.400   7.209   2.613  0.1572  0.2976  0.2323
 1330PEP     CB49513   9.705   7.336   2.857 -0.2673  0.3192 -0.2270
 1330PEP     CB49514   9.611   7.515   3.242 -0.1389  0.4272  0.1604
 1330PEP     CB49515   9.140   7.677   3.398 -0.2332 -0.0919  0.2547
 1330PEP     CB49516   8.857   7.627   3.647  0.0079 -0.5826 -0.3337
 1330PEP     CB49517   8.525   7.676   3.937  0.3142 -0.2046  0.0275
 1330PEP     CB49518   8.207   7.505   4.172  0.0719  0.0005 -0.0343
 1330PEP     CB49519   7.804   7.194   4.077 -0.4065  0.2793 -0.2963
 1330PEP     CB49520   7.524   7.024   3.821  0.1648 -0.1101 -0.0552
 1331PEP     CB49521   2.896  19.898   6.805 -0.2139  0.1181  0.1413
 1331PEP     CB49522   2.901  19.643   7.132  0.0220  0.2944 -0.0192
 1331PEP     CB49523   2.754  19.471   7.572 -0.0900  0.1968 -0.0552
 1331PEP     CB49524   2.685  19.110   7.858  0.0750  0.1316 -0.1053
 1331PEP     CB49525   2.409  18.678   7.814  0.1916 -0.0007  0.3262
 1331PEP     CB49526   2.356  18.459   7.402  0.1921 -0.0888  0.4557
 1331PEP     CB49527   2.496  18.536   6.974 -0.1776 -0.1663 -0.5342
 1331PEP     CB49528   2.799  18.887   6.831 -0.2472 -0.0895 -0.1092
 1331PEP     CB49529   2.725  19.358   6.654 -0.2086  0.1406  0.1475
 1331PEP     CB49530   2.430  19.582   6.868  0.1239  0.2082  0.3258
 1331PEP     CB49531   2.273  19.443   7.227 -0.1578  0.1781 -0.1669
 1331PEP     CB49532   2.194  19.455   7.585 -0.1021  0.0261 -0.0616
 1331PEP     CB49533   2.400  19.662   7.866  0.0157  0.1849 -0.0456
 1331PEP     CB49534   2.755  19.643   8.101  0.0353  0.3665 -0.2176
 1331PEP     CB49535   3.078  19.288   8.245  0.5064 -0.2458  0.1503
 1331PEP     CB49536   3.452  19.001   8.254 -0.2054  0.3617 -0.2038
 1331PEP     CB49537   3.880  18.966   8.497  0.0434  0.0965 -0.1709
 1331PEP     CB49538   4.148  18.880   8.879 -0.2171 -0.0141 -0.4705
 1331PEP     CB49539   4.043  18.756   9.306 -0.1926 -0.1317  0.1478
 1331PEP     CB49540   3.686  18.528   9.330  0.0469  0.2372 -0.0449
 1331PEP     CB49541   3.419  18.553   8.957  0.0862 -0.2719  0.2143
 1331PEP     CB49542   3.151  18.396   8.524 -0.3469  0.3999  0.0507
 1331PEP     CB49543   2.856  18.505   8.186  0.0729  0.0747 -0.2570
 1331PEP     CB49544   2.873  18.520   7.755 -0.0406  0.1573 -0.2045
 1331PEP     CB49545   2.878  18.357   7.315 -0.1889 -0.2024 -0.0790
 1331PEP     CB49546   2.708  18.010   7.149  0.1595 -0.0148 -0.2235
 1331PEP     CB49547   2.353  17.841   7.448  0.1795  0.3596  0.4856
 1331PEP     CB49548   2.012  18.068   7.431 -0.1214  0.3762  0.1213
 1331PEP     CB49549   1.943  18.439   7.125 -0.1989  0.0419 -0.2630
 1331PEP     CB49550   1.924  18.606   6.694  0.0364  0.1115 -0.2418
 1331PEP     CB49551   1.600  18.605   6.307 -0.3496  0.1704  0.0159
 1331PEP     CB49552   1.506  18.486   5.877  0.1389  0.0979 -0.0622
 1331PEP     CB49553   1.433  18.343   5.419  0.3417  0.0295 -0.2318
 1331PEP     CB49554   1.384  18.439   4.974 -0.0894  0.0931  0.1200
 1331PEP     CB49555   1.300  18.818   4.770  0.2796 -0.0308 -0.1744
 1331PEP     CB49556   0.996  19.104   4.774 -0.2962 -0.0099  0.2081
 1331PEP     CB49557   0.683  19.267   4.527 -0.0157 -0.0453  0.0813
 1331PEP     CB49558   0.423  19.648   4.571 -0.1251  0.2736 -0.0839
 1331PEP     CB49559   0.402  19.743   4.996 -0.1005  0.1839  0.0968
 1331PEP     CB49560   0.597  19.876   5.320 -0.0501 -0.1082  0.0279
 1332PEP     CB49561   8.509   7.490  15.369  0.0001  0.2429  0.2880
 1332PEP     CB49562   8.516   7.317  14.981  0.2012 -0.1960 -0.1588
 1332PEP     CB49563   8.263   7.455  14.664  0.2843  0.2414  0.1147
 1332PEP     CB49564   7.858   7.338  14.547 -0.1878  0.1453  0.0624
 1332PEP     CB49565   7.550   7.103  14.777  0.3145 -0.0881 -0.3594
 1332PEP     CB49566   7.194   7.112  14.922 -0.1898 -0.1438  0.2110
 1332PEP     CB49567   6.999   7.105  15.361  0.0626  0.1410 -0.0593
 1332PEP     CB49568   6.875   7.168  15.762 -0.2854 -0.0249 -0.0747
 1332PEP     CB49569   6.592   7.308  16.112 -0.0053  0.0861 -0.0324
 1332PEP     CB49570   6.134   7.497  16.213 -0.0606  0.5019  0.1020
 1332PEP     CB49571   5.715   7.506  16.356 -0.1362 -0.2249  0.0322
 1332PEP     CB49572   5.359   7.442  16.661 -0.0411  0.0348  0.0897
 1332PEP     CB49573   5.053   7.726  16.840  0.5076  0.1364  0.1856
 1332PEP     CB49574   4.592   7.771  16.673 -0.1005  0.1624  0.0073
 1332PEP     CB49575   4.512   7.828  16.256 -0.0168 -0.1490 -0.0000
 1332PEP     CB49576   4.539   8.137  15.956  0.0777  0.0787  0.6649
 1332PEP     CB49577   4.692   8.548  15.758  0.2830 -0.1442  0.1497
 1332PEP     CB49578   5.021   8.789  15.652 -0.1140  0.1645  0.0893
 1332PEP     CB49579   5.368   8.658  15.339 -0.1514  0.0832 -0.4131
 1332PEP     CB49580   5.579   8.216  15.295 -0.2075 -0.0743  0.1950
 1332PEP     CB49581   5.826   7.857  15.191  0.4080  0.3975 -0.3626
 1332PEP     CB49582   5.977   7.442  15.221 -0.2118  0.2527 -0.0500
 1332PEP     CB49583   6.101   6.989  15.139 -0.1564 -0.4536  0.4075
 1332PEP     CB49584   6.236   6.647  15.259  0.1272  0.1440  0.0797
 1332PEP     CB49585   6.429   6.263  15.443  0.1282  0.0975 -0.0659
 1332PEP     CB49586   6.509   5.814  15.338 -0.0775  0.2329 -0.1641
 1332PEP     CB49587   6.473   5.607  14.984  0.2699  0.4009 -0.3953
 1332PEP     CB49588   6.650   5.681  14.518 -0.1299 -0.0433 -0.0582
 1332PEP     CB49589   6.401   5.893  14.275 -0.3018  0.0974  0.1453
 1332PEP     CB49590   5.894   5.650  14.308  0.2532  0.2235 -0.1913
 1332PEP     CB49591   5.579   5.422  14.477 -0.2613  0.0896  0.3681
 1332PEP     CB49592   5.186   5.558  14.494 -0.5703  0.4356 -0.0257
 1332PEP     CB49593   5.036   5.940  14.726 -0.1356  0.1963  0.2094
 1332PEP     CB49594   5.022   6.366  14.713  0.0426  0.0467  0.4132
 1332PEP     CB49595   5.105   6.601  14.353 -0.0814  0.7778  0.0948
 1332PEP     CB49596   5.238   6.911  14.005  0.0675 -0.0209 -0.0268
 1332PEP     CB49597   5.693   7.028  13.845  0.2313 -0.1652 -0.0533
 1332PEP     CB49598   6.081   7.284  13.811 -0.1549  0.3915 -0.1405
 1332PEP     CB49599   6.439   7.238  13.577  0.0100  0.0373 -0.1992
 1332PEP     CB49600   6.521   6.917  13.272 -0.1724  0.1906 -0.0431
 1333PEP     CB49601  18.999  17.053   7.665  0.1048 -0.0075  0.0116
 1333PEP     CB49602  18.741  17.186   8.038  0.0620  0.3124  0.2951
 1333PEP     CB49603  18.353  17.221   8.298  0.0558 -0.0360  0.5616
 1333PEP     CB49604  18.056  16.896   8.380  0.3755  0.2079 -0.2037
 1333PEP     CB49605  17.920  16.548   8.118  0.3801 -0.0447 -0.1371
 1333PEP     CB49606  17.734  16.133   8.135  0.3538  0.4051 -0.0773
 1333PEP     CB49607  17.813  15.696   7.838  0.0049 -0.3094  0.5710
 1333PEP     CB49608  17.943  15.866   7.371  0.1019 -0.1743 -0.1038
 1333PEP     CB49609  18.087  16.276   7.337 -0.1762 -0.3794  0.0141
 1333PEP     CB49610  18.034  16.770   7.603 -0.0159 -0.0325  0.2062
 1333PEP     CB49611  17.909  17.240   7.525 -0.3439 -0.0136 -0.4927
 1333PEP     CB49612  17.699  17.674   7.575 -0.1377  0.0723  0.5022
 1333PEP     CB49613  17.489  17.954   7.252  0.0329 -0.0481  0.0091
 1333PEP     CB49614  17.663  18.248   6.882  0.5674  0.2187  0.7525
 1333PEP     CB49615  18.025  18.227   6.571  0.0042  0.1781  0.0355
 1333PEP     CB49616  18.357  17.934   6.580  0.0423 -0.0038 -0.0391
 1333PEP     CB49617  18.501  17.581   6.905 -0.1649 -0.2900  0.0192
 1333PEP     CB49618  18.764  17.170   7.092  0.3185 -0.4796 -0.2040
 1333PEP     CB49619  19.171  16.948   7.131  0.1130 -0.3229  0.1886
 1333PEP     CB49620  19.460  16.662   7.221 -0.3311  0.4529 -0.0859
 1333PEP     CB49621  19.489  16.302   7.110  0.2747  0.5792 -0.1004
 1333PEP     CB49622  19.764  16.154   6.759 -0.0498 -0.0777  0.0332
 1333PEP     CB49623  19.941  16.440   6.416 -0.0521  0.0898 -0.1456
 1333PEP     CB49624  20.169  16.830   6.344 -0.4465  0.1205 -0.5652
 1333PEP     CB49625  20.353  17.214   6.159  0.0539  0.2442  0.0257
 1333PEP     CB49626  20.349  17.629   6.125 -0.1792  0.1217 -0.5382
 1333PEP     CB49627  20.056  17.936   5.978 -0.3633  0.2982 -0.2129
 1333PEP     CB49628  19.785  18.165   5.954 -0.1332  0.2701  0.0190
 1333PEP     CB49629  19.545  18.404   5.643  0.0793 -0.1450  0.0348
 1333PEP     CB49630  19.622  18.576   5.232 -0.0886  0.1209  0.0236
 1333PEP     CB49631  19.668  18.216   4.928  0.0889 -0.1960  0.3037
 1333PEP     CB49632  19.840  17.824   4.890 -0.1141 -0.3929 -0.7012
 1333PEP     CB49633  20.165  17.618   4.920  0.1949 -0.1433 -0.1908
 1333PEP     CB49634  20.566  17.401   4.958  0.0626 -0.0765 -0.1241
 1333PEP     CB49635  21.062  17.314   4.935 -0.1133  0.0537 -0.0738
 1333PEP     CB49636  21.471  17.114   5.170 -0.1314 -0.1714  0.0386
 1333PEP     CB49637  21.621  16.761   5.305  0.2488 -0.1335  0.2602
 1333PEP     CB49638  21.724  16.581   5.702  0.0319 -0.1036  0.4461
 1333PEP     CB49639  21.603  16.300   6.002  0.0273 -0.2239  0.1468
 1333PEP     CB49640  21.709  16.122   6.297  0.0164  0.0749 -0.0307
 1334PEP     CB49641  17.312  13.390  18.664  0.0491 -0.2262 -0.0139
 1334PEP     CB49642  17.199  13.058  18.303  0.2036  0.0703  0.0679
 1334PEP     CB49643  17.245  12.559  18.108  0.1166  0.0149  0.2068
 1334PEP     CB49644  17.387  12.416  17.698 -0.4212  0.2143  0.0233
 1334PEP     CB49645  17.665  12.495  17.267  0.4687  0.1358 -0.0733
 1334PEP     CB49646  17.731  12.928  17.193  0.2676 -0.2572  0.0845
 1334PEP     CB49647  17.653  13.259  17.522  0.0367  0.0347 -0.1603
 1334PEP     CB49648  17.669  13.413  17.998  0.0750  0.0781  0.1037
 1334PEP     CB49649  17.877  13.758  18.216  0.0944 -0.1998  0.0653
 1334PEP     CB49650  18.172  14.101  18.115  0.1503 -0.1943  0.2288
 1334PEP     CB49651  18.326  14.077  17.701  0.1817 -0.5322  0.2598
 1334PEP     CB49652  18.046  13.884  17.356 -0.3652 -0.2824 -0.0211
 1334PEP     CB49653  17.946  13.792  16.933 -0.3865  0.1884 -0.0597
 1334PEP     CB49654  18.020  13.677  16.526  0.1383 -0.2051  0.0443
 1334PEP     CB49655  18.201  13.599  16.117  0.1685  0.0470  0.1435
 1334PEP     CB49656  18.080  13.518  15.668 -0.4725  0.1673  0.6434
 1334PEP     CB49657  18.061  13.654  15.279 -0.1250 -0.0300 -0.0171
 1334PEP     CB49658  18.227  13.906  15.076  0.0429  0.1204  0.1415
 1334PEP     CB49659  18.417  14.076  14.777 -0.1111 -0.0175  0.1869
 1334PEP     CB49660  18.622  14.364  14.591  0.2891  0.2774 -0.0097
 1334PEP     CB49661  18.864  14.770  14.597  0.3578  0.0741 -0.2979
 1334PEP     CB49662  19.155  15.219  14.525 -0.0730 -0.1070 -0.2926
 1334PEP     CB49663  19.283  15.581  14.784 -0.0039  0.0364  0.2958
 1334PEP     CB49664  19.607  15.750  15.053  0.2339  0.0396  0.1299
 1334PEP     CB49665  19.809  15.486  15.423  0.1152 -0.0941  0.0716
 1334PEP     CB49666  20.081  15.161  15.500 -0.5175 -0.1490 -0.1894
 1334PEP     CB49667  20.379  14.873  15.577 -0.0652 -0.1329 -0.4514
 1334PEP     CB49668  20.834  14.803  15.668  0.0130 -0.1139  0.1379
 1334PEP     CB49669  21.144  15.132  15.796 -0.2863 -0.0560  0.5091
 1334PEP     CB49670  21.092  15.500  15.983 -0.2170  0.2676 -0.5069
 1334PEP     CB49671  21.197  15.904  16.218  0.3425 -0.0068  0.5685
 1334PEP     CB49672  21.352  16.302  16.526 -0.2976  0.1575 -0.2592
 1334PEP     CB49673  21.369  16.646  16.862 -0.0009  0.0878  0.0467
 1334PEP     CB49674  21.292  16.712  17.260  0.1324  0.1833  0.1518
 1334PEP     CB49675  21.158  16.510  17.647 -0.1951  0.4313 -0.2014
 1334PEP     CB49676  21.257  16.170  17.932 -0.1080 -0.3829 -0.1651
 1334PEP     CB49677  21.559  15.825  17.852  0.0678  0.1467  0.6231
 1334PEP     CB49678  21.805  15.671  17.585 -0.0458  0.3050 -0.3260
 1334PEP     CB49679  21.868  15.681  17.189  0.1632  0.0140  0.3155
 1334PEP     CB49680  22.090  15.812  16.799  0.0963 -0.1235  0.3399
 1335PEP     CB49681   8.078  18.295  12.860  0.0171  0.1574 -0.1475
 1335PEP     CB49682   7.818  18.115  13.239 -0.2681 -0.1687 -0.1368
 1335PEP     CB49683   7.883  17.896  13.553 -0.0929  0.4597 -0.3188
 1335PEP     CB49684   7.997  17.777  13.978  0.1648 -0.1471  0.0922
 1335PEP     CB49685   7.879  17.810  14.458 -0.0787 -0.2613  0.2060
 1335PEP     CB49686   7.953  17.949  14.849 -0.0562  0.0321  0.4975
 1335PEP     CB49687   7.821  18.384  15.104 -0.0510  0.0079 -0.0846
 1335PEP     CB49688   7.576  18.532  15.506 -0.0219 -0.1340 -0.0775
 1335PEP     CB49689   7.381  18.309  15.818 -0.0520 -0.0312  0.2950
 1335PEP     CB49690   7.311  17.920  16.047 -0.0298  0.2210 -0.0443
 1335PEP     CB49691   7.350  17.630  16.406  0.1077  0.1536 -0.1936
 1335PEP     CB49692   7.326  17.268  16.730 -0.1513  0.4343  0.1654
 1335PEP     CB49693   7.253  16.805  16.656  0.0279  0.3354  0.0992
 1335PEP     CB49694   7.161  16.687  16.213  0.1901 -0.0551  0.5539
 1335PEP     CB49695   6.812  16.872  16.082 -0.4272  0.1481 -0.0603
 1335PEP     CB49696   6.598  17.235  16.169  0.1742  0.1218 -0.2325
 1335PEP     CB49697   6.409  17.422  16.590 -0.0764 -0.0052  0.1966
 1335PEP     CB49698   6.231  17.672  16.987 -0.1047  0.0658  0.1129
 1335PEP     CB49699   6.026  17.960  17.041  0.0952  0.0963 -0.2344
 1335PEP     CB49700   5.837  18.321  17.230 -0.0282  0.1281  0.5684
 1335PEP     CB49701   5.839  18.833  17.151 -0.1297 -0.0216 -0.0928
 1335PEP     CB49702   6.122  19.085  16.999 -0.0275 -0.0675 -0.2144
 1335PEP     CB49703   6.429  19.292  17.295  0.1134 -0.0449  0.1975
 1335PEP     CB49704   6.699  19.067  17.456 -0.1818  0.3214  0.4444
 1335PEP     CB49705   7.055  18.807  17.600  0.2585  0.2079 -0.4613
 1335PEP     CB49706   7.215  18.794  17.935 -0.3441  0.0899  0.3801
 1335PEP     CB49707   7.493  18.921  18.159 -0.1317 -0.2101 -0.1839
 1335PEP     CB49708   7.957  18.997  18.112 -0.1495 -0.3481 -0.1969
 1335PEP     CB49709   8.218  18.593  17.896 -0.2648 -0.1932 -0.1338
 1335PEP     CB49710   8.357  18.141  17.875  0.0332  0.1080 -0.3286
 1335PEP     CB49711   8.686  17.866  18.129  0.1510  0.1932 -0.1095
 1335PEP     CB49712   9.010  17.593  18.401  0.3856 -0.0434  0.1199
 1335PEP     CB49713   9.435  17.373  18.430 -0.1559  0.4495 -0.1051
 1335PEP     CB49714   9.800  17.063  18.328 -0.0389  0.3550  0.1010
 1335PEP     CB49715  10.042  16.930  18.004 -0.1682 -0.0637 -0.4137
 1335PEP     CB49716   9.987  17.086  17.532 -0.2179  0.3988  0.2030
 1335PEP     CB49717   9.943  17.279  17.107  0.0864  0.0163  0.0435
 1335PEP     CB49718  10.117  17.441  16.715 -0.1971  0.5968  0.0334
 1335PEP     CB49719  10.595  17.413  16.618  0.0213 -0.1914 -0.2998
 1335PEP     CB49720  10.981  17.260  16.287 -0.1810  0.0593  0.1674
 1336PEP     CB49721  12.548  18.335  19.444  0.2399 -0.1440 -0.3327
 1336PEP     CB49722  12.153  18.277  19.538 -0.1219 -0.3087  0.3934
 1336PEP     CB49723  11.780  18.451  19.755 -0.2321 -0.1058  0.0981
 1336PEP     CB49724  11.653  18.614  20.193  0.2006  0.3414  0.0816
 1336PEP     CB49725  11.432  18.587  20.567 -0.1022 -0.1096  0.0334
 1336PEP     CB49726  10.909  18.561  20.509 -0.0171  0.1741 -0.2530
 1336PEP     CB49727  10.746  18.429  20.086  0.2469 -0.1213  0.0931
 1336PEP     CB49728  10.901  18.067  19.856  0.1469 -0.3504  0.3813
 1336PEP     CB49729  11.243  17.865  19.928 -0.3177  0.0243 -0.6193
 1336PEP     CB49730  11.677  17.664  20.021  0.2796 -0.4074  0.0193
 1336PEP     CB49731  12.029  17.771  19.942 -0.2837  0.1082 -0.2012
 1336PEP     CB49732  12.436  17.617  19.987 -0.0298  0.4073 -0.1511
 1336PEP     CB49733  12.655  17.238  20.273 -0.2264 -0.1592  0.1727
 1336PEP     CB49734  12.390  16.945  20.355 -0.4722  0.1624  0.0600
 1336PEP     CB49735  12.117  16.816  19.999 -0.2981 -0.1079  0.4629
 1336PEP     CB49736  11.994  17.077  19.608  0.0641 -0.2017 -0.2825
 1336PEP     CB49737  11.849  17.459  19.601  0.0468 -0.0936 -0.1815
 1336PEP     CB49738  11.639  17.893  19.510  0.0511  0.1609 -0.0295
 1336PEP     CB49739  11.712  18.301  19.318  0.1769  0.2959  0.1125
 1336PEP     CB49740  11.980  18.702  19.067  0.2807  0.1053 -0.4119
 1336PEP     CB49741  12.311  19.023  18.791 -0.3048  0.3220 -0.0062
 1336PEP     CB49742  12.580  19.369  18.733 -0.3297 -0.2720  0.2124
 1336PEP     CB49743  12.672  19.777  18.770 -0.3292 -0.0012 -0.1781
 1336PEP     CB49744  12.249  19.999  18.816 -0.1655 -0.0839  0.2101
 1336PEP     CB49745  11.738  19.855  19.020  0.1557 -0.1642 -0.1758
 1336PEP     CB49746  11.422  19.426  19.075 -0.1584 -0.0903 -0.2866
 1336PEP     CB49747  11.040  19.150  18.899  0.5025  0.3476 -0.3362
 1336PEP     CB49748  10.672  19.041  18.959  0.0961 -0.3215 -0.4421
 1336PEP     CB49749  10.247  18.917  18.780  0.0628 -0.1230  0.2687
 1336PEP     CB49750  10.042  18.712  18.490  0.4281  0.0928 -0.0446
 1336PEP     CB49751   9.972  18.831  18.128 -0.3792 -0.3578  0.3317
 1336PEP     CB49752   9.944  18.619  17.696 -0.1067  0.2151  0.1718
 1336PEP     CB49753  10.181  18.173  17.590 -0.0431  0.2152  0.0295
 1336PEP     CB49754  10.570  17.969  17.549  0.2038  0.1657 -0.3513
 1336PEP     CB49755  10.877  17.641  17.576 -0.0449 -0.1126  0.1108
 1336PEP     CB49756  11.278  17.657  17.628  0.4854  0.2841 -0.0961
 1336PEP     CB49757  11.644  17.941  17.672  0.0330  0.0322  0.0151
 1336PEP     CB49758  11.994  17.949  17.910  0.0519 -0.1358  0.1061
 1336PEP     CB49759  12.219  18.029  18.358  0.0807  0.0834 -0.0731
 1336PEP     CB49760  12.450  17.960  18.734 -0.2609 -0.1321 -0.1007
 1337PEP     CB49761  10.556  18.362   6.600 -0.2457  0.0599  0.1528
 1337PEP     CB49762  10.995  18.382   6.755 -0.0492  0.0293  0.1424
 1337PEP     CB49763  11.273  18.627   6.589  0.1476 -0.2054 -0.5046
 1337PEP     CB49764  11.717  18.699   6.577  0.0842  0.2159  0.2390
 1337PEP     CB49765  11.910  18.955   6.802 -0.1026  0.1665 -0.1066
 1337PEP     CB49766  12.399  19.132   6.855 -0.1891 -0.2507 -0.4976
 1337PEP     CB49767  12.703  19.222   6.520  0.0229  0.1333 -0.3376
 1337PEP     CB49768  12.857  18.836   6.318 -0.1366 -0.2850 -0.0464
 1337PEP     CB49769  12.925  18.381   6.418 -0.1130  0.0234 -0.1401
 1337PEP     CB49770  13.165  18.172   6.737  0.1076  0.0109  0.0261
 1337PEP     CB49771  13.507  18.233   6.920  0.0330 -0.0655  0.1158
 1337PEP     CB49772  13.872  18.440   7.194 -0.2820  0.0034  0.0461
 1337PEP     CB49773  14.075  18.548   7.607  0.5028  0.1052  0.2708
 1337PEP     CB49774  13.952  18.578   8.111  0.0027  0.1459  0.3150
 1337PEP     CB49775  13.548  18.895   8.256 -0.0834  0.0002  0.3032
 1337PEP     CB49776  13.435  19.278   8.180 -0.0986  0.0285  0.2034
 1337PEP     CB49777  13.197  19.667   8.245 -0.2890  0.4917  0.5124
 1337PEP     CB49778  12.816  19.817   7.985  0.1617  0.3851 -0.0621
 1337PEP     CB49779  12.454  19.553   7.882 -0.1577  0.0311  0.2447
 1337PEP     CB49780  12.373  19.154   7.855 -0.2550  0.0287  0.2568
 1337PEP     CB49781  12.707  18.855   8.042 -0.3331 -0.0065  0.0521
 1337PEP     CB49782  13.037  18.928   8.412  0.1620  0.3032  0.1662
 1337PEP     CB49783  12.892  19.032   8.843 -0.1762  0.0153  0.0895
 1337PEP     CB49784  12.610  19.205   8.990  0.0365 -0.1659 -0.2627
 1337PEP     CB49785  12.377  19.337   9.323 -0.2950  0.3647  0.1264
 1337PEP     CB49786  12.360  19.539   9.655  0.0424  0.0098  0.4863
 1337PEP     CB49787  11.971  19.820   9.852  0.3872 -0.2516  0.3008
 1337PEP     CB49788  11.695  19.716  10.271  0.3511 -0.0078  0.0739
 1337PEP     CB49789  11.650  19.359  10.542 -0.0615 -0.1759 -0.1792
 1337PEP     CB49790  11.371  18.941  10.544 -0.1362 -0.2743  0.1565
 1337PEP     CB49791  11.017  18.663  10.392 -0.5357 -0.1684 -0.2974
 1337PEP     CB49792  10.559  18.683  10.171  0.1554  0.1294 -0.1186
 1337PEP     CB49793  10.247  18.518   9.915 -0.2374  0.3727 -0.0071
 1337PEP     CB49794  10.121  18.184   9.721  0.2020 -0.2438  0.1197
 1337PEP     CB49795   9.888  17.943   9.395 -0.2596  0.0663  0.2248
 1337PEP     CB49796   9.681  17.973   8.980 -0.1152  0.1765  0.1204
 1337PEP     CB49797   9.263  18.070   8.773  0.3058 -0.1897  0.0984
 1337PEP     CB49798   9.041  18.267   8.474  0.3543 -0.1865 -0.1771
 1337PEP     CB49799   8.847  18.216   8.110 -0.0204 -0.0710 -0.1682
 1337PEP     CB49800   8.572  17.979   7.897  0.0424  0.1928 -0.0345
 1338PEP     CB49801  18.427   6.425  11.118  0.1860 -0.0366  0.2036
 1338PEP     CB49802  18.515   6.953  11.157 -0.3110  0.1451 -0.1382
 1338PEP     CB49803  18.739   7.326  11.113  0.1824 -0.2339 -0.2128
 1338PEP     CB49804  19.076   7.296  10.900 -0.2001 -0.0640 -0.1676
 1338PEP     CB49805  19.240   7.259  10.464  0.1108  0.3669  0.2169
 1338PEP     CB49806  19.566   7.455  10.188  0.4660  0.1169 -0.3767
 1338PEP     CB49807  19.986   7.590  10.322  0.1062 -0.0734  0.1337
 1338PEP     CB49808  20.173   8.025  10.498 -0.2800 -0.1943 -0.3422
 1338PEP     CB49809  20.288   8.539  10.724 -0.3468 -0.1291  0.0414
 1338PEP     CB49810  20.526   8.695  11.160  0.4266 -0.1380  0.3623
 1338PEP     CB49811  20.779   8.895  11.398  0.2822 -0.0612  0.1654
 1338PEP     CB49812  20.846   9.338  11.376 -0.0348 -0.4569 -0.1121
 1338PEP     CB49813  20.546   9.680  11.470 -0.2888 -0.1184  0.3329
 1338PEP     CB49814  20.240   9.728  11.795  0.1004  0.2302  0.2162
 1338PEP     CB49815  19.802   9.680  11.984 -0.1783  0.2799 -0.1288
 1338PEP     CB49816  19.461   9.366  12.040 -0.2282  0.1105  0.0326
 1338PEP     CB49817  19.396   8.938  11.927 -0.3551  0.3334  0.2606
 1338PEP     CB49818  19.607   8.560  11.947 -0.2910 -0.0283  0.1317
 1338PEP     CB49819  19.912   8.304  11.924  0.0070  0.2421  0.0003
 1338PEP     CB49820  20.160   8.025  12.017 -0.1592  0.1227 -0.5351
 1338PEP     CB49821  20.149   7.854  12.489  0.1718  0.1666 -0.0967
 1338PEP     CB49822  19.676   7.642  12.691  0.5094 -0.0870  0.0787
 1338PEP     CB49823  19.204   7.689  12.478  0.0350 -0.2923  0.1897
 1338PEP     CB49824  18.856   7.980  12.414 -0.0833 -0.0682  0.5266
 1338PEP     CB49825  18.583   8.182  12.094 -0.0486  0.2961 -0.1010
 1338PEP     CB49826  18.250   8.013  11.828 -0.2071 -0.0191  0.0835
 1338PEP     CB49827  18.287   7.981  11.327 -0.0110 -0.1250  0.1363
 1338PEP     CB49828  18.450   7.834  11.042 -0.2999 -0.5013  0.1411
 1338PEP     CB49829  18.666   7.684  10.770  0.1958  0.0257  0.0441
 1338PEP     CB49830  18.760   7.880  10.365 -0.2115  0.4833  0.0921
 1338PEP     CB49831  18.996   8.292  10.371  0.3107 -0.0040  0.3056
 1338PEP     CB49832  19.456   8.433  10.563 -0.0140 -0.1179 -0.2632
 1338PEP     CB49833  19.829   8.380  10.409 -0.2668  0.0824 -0.2715
 1338PEP     CB49834  20.241   8.552  10.264  0.2680 -0.1219 -0.7004
 1338PEP     CB49835  20.722   8.629   9.983  0.1554  0.4353  0.2131
 1338PEP     CB49836  20.902   8.802   9.663 -0.2472 -0.1608  0.2960
 1338PEP     CB49837  20.995   9.093   9.281 -0.0358  0.0946 -0.0927
 1338PEP     CB49838  21.186   9.183   8.929  0.1884 -0.0332  0.0480
 1338PEP     CB49839  21.499   9.262   8.548 -0.2825  0.3500  0.0125
 1338PEP     CB49840  21.827   9.410   8.239 -0.1434 -0.0082 -0.1377
 1339PEP     CB49841   4.162  11.849   4.203 -0.0310 -0.0039 -0.5771
 1339PEP     CB49842   3.958  12.231   4.277  0.1732 -0.2619  0.0701
 1339PEP     CB49843   3.624  12.534   4.279 -0.1818 -0.1147 -0.2731
 1339PEP     CB49844   3.479  12.907   4.461  0.0981 -0.2294  0.2382
 1339PEP     CB49845   3.244  13.081   4.761  0.0248 -0.0359  0.2298
 1339PEP     CB49846   2.943  12.978   4.986  0.2703  0.1013  0.1478
 1339PEP     CB49847   2.875  12.652   5.328 -0.1687  0.1283 -0.2247
 1339PEP     CB49848   2.902  12.449   5.703 -0.1299 -0.6650  0.1000
 1339PEP     CB49849   2.966  12.600   6.068  0.0086 -0.0562  0.3731
 1339PEP     CB49850   3.224  12.773   6.362  0.1544  0.0540 -0.1947
 1339PEP     CB49851   3.340  12.622   6.763 -0.2793 -0.0605  0.4386
 1339PEP     CB49852   3.387  12.330   7.135  0.0498  0.1387  0.1922
 1339PEP     CB49853   3.754  12.052   7.260 -0.1924  0.1160  0.0217
 1339PEP     CB49854   4.141  12.123   7.129  0.1503 -0.0056  0.1580
 1339PEP     CB49855   4.299  12.362   6.795 -0.1955  0.4865 -0.2334
 1339PEP     CB49856   4.169  12.804   6.718  0.0257 -0.1843 -0.5223
 1339PEP     CB49857   4.006  13.091   7.132 -0.1623  0.5304  0.1042
 1339PEP     CB49858   3.904  12.902   7.547 -0.2150 -0.3429  0.1701
 1339PEP     CB49859   3.653  12.468   7.543  0.2898  0.2223 -0.1730
 1339PEP     CB49860   3.565  12.097   7.701  0.2793 -0.1078 -0.2515
 1339PEP     CB49861   3.652  11.717   7.848 -0.6185 -0.1194 -0.1621
 1339PEP     CB49862   3.757  11.223   7.749 -0.0645  0.1214  0.4921
 1339PEP     CB49863   3.670  11.005   7.387 -0.1587 -0.0339  0.2429
 1339PEP     CB49864   3.610  10.615   7.212 -0.0201 -0.2378 -0.0515
 1339PEP     CB49865   3.689  10.252   7.278  0.2288  0.5346  0.1255
 1339PEP     CB49866   3.872   9.925   7.370 -0.1085 -0.0237 -0.1807
 1339PEP     CB49867   4.258   9.840   7.599  0.0409  0.3371 -0.1649
 1339PEP     CB49868   4.714   9.762   7.539  0.4442 -0.0161 -0.3986
 1339PEP     CB49869   4.937   9.446   7.728  0.0465  0.0522 -0.0943
 1339PEP     CB49870   4.859   9.024   7.673  0.2085 -0.1505 -0.0220
 1339PEP     CB49871   4.619   8.783   7.363 -0.2000  0.0279  0.1605
 1339PEP     CB49872   4.682   8.429   7.090  0.1422  0.1110  0.2603
 1339PEP     CB49873   4.848   8.548   6.724 -0.0312 -0.2568 -0.0921
 1339PEP     CB49874   4.867   8.583   6.227  0.3106 -0.2863  0.2555
 1339PEP     CB49875   4.595   8.354   5.991  0.0420  0.2068  0.2223
 1339PEP     CB49876   4.336   7.989   6.153 -0.2552  0.0472 -0.2074
 1339PEP     CB49877   4.010   7.944   6.471 -0.3648  0.1295  0.1660
 1339PEP     CB49878   3.548   8.138   6.613 -0.0846 -0.2671 -0.2081
 1339PEP     CB49879   3.118   8.240   6.523  0.3163 -0.0519 -0.0244
 1339PEP     CB49880   2.743   8.337   6.348 -0.1913  0.2996  0.3355
 1340PEP     CB49881  18.650   8.309   2.156  0.1472 -0.1627 -0.2697
 1340PEP     CB49882  18.739   8.754   1.931  0.1153  0.1672 -0.0015
 1340PEP     CB49883  18.716   9.195   2.038  0.3428 -0.2664  0.2384
 1340PEP     CB49884  18.693   9.664   2.044 -0.0421 -0.4271 -0.1893
 1340PEP     CB49885  18.723   9.954   2.469 -0.0189 -0.2657  0.1466
 1340PEP     CB49886  19.084  10.014   2.712  0.0560  0.2113 -0.0423
 1340PEP     CB49887  19.523   9.845   2.574  0.3509 -0.1984 -0.3322
 1340PEP     CB49888  19.587   9.796   2.126  0.3300  0.1505 -0.0642
 1340PEP     CB49889  19.639  10.053   1.737  0.0797  0.0584  0.0050
 1340PEP     CB49890  19.879  10.144   1.400 -0.3544  0.1653 -0.1403
 1340PEP     CB49891  20.266  10.012   1.126  0.3297  0.1184  0.2606
 1340PEP     CB49892  20.494   9.609   1.231 -0.0164 -0.2863  0.2552
 1340PEP     CB49893  20.429   9.238   0.881  0.1134 -0.4441 -0.1605
 1340PEP     CB49894  20.034   9.325   0.612 -0.0308  0.0185 -0.3480
 1340PEP     CB49895  19.600   9.506   0.689  0.2465  0.0795  0.2035
 1340PEP     CB49896  19.359   9.766   0.970 -0.2581  0.0525  0.0846
 1340PEP     CB49897  19.421  10.145   1.211  0.0961 -0.0404 -0.0627
 1340PEP     CB49898  19.393  10.628   1.229 -0.3162  0.0663  0.2784
 1340PEP     CB49899  19.437  10.858   0.822 -0.0531 -0.1320 -0.0362
 1340PEP     CB49900  19.422  11.060   0.397  0.0418 -0.2109  0.0904
 1340PEP     CB49901  19.190  11.222   0.003  0.2711  0.2211 -0.1160
 1340PEP     CB49902  18.933  11.472  -0.205 -0.1200  0.1158 -0.0309
 1340PEP     CB49903  18.581  11.723  -0.220  0.2855 -0.0924 -0.2288
 1340PEP     CB49904  18.081  11.713  -0.172  0.0146 -0.0946 -0.0275
 1340PEP     CB49905  17.686  11.682  -0.080  0.0749 -0.1285 -0.1560
 1340PEP     CB49906  17.478  11.320   0.172  0.7626 -0.0885 -0.0000
 1340PEP     CB49907  17.451  11.256   0.608  0.4624  0.2257  0.2201
 1340PEP     CB49908  17.706  11.052   0.978 -0.2298 -0.1461  0.0545
 1340PEP     CB49909  17.938  11.305   1.317 -0.2707  0.0005 -0.1623
 1340PEP     CB49910  18.297  11.623   1.185 -0.2772  0.5551 -0.1201
 1340PEP     CB49911  18.193  11.905   0.871  0.3342  0.0410 -0.1319
 1340PEP     CB49912  18.291  12.063   0.488 -0.0547  0.1466 -0.1221
 1340PEP     CB49913  18.301  12.068   0.024  0.0506  0.1184 -0.1381
 1340PEP     CB49914  18.404  12.045  -0.519 -0.1609 -0.3354 -0.3996
 1340PEP     CB49915  18.205  12.277  -0.780  0.2394  0.1848  0.1731
 1340PEP     CB49916  17.832  12.508  -0.703 -0.0989  0.0655  0.1002
 1340PEP     CB49917  17.688  12.716  -0.370 -0.0721 -0.2696  0.0160
 1340PEP     CB49918  17.764  12.687   0.091 -0.4561 -0.1896  0.3983
 1340PEP     CB49919  17.945  12.476   0.435 -0.2512 -0.1464  0.0853
 1340PEP     CB49920  18.347  12.565   0.619 -0.2859  0.0026 -0.0835
 1341PEP     CB49921  14.222  20.708   1.090  0.1640 -0.0439 -0.1286
 1341PEP     CB49922  13.988  20.308   1.280  0.3359 -0.1527  0.1135
 1341PEP     CB49923  13.683  19.972   1.171 -0.2542 -0.0075  0.1269
 1341PEP     CB49924  13.271  20.146   0.954  0.2076 -0.2956  0.4791
 1341PEP     CB49925  13.095  20.471   0.745  0.1663 -0.1528  0.3738
 1341PEP     CB49926  13.123  20.886   0.495  0.3288  0.1833  0.2221
 1341PEP     CB49927  12.950  21.328   0.565  0.0417 -0.2898 -0.0015
 1341PEP     CB49928  12.590  21.494   0.721  0.1079  0.3300 -0.2970
 1341PEP     CB49929  12.222  21.475   0.886  0.0825 -0.0950 -0.2277
 1341PEP     CB49930  11.992  21.282   1.254  0.0084 -0.0752  0.0768
 1341PEP     CB49931  11.662  21.144   1.500  0.0173 -0.2876  0.2015
 1341PEP     CB49932  11.236  21.139   1.652  0.4728 -0.0768 -0.4523
 1341PEP     CB49933  10.801  21.092   1.581  0.2328 -0.3474 -0.2268
 1341PEP     CB49934  10.336  21.084   1.597  0.0695  0.0511 -0.1207
 1341PEP     CB49935   9.961  20.881   1.740  0.2316  0.2361  0.0296
 1341PEP     CB49936   9.624  20.733   1.946 -0.3090  0.0350 -0.4221
 1341PEP     CB49937   9.168  20.558   2.047  0.1749 -0.0683  0.0950
 1341PEP     CB49938   8.880  20.163   1.932  0.0605 -0.0966  0.2615
 1341PEP     CB49939   8.723  19.954   1.554  0.1979 -0.3530 -0.1576
 1341PEP     CB49940   8.438  19.597   1.407 -0.0497 -0.0649  0.0167
 1341PEP     CB49941   8.318  19.460   0.963  0.2496 -0.0837 -0.1591
 1341PEP     CB49942   8.570  19.532   0.584  0.1096 -0.1344  0.2822
 1341PEP     CB49943   8.795  19.895   0.499  0.4175 -0.4104 -0.2244
 1341PEP     CB49944   8.636  20.317   0.598  0.2520 -0.3035 -0.0451
 1341PEP     CB49945   8.474  20.701   0.706 -0.6567 -0.2566  0.0222
 1341PEP     CB49946   8.082  20.947   0.914  0.1016  0.1816 -0.0360
 1341PEP     CB49947   7.747  21.032   0.948 -0.1881  0.0181  0.0403
 1341PEP     CB49948   7.554  21.377   0.749 -0.2647 -0.9115 -0.0313
 1341PEP     CB49949   7.353  21.523   0.383 -0.0784 -0.1729  0.3331
 1341PEP     CB49950   7.335  21.499  -0.060 -0.0053 -0.0088  0.2335
 1341PEP     CB49951   7.140  21.224  -0.452 -0.0512 -0.2769 -0.2980
 1341PEP     CB49952   7.177  20.763  -0.736 -0.1739 -0.0195 -0.2105
 1341PEP     CB49953   7.467  20.413  -0.600  0.3978 -0.1608 -0.2255
 1341PEP     CB49954   7.866  20.454  -0.370  0.1924  0.0689  0.0570
 1341PEP     CB49955   8.040  20.819  -0.176 -0.0387 -0.1395  0.2373
 1341PEP     CB49956   7.723  21.121   0.005  0.2073  0.0640  0.3480
 1341PEP     CB49957   7.353  21.012   0.140 -0.1478  0.1526  0.2028
 1341PEP     CB49958   7.116  20.642   0.268  0.3042 -0.3644  0.0033
 1341PEP     CB49959   6.737  20.292   0.398  0.0479 -0.0751 -0.1831
 1341PEP     CB49960   6.378  20.101   0.309  0.3054  0.0037 -0.5419
 1342PEP     CB49961  15.627   1.200   5.933 -0.2881  0.3261  0.3396
 1342PEP     CB49962  15.936   0.868   5.812  0.0652 -0.3314 -0.0122
 1342PEP     CB49963  16.267   0.742   5.449 -0.2193  0.0743 -0.0844
 1342PEP     CB49964  16.346   0.810   4.925  0.2567 -0.0683  0.0928
 1342PEP     CB49965  16.056   0.799   4.534  0.0809 -0.0025 -0.2961
 1342PEP     CB49966  15.600   0.677   4.465 -0.1565  0.1092 -0.4635
 1342PEP     CB49967  15.308   0.627   4.715 -0.1059 -0.1434 -0.2429
 1342PEP     CB49968  15.227   0.733   5.136 -0.0719 -0.1697 -0.0803
 1342PEP     CB49969  15.404   0.835   5.514 -0.2704 -0.1057  0.2593
 1342PEP     CB49970  15.443   0.713   5.911 -0.5388  0.1851 -0.0677
 1342PEP     CB49971  15.225   0.324   5.965  0.2389 -0.1322 -0.2309
 1342PEP     CB49972  14.889   0.128   5.681  0.0696  0.1660 -0.1555
 1342PEP     CB49973  14.669   0.348   5.366 -0.2454  0.3314  0.0908
 1342PEP     CB49974  14.675   0.733   5.341 -0.2181 -0.4488 -0.1495
 1342PEP     CB49975  14.622   1.075   5.615 -0.3127 -0.0673  0.1438
 1342PEP     CB49976  14.384   1.052   5.949  0.1397  0.2129  0.3080
 1342PEP     CB49977  14.204   0.799   6.270  0.4060 -0.0596 -0.0477
 1342PEP     CB49978  14.118   0.323   6.349 -0.3186  0.4564  0.0438
 1342PEP     CB49979  14.069  -0.180   6.092  0.2345  0.0839 -0.0437
 1342PEP     CB49980  14.203  -0.501   5.767  0.1134  0.0375 -0.2677
 1342PEP     CB49981  14.508  -0.685   5.419  0.2986 -0.1252 -0.0440
 1342PEP     CB49982  14.872  -0.770   5.197  0.1311 -0.6775 -0.1744
 1342PEP     CB49983  15.120  -0.887   4.851  0.2799 -0.2220  0.1593
 1342PEP     CB49984  15.051  -1.130   4.468  0.0384  0.4545 -0.0033
 1342PEP     CB49985  15.216  -1.477   4.294 -0.0519  0.4598 -0.4296
 1342PEP     CB49986  15.503  -1.598   3.950 -0.1621 -0.0983 -0.0265
 1342PEP     CB49987  15.686  -1.507   3.438 -0.1343  0.1896  0.1426
 1342PEP     CB49988  15.580  -1.247   3.115 -0.2950  0.0371  0.2044
 1342PEP     CB49989  15.456  -0.914   2.851 -0.0461 -0.0095  0.2876
 1342PEP     CB49990  15.162  -0.666   2.588 -0.1389  0.3297  0.4099
 1342PEP     CB49991  15.161  -0.496   2.195  0.1171  0.0641  0.3905
 1342PEP     CB49992  15.521  -0.609   1.829  0.1719  0.0331 -0.0615
 1342PEP     CB49993  15.696  -0.980   1.915  0.1707 -0.2237  0.0630
 1342PEP     CB49994  15.885  -1.152   2.233 -0.2627  0.1519 -0.0728
 1342PEP     CB49995  16.010  -1.027   2.694 -0.0072 -0.3756 -0.1490
 1342PEP     CB49996  15.945  -0.770   3.043 -0.0093  0.0350 -0.1162
 1342PEP     CB49997  15.973  -0.271   3.161  0.1869  0.1899 -0.1228
 1342PEP     CB49998  16.164   0.017   2.940 -0.1805 -0.3152 -0.1291
 1342PEP     CB49999  16.167   0.168   2.420 -0.3530 -0.2533 -0.2563
 1342PEP     CB50000  16.090   0.038   1.958  0.2469  0.2683  0.2298
 1343PEP     CB50001  13.626   2.346   0.165 -0.0255  0.1386 -0.1207
 1343PEP     CB50002  13.713   2.701   0.383  0.0514  0.0057 -0.3543
 1343PEP     CB50003  13.544   3.112   0.260  0.1221  0.1324  0.1372
 1343PEP     CB50004  13.608   3.313  -0.129  0.0252  0.0908  0.1328
 1343PEP     CB50005  13.535   3.130  -0.481  0.0035  0.3249 -0.0925
 1343PEP     CB50006  13.232   2.825  -0.596  0.0087 -0.2040  0.1840
 1343PEP     CB50007  13.230   2.498  -0.341  0.1291  0.0281 -0.1208
 1343PEP     CB50008  13.398   2.056  -0.236 -0.0950  0.0220 -0.0117
 1343PEP     CB50009  13.590   1.679  -0.226 -0.1659 -0.2792 -0.1340
 1343PEP     CB50010  13.613   1.230  -0.275  0.1601  0.2194  0.2677
 1343PEP     CB50011  13.746   0.782  -0.457  0.1334 -0.6390 -0.0512
 1343PEP     CB50012  13.907   0.498  -0.790 -0.2551 -0.2630 -0.5294
 1343PEP     CB50013  14.174   0.409  -1.149 -0.3811 -0.4260  0.2559
 1343PEP     CB50014  14.585   0.463  -1.304  0.1738 -0.4224  0.0268
 1343PEP     CB50015  14.702   0.882  -1.572 -0.3432 -0.1209 -0.1405
 1343PEP     CB50016  14.800   1.219  -1.878  0.1513  0.0658 -0.2584
 1343PEP     CB50017  14.670   1.285  -2.277  0.0909 -0.3332 -0.1642
 1343PEP     CB50018  14.594   0.898  -2.506 -0.0213 -0.2775  0.2434
 1343PEP     CB50019  14.747   0.430  -2.445 -0.2798 -0.4563 -0.2051
 1343PEP     CB50020  14.786   0.176  -2.085 -0.1576  0.1112 -0.0070
 1343PEP     CB50021  14.630  -0.089  -1.744 -0.1496  0.5058  0.2876
 1343PEP     CB50022  14.544  -0.024  -1.251 -0.1095 -0.2536 -0.0774
 1343PEP     CB50023  14.261  -0.035  -0.920  0.3172 -0.2755  0.7013
 1343PEP     CB50024  14.010  -0.378  -0.867 -0.1391 -0.0035 -0.2130
 1343PEP     CB50025  14.068  -0.840  -0.974 -0.0891  0.1168  0.0097
 1343PEP     CB50026  14.433  -1.066  -0.984  0.1093 -0.2654 -0.0708
 1343PEP     CB50027  14.520  -1.454  -0.837  0.0625  0.1710  0.2848
 1343PEP     CB50028  14.281  -1.686  -0.466  0.3793  0.1060  0.2826
 1343PEP     CB50029  14.017  -1.733  -0.138 -0.0220 -0.0905  0.0248
 1343PEP     CB50030  13.893  -2.066   0.205  0.2302 -0.0955 -0.2776
 1343PEP     CB50031  13.874  -2.449   0.530  0.0013  0.1342  0.0164
 1343PEP     CB50032  13.996  -2.858   0.845 -0.0031  0.0148  0.1522
 1343PEP     CB50033  13.922  -3.132   1.197  0.0844 -0.2926  0.0944
 1343PEP     CB50034  14.053  -3.567   1.346 -0.1784 -0.0994  0.0218
 1343PEP     CB50035  14.318  -3.934   1.222 -0.0374 -0.1154 -0.1257
 1343PEP     CB50036  14.518  -4.161   0.960  0.0057 -0.1030 -0.1865
 1343PEP     CB50037  14.682  -4.456   0.696  0.1957  0.0758  0.0476
 1343PEP     CB50038  14.848  -4.896   0.763  0.3040  0.1244 -0.2742
 1343PEP     CB50039  15.063  -5.083   1.114  0.0538  0.0800 -0.1988
 1343PEP     CB50040  15.020  -5.154   1.493  0.1075  0.2841  0.0558
 1344PEP     CB50041   9.250  18.381  13.113  0.0463 -0.4681 -0.0501
 1344PEP     CB50042   9.440  18.420  13.493  0.1855 -0.0809 -0.0750
 1344PEP     CB50043   9.575  18.134  13.922 -0.0408 -0.0956 -0.2194
 1344PEP     CB50044   9.876  17.983  14.247  0.3128 -0.1900  0.1735
 1344PEP     CB50045  10.296  17.872  14.387 -0.0851  0.1862  0.2173
 1344PEP     CB50046  10.828  17.854  14.371 -0.1501  0.1180 -0.2538
 1344PEP     CB50047  11.192  18.172  14.217  0.2375 -0.3082  0.2319
 1344PEP     CB50048  11.377  18.616  14.220  0.1276  0.0641  0.3749
 1344PEP     CB50049  11.729  18.738  14.506 -0.2422 -0.0985  0.0712
 1344PEP     CB50050  12.016  18.873  14.840  0.1182  0.1521  0.0291
 1344PEP     CB50051  12.173  19.190  15.058  0.2580 -0.1960 -0.3381
 1344PEP     CB50052  12.447  19.303  15.482  0.2419 -0.3026 -0.3041
 1344PEP     CB50053  12.672  19.515  15.827 -0.2385 -0.0001 -0.0860
 1344PEP     CB50054  13.037  19.723  16.030 -0.3946  0.0091 -0.2242
 1344PEP     CB50055  13.241  20.112  16.190 -0.0271 -0.1189 -0.0895
 1344PEP     CB50056  12.983  20.402  16.430 -0.1011 -0.3734  0.0659
 1344PEP     CB50057  12.670  20.258  16.724 -0.1566 -0.4208 -0.1362
 1344PEP     CB50058  12.281  19.975  16.624  0.1737 -0.2358  0.0651
 1344PEP     CB50059  12.090  19.708  16.408 -0.2232  0.2948  0.1382
 1344PEP     CB50060  12.002  19.293  16.425  0.0419  0.1225 -0.2338
 1344PEP     CB50061  11.994  19.067  16.836  0.0649  0.1167  0.0557
 1344PEP     CB50062  12.054  19.258  17.238 -0.1255  0.6230  0.3901
 1344PEP     CB50063  12.331  19.478  17.427  0.0794 -0.2435  0.1809
 1344PEP     CB50064  12.685  19.479  17.272  0.2114  0.0403 -0.1774
 1344PEP     CB50065  12.971  19.214  16.990 -0.1591 -0.1104 -0.1723
 1344PEP     CB50066  13.136  18.880  16.739 -0.2931 -0.0604  0.0643
 1344PEP     CB50067  12.954  18.679  16.388  0.1686  0.3011 -0.3335
 1344PEP     CB50068  12.832  18.443  16.081  0.1062 -0.1282 -0.0185
 1344PEP     CB50069  12.612  18.163  15.644 -0.2057  0.2645 -0.2883
 1344PEP     CB50070  12.175  18.131  15.539  0.4262 -0.0680 -0.1348
 1344PEP     CB50071  11.760  18.041  15.445 -0.0749 -0.3397 -0.0331
 1344PEP     CB50072  11.416  17.956  15.739  0.1285  0.1859 -0.1897
 1344PEP     CB50073  11.299  17.721  16.163  0.2629 -0.2310  0.3676
 1344PEP     CB50074  10.973  17.751  16.414  0.3495  0.2616 -0.2295
 1344PEP     CB50075  10.737  17.842  16.786  0.0961 -0.2613  0.1541
 1344PEP     CB50076  10.567  18.169  17.073 -0.1209  0.0352  0.3129
 1344PEP     CB50077  10.215  18.378  17.164 -0.3315 -0.4952 -0.1093
 1344PEP     CB50078   9.836  18.401  17.187  0.1377  0.1578 -0.1500
 1344PEP     CB50079   9.545  18.858  17.161 -0.2874  0.0824 -0.4252
 1344PEP     CB50080   9.464  19.162  16.863 -0.0559 -0.0778 -0.2470
 1345PEP     CB50081   3.160   4.946  16.299  0.0555 -0.1685 -0.2294
 1345PEP     CB50082   3.206   4.888  16.721  0.2285  0.1385 -0.1342
 1345PEP     CB50083   3.212   4.828  17.117 -0.1086 -0.1604  0.1744
 1345PEP     CB50084   3.201   4.479  17.356 -0.1939  0.0121 -0.1803
 1345PEP     CB50085   3.150   4.212  17.679 -0.1041  0.0697 -0.0975
 1345PEP     CB50086   3.033   3.774  17.801 -0.1457 -0.2804 -0.0518
 1345PEP     CB50087   2.949   3.515  18.151 -0.0178 -0.0738  0.2428
 1345PEP     CB50088   2.659   3.507  18.566 -0.5180 -0.3208  0.2179
 1345PEP     CB50089   2.478   3.283  18.811  0.0726 -0.0311 -0.0227
 1345PEP     CB50090   2.076   3.180  18.847  0.2992  0.0778  0.3668
 1345PEP     CB50091   1.672   3.392  18.756  0.1491 -0.1961  0.1484
 1345PEP     CB50092   1.426   3.679  18.540  0.2419  0.2031  0.0300
 1345PEP     CB50093   1.385   4.074  18.186 -0.3240 -0.0640 -0.0090
 1345PEP     CB50094   1.796   4.254  18.084  0.2761 -0.0628 -0.0845
 1345PEP     CB50095   2.104   3.964  18.081  0.0629 -0.0595  0.4178
 1345PEP     CB50096   2.299   3.699  18.358  0.0786 -0.0120 -0.0421
 1345PEP     CB50097   2.215   3.682  18.832  0.4512 -0.3618 -0.3443
 1345PEP     CB50098   2.397   3.495  19.328 -0.0069 -0.0341  0.1099
 1345PEP     CB50099   2.437   3.278  19.717 -0.1846  0.0884  0.5443
 1345PEP     CB50100   2.558   2.932  19.988  0.2956  0.2911 -0.0333
 1345PEP     CB50101   2.784   2.831  20.301 -0.2892  0.1275 -0.4420
 1345PEP     CB50102   2.735   2.722  20.750 -0.0983 -0.4667 -0.5313
 1345PEP     CB50103   2.644   3.116  21.151  0.0614  0.2059 -0.2723
 1345PEP     CB50104   2.931   3.505  21.086 -0.1783  0.2552 -0.2965
 1345PEP     CB50105   3.278   3.415  20.883 -0.4531 -0.2078  0.0796
 1345PEP     CB50106   3.277   3.470  20.464 -0.0899 -0.3218  0.0081
 1345PEP     CB50107   2.870   3.304  20.406 -0.0442 -0.1302 -0.1354
 1345PEP     CB50108   2.637   3.332  20.694 -0.3837  0.1042 -0.2312
 1345PEP     CB50109   2.395   3.560  21.037  0.3842  0.1842 -0.2195
 1345PEP     CB50110   1.998   3.536  21.049 -0.0802  0.0407  0.2142
 1345PEP     CB50111   1.597   3.641  20.817  0.0910 -0.0315 -0.0234
 1345PEP     CB50112   1.365   4.075  20.958 -0.0835 -0.1005  0.0797
 1345PEP     CB50113   1.495   4.231  21.364 -0.0411 -0.1124 -0.0956
 1345PEP     CB50114   1.721   3.942  21.647 -0.0531 -0.4201  0.2728
 1345PEP     CB50115   1.961   3.649  21.560 -0.3247  0.1322 -0.4971
 1345PEP     CB50116   2.303   3.378  21.750 -0.3713  0.2816 -0.2406
 1345PEP     CB50117   2.648   3.073  21.744  0.3141  0.1328 -0.4701
 1345PEP     CB50118   3.000   2.750  21.902 -0.4502 -0.1510 -0.4231
 1345PEP     CB50119   3.388   2.565  21.761  0.2026  0.0497  0.1315
 1345PEP     CB50120   3.495   2.626  21.315 -0.1889  0.3197  0.2377
 1346PEP     CB50121  12.799  19.751  20.193 -0.0102 -0.0952  0.1360
 1346PEP     CB50122  12.864  20.032  20.507  0.2096  0.2114 -0.4139
 1346PEP     CB50123  13.001  20.418  20.593 -0.2005 -0.1523  0.0765
 1346PEP     CB50124  13.335  20.753  20.718 -0.2189 -0.1200 -0.2772
 1346PEP     CB50125  13.593  20.828  21.065 -0.0272  0.0230 -0.1929
 1346PEP     CB50126  13.676  21.190  21.327 -0.1821  0.2111  0.1611
 1346PEP     CB50127  13.986  21.461  21.595  0.4314 -0.3755  0.5529
 1346PEP     CB50128  14.128  21.466  22.039 -0.0075  0.0946 -0.4013
 1346PEP     CB50129  14.427  21.165  22.284 -0.0670  0.3013 -0.2623
 1346PEP     CB50130  14.384  20.797  22.484  0.3337  0.1360  0.0839
 1346PEP     CB50131  14.301  20.342  22.713 -0.0725  0.1956 -0.0961
 1346PEP     CB50132  14.111  19.924  22.872 -0.0887  0.0234  0.2597
 1346PEP     CB50133  14.119  19.619  23.176 -0.0684 -0.1922  0.1458
 1346PEP     CB50134  14.308  19.243  23.291  0.3635 -0.0685  0.1738
 1346PEP     CB50135  14.447  18.891  23.044 -0.2231  0.1955  0.0484
 1346PEP     CB50136  14.232  18.525  22.947  0.3484 -0.0544 -0.0882
 1346PEP     CB50137  14.197  18.230  22.642 -0.3309  0.1941  0.2075
 1346PEP     CB50138  14.464  18.114  22.326  0.2357 -0.3696 -0.0068
 1346PEP     CB50139  14.735  17.758  22.151  0.0259 -0.1741  0.2822
 1346PEP     CB50140  14.901  17.332  22.311 -0.0745 -0.0524  0.0028
 1346PEP     CB50141  15.321  17.217  22.567  0.1371  0.2018  0.2349
 1346PEP     CB50142  15.716  17.344  22.764  0.0146  0.0714 -0.3214
 1346PEP     CB50143  16.166  17.366  22.644  0.2069  0.0525  0.0733
 1346PEP     CB50144  16.485  17.386  22.351 -0.2493 -0.3127  0.1128
 1346PEP     CB50145  16.868  17.605  22.152 -0.1343 -0.2205 -0.0032
 1346PEP     CB50146  17.332  17.522  22.348  0.4340  0.4280  0.2685
 1346PEP     CB50147  17.643  17.375  22.645 -0.0840  0.2555  0.1185
 1346PEP     CB50148  17.917  17.006  22.684 -0.2956 -0.1659 -0.3119
 1346PEP     CB50149  17.725  16.580  22.661 -0.1689  0.2575  0.2050
 1346PEP     CB50150  17.327  16.407  22.655 -0.2423  0.0561  0.1278
 1346PEP     CB50151  17.123  16.248  23.096 -0.0816 -0.1633  0.1250
 1346PEP     CB50152  17.327  16.544  23.385 -0.1201  0.0283 -0.1221
 1346PEP     CB50153  17.725  16.481  23.600  0.1050  0.1818 -0.0087
 1346PEP     CB50154  18.060  16.410  23.819 -0.1364 -0.1861 -0.1580
 1346PEP     CB50155  18.315  16.254  24.177  0.0667  0.0227 -0.3863
 1346PEP     CB50156  18.643  16.176  24.457 -0.1731  0.0568 -0.0509
 1346PEP     CB50157  19.040  16.075  24.653  0.1522 -0.0086 -0.1134
 1346PEP     CB50158  19.242  15.945  25.059  0.0005  0.0302 -0.1403
 1346PEP     CB50159  19.409  15.841  25.521 -0.4482 -0.2413 -0.2957
 1346PEP     CB50160  19.463  15.866  26.006 -0.1304 -0.0237  0.4576
 1347PEP     CB50161   6.749  20.471   4.359  0.1059  0.1547  0.6096
 1347PEP     CB50162   7.046  20.236   4.570  0.0947 -0.1112  0.0713
 1347PEP     CB50163   7.458  20.225   4.655 -0.1188  0.1343 -0.1043
 1347PEP     CB50164   7.783  20.498   4.906 -0.2249  0.0678  0.3108
 1347PEP     CB50165   8.063  20.836   4.851 -0.1389  0.0435 -0.0722
 1347PEP     CB50166   8.352  20.991   4.522  0.0198 -0.0018  0.3460
 1347PEP     CB50167   8.405  21.139   4.184 -0.1904  0.1395 -0.0178
 1347PEP     CB50168   8.274  21.471   3.871  0.3223  0.3288  0.3336
 1347PEP     CB50169   7.960  21.699   3.805  0.4849  0.3960  0.0244
 1347PEP     CB50170   7.616  21.854   3.573  0.2894  0.0777 -0.4812
 1347PEP     CB50171   7.282  22.198   3.560 -0.0181  0.1405  0.0382
 1347PEP     CB50172   6.822  22.273   3.813  0.0667  0.1191  0.4809
 1347PEP     CB50173   6.509  21.962   3.817  0.0112 -0.2429  0.2210
 1347PEP     CB50174   6.464  21.688   3.540 -0.1088  0.3537 -0.4757
 1347PEP     CB50175   6.844  21.395   3.326 -0.4172 -0.2327 -0.0963
 1347PEP     CB50176   7.312  21.534   3.323  0.1287  0.1708 -0.0191
 1347PEP     CB50177   7.545  21.772   2.970 -0.0862  0.2766 -0.0231
 1347PEP     CB50178   7.756  21.932   2.628 -0.5303 -0.3555  0.1195
 1347PEP     CB50179   7.695  22.265   2.286  0.1092  0.0847 -0.0751
 1347PEP     CB50180   7.771  22.555   1.954  0.0124  0.2167 -0.1001
 1347PEP     CB50181   8.001  22.821   1.744 -0.0989 -0.0480 -0.2530
 1347PEP     CB50182   8.452  22.733   1.466 -0.0432  0.0331 -0.2142
 1347PEP     CB50183   8.498  22.420   1.135  0.3718  0.1259  0.0632
 1347PEP     CB50184   8.094  22.201   0.925 -0.1045  0.1352 -0.0921
 1347PEP     CB50185   7.625  22.139   1.021 -0.2827 -0.1371 -0.0359
 1347PEP     CB50186   7.333  22.303   1.295 -0.1190 -0.1074 -0.0054
 1347PEP     CB50187   7.350  22.576   1.686  0.1361 -0.1098 -0.2532
 1347PEP     CB50188   7.512  23.016   1.785  0.0270 -0.0235  0.1224
 1347PEP     CB50189   7.841  23.309   1.974 -0.4272  0.0540 -0.1719
 1347PEP     CB50190   8.174  23.689   1.753 -0.0070 -0.1668 -0.1275
 1347PEP     CB50191   8.033  23.769   1.292 -0.1703  0.0184  0.1242
 1347PEP     CB50192   7.608  23.813   1.113 -0.0720  0.1078 -0.2588
 1347PEP     CB50193   7.283  23.481   1.225  0.0651 -0.0003 -0.1454
 1347PEP     CB50194   7.371  23.027   1.310 -0.2179  0.0357 -0.1566
 1347PEP     CB50195   7.660  22.694   1.294  0.3604 -0.1211  0.3001
 1347PEP     CB50196   8.072  22.829   1.183  0.1892 -0.2118 -0.4156
 1347PEP     CB50197   8.314  23.129   0.976 -0.1077 -0.4502  0.1557
 1347PEP     CB50198   8.460  23.389   0.784 -0.0769 -0.4210 -0.2716
 1347PEP     CB50199   8.768  23.798   0.670 -0.0667  0.2643  0.3967
 1347PEP     CB50200   8.813  24.265   0.544  0.1405 -0.2793 -0.3310
 1348PEP     CB50201   7.179  19.556  18.116 -0.3788  0.2661  0.2235
 1348PEP     CB50202   7.004  19.973  18.281  0.3574 -0.0745 -0.3237
 1348PEP     CB50203   7.010  20.279  18.551  0.2336 -0.1030 -0.6853
 1348PEP     CB50204   6.639  20.456  18.831 -0.0488  0.3380  0.3420
 1348PEP     CB50205   6.297  20.237  19.029  0.0810  0.1901  0.3181
 1348PEP     CB50206   6.203  19.774  18.969  0.1251 -0.0497 -0.0892
 1348PEP     CB50207   6.434  19.399  18.722  0.5012  0.4732 -0.0793
 1348PEP     CB50208   6.611  19.000  18.565 -0.5141 -0.0348 -0.0249
 1348PEP     CB50209   6.698  18.541  18.631  0.4376 -0.3846  0.2127
 1348PEP     CB50210   6.707  18.195  18.502 -0.1018 -0.0517 -0.3313
 1348PEP     CB50211   6.753  17.994  18.167 -0.0206 -0.3308  0.0411
 1348PEP     CB50212   6.699  17.941  17.787 -0.0828  0.1308  0.0504
 1348PEP     CB50213   6.999  17.949  17.416  0.1947  0.1053 -0.3495
 1348PEP     CB50214   7.378  17.667  17.346  0.1184 -0.0126 -0.1595
 1348PEP     CB50215   7.454  17.250  17.194 -0.3391 -0.0905  0.3774
 1348PEP     CB50216   7.423  16.839  17.126 -0.4836  0.1351  0.0165
 1348PEP     CB50217   7.510  16.435  16.900 -0.1652 -0.4701 -0.1353
 1348PEP     CB50218   7.391  15.951  17.116 -0.1207 -0.1607  0.2242
 1348PEP     CB50219   7.581  15.812  17.497 -0.2697  0.1280  0.2322
 1348PEP     CB50220   7.589  15.958  17.926 -0.4763 -0.0205 -0.2195
 1348PEP     CB50221   7.607  15.727  18.363 -0.2621  0.2446 -0.0290
 1348PEP     CB50222   7.602  15.679  18.861 -0.3934 -0.1360  0.3052
 1348PEP     CB50223   7.444  15.959  19.294  0.2152 -0.0539  0.0508
 1348PEP     CB50224   7.445  16.382  19.330 -0.0085  0.0443  0.0207
 1348PEP     CB50225   7.430  16.794  19.178 -0.1504 -0.0833 -0.7209
 1348PEP     CB50226   7.576  17.153  18.918  0.2927 -0.3062 -0.1214
 1348PEP     CB50227   7.826  17.264  18.687  0.1068  0.2607 -0.1404
 1348PEP     CB50228   8.313  17.138  18.759  0.3834 -0.2084  0.4757
 1348PEP     CB50229   8.445  16.769  18.966  0.2436 -0.3730  0.0836
 1348PEP     CB50230   8.628  16.439  19.317 -0.1172  0.1280  0.1989
 1348PEP     CB50231   8.843  16.211  19.667  0.0845  0.0303 -0.3577
 1348PEP     CB50232   8.999  16.211  20.094  0.0659  0.2738 -0.2326
 1348PEP     CB50233   9.231  16.241  20.418  0.1895 -0.1889  0.0468
 1348PEP     CB50234   9.730  16.115  20.495 -0.1261  0.0830  0.0125
 1348PEP     CB50235   9.832  15.668  20.457  0.1614  0.1091 -0.4422
 1348PEP     CB50236   9.840  15.322  20.347  0.1817 -0.2085  0.1237
 1348PEP     CB50237   9.706  14.903  20.432 -0.0362  0.1775  0.1276
 1348PEP     CB50238   9.825  14.526  20.438  0.3854 -0.4281 -0.0375
 1348PEP     CB50239  10.076  14.264  20.725 -0.1850  0.4751  0.3376
 1348PEP     CB50240  10.161  13.866  20.846 -0.1664 -0.0400  0.0621
 1349PEP     CB50241   6.788  13.968   2.105  0.0381 -0.0650  0.0372
 1349PEP     CB50242   6.981  14.238   1.819  0.3140 -0.3959  0.3387
 1349PEP     CB50243   7.328  14.073   1.578 -0.2075  0.0933 -0.1911
 1349PEP     CB50244   7.103  13.723   1.476  0.2348 -0.2061 -0.1828
 1349PEP     CB50245   6.786  13.510   1.723 -0.3028 -0.0895  0.1273
 1349PEP     CB50246   6.682  13.166   1.948  0.2480  0.2546  0.4128
 1349PEP     CB50247   6.809  12.785   2.138  0.1065 -0.3738 -0.4860
 1349PEP     CB50248   7.037  12.474   1.885 -0.0563  0.2770 -0.0124
 1349PEP     CB50249   7.456  12.301   1.856 -0.2035  0.2570  0.1340
 1349PEP     CB50250   7.835  12.448   1.871 -0.3628 -0.0859  0.2129
 1349PEP     CB50251   8.130  12.807   1.602  0.3065 -0.0747  0.3719
 1349PEP     CB50252   8.374  13.128   1.671 -0.1946  0.3605 -0.0714
 1349PEP     CB50253   8.883  13.136   1.685 -0.1611  0.3008 -0.3487
 1349PEP     CB50254   9.362  13.144   1.626  0.3753  0.3242 -0.0269
 1349PEP     CB50255   9.657  13.246   1.837  0.0100 -0.0245  0.1438
 1349PEP     CB50256   9.975  13.566   1.823 -0.2384  0.2409  0.0411
 1349PEP     CB50257  10.221  13.683   1.425  0.0080 -0.4244 -0.4712
 1349PEP     CB50258  10.437  13.692   1.049 -0.1143 -0.0723  0.3607
 1349PEP     CB50259  10.340  13.588   0.621 -0.3939  0.1306  0.6033
 1349PEP     CB50260   9.905  13.599   0.526 -0.3067 -0.2429  0.0776
 1349PEP     CB50261   9.691  13.422   0.848 -0.1680 -0.0137  0.0637
 1349PEP     CB50262   9.886  13.387   1.144  0.0964 -0.1739  0.2105
 1349PEP     CB50263  10.295  13.221   1.249 -0.5289 -0.0368 -0.0140
 1349PEP     CB50264  10.409  12.887   1.210 -0.1901  0.1827 -0.0677
 1349PEP     CB50265  10.699  12.691   0.910 -0.5097  0.2437 -0.0221
 1349PEP     CB50266  10.719  12.766   0.455  0.0726  0.0305  0.0886
 1349PEP     CB50267  10.716  13.037   0.195  0.6198  0.1262 -0.4595
 1349PEP     CB50268  10.514  13.210  -0.179  0.1162  0.0742 -0.5859
 1349PEP     CB50269  10.560  13.615  -0.392  0.0096 -0.0513 -0.1812
 1349PEP     CB50270  10.459  13.936  -0.465 -0.1951  0.2228 -0.6847
 1349PEP     CB50271  10.290  14.223  -0.748 -0.1895  0.3210 -0.1173
 1349PEP     CB50272  10.182  14.558  -0.973 -0.0005 -0.0076  0.0563
 1349PEP     CB50273   9.952  14.862  -1.152  0.1942 -0.1379 -0.0054
 1349PEP     CB50274   9.593  15.147  -1.177  0.1410  0.2745 -0.4411
 1349PEP     CB50275   9.353  15.449  -1.263 -0.0394 -0.0238 -0.2276
 1349PEP     CB50276   9.368  15.847  -1.297  0.0643 -0.0222  0.4009
 1349PEP     CB50277   9.149  16.190  -1.040 -0.3846  0.1054  0.0964
 1349PEP     CB50278   8.953  16.490  -0.784  0.1734  0.2664  0.2028
 1349PEP     CB50279   8.768  16.482  -0.444  0.0871 -0.1525 -0.0951
 1349PEP     CB50280   8.373  16.330  -0.335  0.1006 -0.2849 -0.7582
 1350PEP     CB50281   1.378  14.080  19.275  0.2748  0.2112 -0.0484
 1350PEP     CB50282   1.593  14.430  19.294  0.4303 -0.2321  0.0658
 1350PEP     CB50283   1.640  14.796  18.979  0.1145 -0.3602  0.3043
 1350PEP     CB50284   1.801  14.871  18.552 -0.0503  0.0500  0.1171
 1350PEP     CB50285   1.862  14.619  18.237  0.0916  0.1251 -0.0205
 1350PEP     CB50286   1.959  14.643  17.757  0.3602 -0.0736 -0.2248
 1350PEP     CB50287   2.023  14.812  17.315 -0.2298  0.1968  0.0689
 1350PEP     CB50288   2.359  14.858  17.087  0.0193  0.3060  0.1541
 1350PEP     CB50289   2.714  14.534  17.144 -0.0134 -0.0508 -0.4905
 1350PEP     CB50290   3.139  14.254  17.071 -0.3058  0.0294  0.0228
 1350PEP     CB50291   3.345  14.070  16.781 -0.0563 -0.0789 -0.3073
 1350PEP     CB50292   3.308  13.786  16.397 -0.0403 -0.0084 -0.1029
 1350PEP     CB50293   2.857  13.817  16.173 -0.0436  0.1420 -0.0527
 1350PEP     CB50294   2.515  14.093  16.291  0.2728  0.1934 -0.1823
 1350PEP     CB50295   2.314  14.263  16.643 -0.1753  0.3262 -0.1193
 1350PEP     CB50296   2.164  14.435  17.042  0.0138 -0.0922  0.0244
 1350PEP     CB50297   1.781  14.399  17.307  0.1925  0.1158 -0.4564
 1350PEP     CB50298   1.318  14.384  17.375 -0.0961 -0.3830  0.3976
 1350PEP     CB50299   0.935  14.169  17.631  0.3758 -0.1669 -0.1036
 1350PEP     CB50300   0.888  13.893  17.924 -0.0599  0.0282  0.1439
 1350PEP     CB50301   1.127  13.737  18.231  0.1666 -0.0775 -0.1403
 1350PEP     CB50302   1.502  13.426  18.252 -0.3251 -0.0371 -0.2553
 1350PEP     CB50303   1.435  12.944  18.262 -0.0977 -0.1026  0.0346
 1350PEP     CB50304   1.191  12.763  18.055 -0.0332  0.0756  0.0840
 1350PEP     CB50305   0.875  12.494  18.000  0.1528 -0.0580 -0.3263
 1350PEP     CB50306   0.857  12.154  17.785 -0.0718 -0.0059 -0.2630
 1350PEP     CB50307   1.138  12.036  17.487  0.0243 -0.2955  0.2884
 1350PEP     CB50308   1.509  12.258  17.405  0.0137 -0.3298 -0.1916
 1350PEP     CB50309   1.566  12.688  17.481 -0.1144 -0.0812 -0.4087
 1350PEP     CB50310   1.334  13.107  17.619  0.0113  0.0241 -0.1194
 1350PEP     CB50311   1.013  13.237  17.823 -0.3941  0.2853  0.2441
 1350PEP     CB50312   0.923  13.240  18.333  0.1231  0.0723 -0.1707
 1350PEP     CB50313   1.112  12.952  18.595 -0.1361  0.0057 -0.0674
 1350PEP     CB50314   0.987  12.467  18.496 -0.5249  0.5607  0.2665
 1350PEP     CB50315   0.886  12.033  18.277  0.1912  0.0186 -0.2177
 1350PEP     CB50316   0.756  11.631  18.136  0.7427 -0.2612 -0.0057
 1350PEP     CB50317   0.529  11.303  17.888 -0.2589 -0.0644 -0.1537
 1350PEP     CB50318   0.168  11.092  17.819  0.0921  0.1460 -0.1048
 1350PEP     CB50319   0.029  10.631  17.732  0.0228 -0.1614 -0.1707
 1350PEP     CB50320  -0.007  10.156  17.907  0.1373 -0.0663 -0.2248
 1351PEP     CB50321  20.695  16.133  16.365 -0.1960 -0.0324 -0.0501
 1351PEP     CB50322  20.298  16.347  16.255 -0.2354  0.0445  0.2110
 1351PEP     CB50323  19.952  16.641  16.183  0.1069 -0.1463  0.7638
 1351PEP     CB50324  19.528  16.790  16.372  0.2756 -0.0103  0.1768
 1351PEP     CB50325  19.243  16.784  16.673 -0.0454  0.0578 -0.4992
 1351PEP     CB50326  19.031  16.472  16.841  0.0829 -0.1085 -0.2759
 1351PEP     CB50327  18.985  16.079  16.652 -0.0744 -0.0220 -0.1247
 1351PEP     CB50328  19.306  15.988  16.289  0.0569  0.0245 -0.0449
 1351PEP     CB50329  19.760  15.928  16.248 -0.0353  0.2825 -0.0787
 1351PEP     CB50330  20.228  15.862  16.252  0.1865 -0.3462 -0.4878
 1351PEP     CB50331  20.624  15.862  15.857  0.3232 -0.0246  0.0575
 1351PEP     CB50332  20.970  16.214  15.641 -0.0998  0.3763  0.0623
 1351PEP     CB50333  20.870  16.661  15.622 -0.0874  0.2121  0.0413
 1351PEP     CB50334  20.498  16.818  15.891  0.2123 -0.3387  0.0222
 1351PEP     CB50335  20.240  17.099  16.142 -0.1250  0.3677  0.0050
 1351PEP     CB50336  19.753  17.250  16.233 -0.2562  0.0972  0.2202
 1351PEP     CB50337  19.568  17.609  16.200 -0.3084  0.5402  0.2114
 1351PEP     CB50338  19.504  17.830  15.823 -0.0638  0.3437 -0.0230
 1351PEP     CB50339  19.116  18.003  15.654 -0.1001  0.0879 -0.2766
 1351PEP     CB50340  18.812  18.116  15.369 -0.2215  0.2289 -0.1163
 1351PEP     CB50341  18.521  18.119  15.020  0.1457  0.4075 -0.1843
 1351PEP     CB50342  18.108  18.101  14.945  0.2127 -0.0860 -0.3707
 1351PEP     CB50343  17.727  17.981  15.185  0.0723  0.2238 -0.0546
 1351PEP     CB50344  17.337  18.177  15.346  0.3154 -0.1494  0.0167
 1351PEP     CB50345  16.938  18.130  15.327 -0.0731  0.2073 -0.0556
 1351PEP     CB50346  16.553  18.241  15.245 -0.0834 -0.3859 -0.3681
 1351PEP     CB50347  16.374  18.540  14.952 -0.1145  0.2295 -0.1098
 1351PEP     CB50348  16.531  18.985  14.752 -0.2072  0.0618 -0.2583
 1351PEP     CB50349  16.861  18.965  14.414 -0.1393  0.1719  0.4118
 1351PEP     CB50350  16.930  18.519  14.268 -0.1617 -0.0898  0.2321
 1351PEP     CB50351  16.902  18.325  14.585 -0.1185 -0.0954 -0.1846
 1351PEP     CB50352  16.946  18.518  14.963 -0.2493 -0.3351  0.1694
 1351PEP     CB50353  17.177  18.746  15.183  0.0742 -0.2025  0.0256
 1351PEP     CB50354  17.501  18.675  15.542 -0.1782 -0.4704 -0.0824
 1351PEP     CB50355  17.859  18.373  15.611 -0.3322 -0.1991 -0.2415
 1351PEP     CB50356  18.180  17.923  15.563 -0.1089 -0.1437 -0.0171
 1351PEP     CB50357  18.119  17.613  15.198 -0.0162  0.2969 -0.0117
 1351PEP     CB50358  18.110  17.602  14.741 -0.0040  0.0561  0.0334
 1351PEP     CB50359  17.779  17.430  14.354  0.0631 -0.1079 -0.1214
 1351PEP     CB50360  17.372  17.292  14.006  0.2450 -0.3344 -0.2196
 1352PEP     CB50361  14.336  18.029   4.203 -0.3297  0.2443 -0.1410
 1352PEP     CB50362  14.433  17.840   3.862  0.1233 -0.2038  0.2587
 1352PEP     CB50363  14.621  17.880   3.456  0.2860  0.3213 -0.2066
 1352PEP     CB50364  14.663  18.151   3.131  0.1361  0.3800 -0.3025
 1352PEP     CB50365  14.852  18.528   3.001  0.1226 -0.0249 -0.3790
 1352PEP     CB50366  14.717  19.017   2.948  0.0265 -0.1518 -0.1160
 1352PEP     CB50367  14.603  19.438   2.963  0.3231 -0.3578  0.0643
 1352PEP     CB50368  14.741  19.905   3.024  0.3554 -0.1681 -0.3939
 1352PEP     CB50369  14.825  20.240   2.836  0.1354  0.5713 -0.0111
 1352PEP     CB50370  14.778  20.607   2.592  0.0582  0.1921  0.0578
 1352PEP     CB50371  14.716  20.935   2.399 -0.2148 -0.2222  0.0526
 1352PEP     CB50372  14.292  21.010   2.272 -0.0355  0.1301  0.3588
 1352PEP     CB50373  13.906  20.738   2.202 -0.2295  0.0760  0.2531
 1352PEP     CB50374  13.535  20.399   2.092 -0.2239 -0.1417 -0.1384
 1352PEP     CB50375  13.487  19.954   2.139  0.4365 -0.3786 -0.2133
 1352PEP     CB50376  13.538  19.601   1.964 -0.2269 -0.0641  0.1609
 1352PEP     CB50377  13.789  19.349   1.647  0.6147 -0.0594  0.0783
 1352PEP     CB50378  14.063  18.938   1.684 -0.2495 -0.2372 -0.1171
 1352PEP     CB50379  14.431  18.758   1.634 -0.1588  0.2034 -0.0707
 1352PEP     CB50380  14.872  18.916   1.716  0.2131  0.1106 -0.1433
 1352PEP     CB50381  15.065  19.008   2.095  0.0499 -0.0378  0.0329
 1352PEP     CB50382  15.185  18.854   2.535 -0.2666 -0.0773  0.2263
 1352PEP     CB50383  15.234  18.417   2.742  0.1410 -0.2091  0.2562
 1352PEP     CB50384  15.203  18.208   3.138 -0.0659  0.1621 -0.1157
 1352PEP     CB50385  15.163  18.084   3.508 -0.2067  0.1979 -0.4623
 1352PEP     CB50386  14.894  18.042   3.811  0.0910 -0.2835  0.0409
 1352PEP     CB50387  14.840  17.899   4.166  0.3516  0.4632  0.5040
 1352PEP     CB50388  14.650  17.965   4.530 -0.1780  0.0304  0.0642
 1352PEP     CB50389  14.659  17.764   4.907 -0.0603  0.4698  0.0061
 1352PEP     CB50390  14.612  17.529   5.217  0.1045 -0.1704  0.1825
 1352PEP     CB50391  14.830  17.299   5.427  0.4045 -0.3866 -0.1459
 1352PEP     CB50392  15.126  17.380   5.739 -0.0157 -0.1402  0.3686
 1352PEP     CB50393  15.169  17.597   6.086 -0.5244  0.2044 -0.4158
 1352PEP     CB50394  15.316  18.021   6.169 -0.2756  0.3190  0.5058
 1352PEP     CB50395  15.685  18.296   6.034  0.0685 -0.0230 -0.1246
 1352PEP     CB50396  15.968  18.667   6.036 -0.4511  0.3997  0.0689
 1352PEP     CB50397  16.310  18.861   5.821  0.2204 -0.1515  0.0931
 1352PEP     CB50398  16.333  19.078   5.429  0.6569 -0.2788  0.2051
 1352PEP     CB50399  16.044  19.307   5.115  0.1633 -0.0386  0.0574
 1352PEP     CB50400  15.700  19.400   4.798 -0.0670 -0.3846  0.3777
 1353PEP     CB50401  12.437  19.666  13.299  0.2191 -0.2792  0.0578
 1353PEP     CB50402  12.808  19.655  13.157  0.5505 -0.1520 -0.0204
 1353PEP     CB50403  12.954  19.667  12.761 -0.5716 -0.1276  0.3917
 1353PEP     CB50404  12.778  19.426  12.484 -0.2755 -0.0707  0.0203
 1353PEP     CB50405  12.623  19.126  12.166 -0.0839 -0.1305  0.0865
 1353PEP     CB50406  12.589  18.745  12.078 -0.0575 -0.1847 -0.0391
 1353PEP     CB50407  12.824  18.300  12.082 -0.2726  0.2194  0.1217
 1353PEP     CB50408  13.210  18.153  11.868  0.1107 -0.0834 -0.0920
 1353PEP     CB50409  13.209  17.869  11.487  0.2405  0.1885 -0.0266
 1353PEP     CB50410  13.450  17.733  11.144  0.2962 -0.0576  0.4595
 1353PEP     CB50411  13.593  17.282  10.953  0.6464 -0.0710 -0.1293
 1353PEP     CB50412  13.862  17.093  11.048 -0.0290  0.0704 -0.0037
 1353PEP     CB50413  14.295  16.876  11.078 -0.4406 -0.0460  0.1562
 1353PEP     CB50414  14.640  16.784  11.397  0.1967  0.0970 -0.3722
 1353PEP     CB50415  15.022  16.830  11.645 -0.1108 -0.0791 -0.3471
 1353PEP     CB50416  15.360  16.958  11.836 -0.0228  0.1433  0.2012
 1353PEP     CB50417  15.823  16.977  11.822 -0.1227 -0.0937 -0.0847
 1353PEP     CB50418  16.345  17.028  11.959  0.2248  0.1618 -0.1889
 1353PEP     CB50419  16.681  17.167  11.763  0.0411  0.0531  0.2202
 1353PEP     CB50420  17.006  17.178  11.511 -0.2150 -0.2762  0.1545
 1353PEP     CB50421  17.357  17.028  11.334 -0.0092 -0.6029 -0.0749
 1353PEP     CB50422  17.720  17.228  11.095 -0.1946 -0.4407  0.2266
 1353PEP     CB50423  18.035  17.604  10.921 -0.4664 -0.5781 -0.1195
 1353PEP     CB50424  18.415  17.653  10.654  0.4630 -0.2638 -0.1500
 1353PEP     CB50425  18.663  17.500  10.385 -0.1212 -0.3231  0.2681
 1353PEP     CB50426  18.719  17.247  10.061 -0.1195  0.1391  0.2763
 1353PEP     CB50427  18.680  16.994   9.757 -0.1154 -0.2284  0.0712
 1353PEP     CB50428  18.850  17.038   9.277 -0.1499 -0.5702 -0.0405
 1353PEP     CB50429  18.572  17.194   8.911  0.1518 -0.3514 -0.2406
 1353PEP     CB50430  18.218  17.310   8.797  0.2120 -0.6034 -0.0840
 1353PEP     CB50431  17.747  17.260   8.585  0.3538  0.0207  0.2257
 1353PEP     CB50432  17.465  16.931   8.374 -0.0788 -0.0095  0.0605
 1353PEP     CB50433  17.533  16.498   8.501 -0.0286 -0.0694  0.0517
 1353PEP     CB50434  17.371  16.053   8.521  0.1380 -0.2055  0.0217
 1353PEP     CB50435  17.345  15.645   8.627 -0.1416  0.3317 -0.1646
 1353PEP     CB50436  17.404  15.290   9.019 -0.2166 -0.1323  0.0526
 1353PEP     CB50437  17.021  15.077   9.220 -0.0063  0.3586  0.1828
 1353PEP     CB50438  16.710  15.197   9.517  0.1717  0.3058  0.5343
 1353PEP     CB50439  16.597  15.579   9.801 -0.1997  0.3306  0.1112
 1353PEP     CB50440  16.833  15.908   9.673 -0.1978  0.1454  0.2696
 1354PEP     CB50441   9.092  17.510  14.509  0.0813  0.0748  0.1272
 1354PEP     CB50442   8.993  17.076  14.411  0.2820  0.0607 -0.0475
 1354PEP     CB50443   9.076  16.652  14.329 -0.2525  0.1561 -0.2272
 1354PEP     CB50444   9.255  16.309  14.597 -0.2397  0.0069 -0.1446
 1354PEP     CB50445   9.484  15.868  14.853  0.0215 -0.3676 -0.1280
 1354PEP     CB50446   9.356  15.688  15.166  0.0819  0.0474 -0.3662
 1354PEP     CB50447   8.989  15.894  15.487  0.0402  0.2465 -0.0613
 1354PEP     CB50448   8.663  16.168  15.565  0.4462 -0.2896  0.3167
 1354PEP     CB50449   8.513  16.593  15.726  0.0409  0.3451 -0.1368
 1354PEP     CB50450   8.693  16.920  15.854  0.1700 -0.1101 -0.4957
 1354PEP     CB50451   9.128  16.906  16.026 -0.3161  0.0127  0.2884
 1354PEP     CB50452   9.468  16.616  15.791  0.0172  0.0346 -0.1232
 1354PEP     CB50453   9.323  16.272  15.565 -0.2969  0.0634  0.0340
 1354PEP     CB50454   9.191  16.227  15.100  0.0094 -0.3656  0.0383
 1354PEP     CB50455   9.003  15.845  14.872 -0.0399 -0.2544  0.4174
 1354PEP     CB50456   8.764  15.540  15.182 -0.3260  0.0482  0.5076
 1354PEP     CB50457   8.534  15.650  15.573  0.0409 -0.2101 -0.1080
 1354PEP     CB50458   8.063  15.783  15.728  0.1457 -0.0620 -0.1016
 1354PEP     CB50459   7.714  15.953  15.511 -0.1852 -0.0229  0.0852
 1354PEP     CB50460   7.534  16.348  15.551  0.0504  0.2215 -0.0623
 1354PEP     CB50461   7.263  16.585  15.376  0.2203  0.1000 -0.1597
 1354PEP     CB50462   7.220  16.967  15.120 -0.2747 -0.3882 -0.0454
 1354PEP     CB50463   6.978  17.004  14.791  0.5692  0.1617 -0.3500
 1354PEP     CB50464   6.723  17.187  14.549 -0.1186  0.1072 -0.2523
 1354PEP     CB50465   6.316  17.278  14.652  0.2101 -0.0303  0.0568
 1354PEP     CB50466   6.074  17.561  14.929 -0.2060  0.3441  0.0962
 1354PEP     CB50467   5.994  17.704  15.349 -0.1240 -0.1580 -0.0275
 1354PEP     CB50468   5.656  17.657  15.576  0.0732 -0.1754 -0.3887
 1354PEP     CB50469   5.279  17.675  15.509  0.4842 -0.5488 -0.0785
 1354PEP     CB50470   4.929  17.644  15.253  0.1214  0.3391 -0.0305
 1354PEP     CB50471   4.651  17.714  14.949 -0.2338  0.2349 -0.2035
 1354PEP     CB50472   4.349  17.758  14.636 -0.1207 -0.0443  0.0697
 1354PEP     CB50473   3.972  17.608  14.458 -0.1392  0.1965 -0.0150
 1354PEP     CB50474   3.667  17.782  14.096 -0.1782  0.0748  0.2228
 1354PEP     CB50475   3.617  18.280  13.966  0.2419 -0.1497 -0.0732
 1354PEP     CB50476   3.991  18.602  14.026 -0.1542  0.0158  0.2431
 1354PEP     CB50477   4.318  18.858  13.691  0.2659 -0.1905  0.3746
 1354PEP     CB50478   4.400  19.334  13.508  0.0643  0.3066 -0.1996
 1354PEP     CB50479   4.591  19.450  13.063 -0.3775  0.0834 -0.0417
 1354PEP     CB50480   4.687  19.137  12.740  0.2952 -0.2551 -0.1171
 1355PEP     CB50481  20.510   8.956  10.288  0.0112  0.0619  0.1100
 1355PEP     CB50482  20.953   8.900  10.293  0.1211 -0.2068  0.5702
 1355PEP     CB50483  21.229   9.146  10.434  0.0479 -0.0806 -0.0682
 1355PEP     CB50484  21.314   9.576  10.596  0.0194 -0.4751  0.1831
 1355PEP     CB50485  21.200   9.973  10.382  0.1273 -0.2815  0.1686
 1355PEP     CB50486  20.764  10.018  10.206 -0.1805 -0.0107 -0.1638
 1355PEP     CB50487  20.566   9.949   9.822 -0.1462 -0.1680 -0.0238
 1355PEP     CB50488  20.437   9.666   9.542 -0.0295 -0.1997 -0.0654
 1355PEP     CB50489  20.138   9.409   9.303  0.1103  0.3358  0.2989
 1355PEP     CB50490  19.915   8.993   9.202  0.0807  0.3359 -0.0596
 1355PEP     CB50491  19.854   8.548   9.392  0.2239 -0.2552  0.6339
 1355PEP     CB50492  20.195   8.417   9.677  0.0829 -0.0198 -0.0548
 1355PEP     CB50493  20.624   8.391   9.610  0.1166 -0.0218  0.3702
 1355PEP     CB50494  20.826   8.529   9.265 -0.2770  0.1516  0.0091
 1355PEP     CB50495  20.897   8.772   8.927  0.0079 -0.1833 -0.1993
 1355PEP     CB50496  21.116   8.881   8.542 -0.3110 -0.0692  0.1689
 1355PEP     CB50497  21.541   8.837   8.326 -0.3516  0.1312  0.1723
 1355PEP     CB50498  22.007   8.937   8.198  0.1931  0.0493 -0.3197
 1355PEP     CB50499  22.368   8.944   7.917  0.0344 -0.2584  0.0128
 1355PEP     CB50500  22.840   8.800   7.992 -0.1293 -0.0998  0.2337
 1355PEP     CB50501  23.041   8.802   8.304 -0.1643  0.0281 -0.4948
 1355PEP     CB50502  23.289   8.939   8.635  0.1795  0.1716  0.4846
 1355PEP     CB50503  23.171   9.412   8.699 -0.2332 -0.4564 -0.0733
 1355PEP     CB50504  23.119   9.747   8.331 -0.1049  0.2212 -0.1246
 1355PEP     CB50505  23.109  10.038   7.899 -0.2847  0.3387 -0.0167
 1355PEP     CB50506  22.969  10.218   7.609 -0.0682 -0.2472  0.1471
 1355PEP     CB50507  22.797  10.595   7.390  0.1102  0.0609  0.0495
 1355PEP     CB50508  22.810  10.997   7.096 -0.3784  0.1076 -0.1603
 1355PEP     CB50509  23.077  11.241   6.822  0.2290  0.6587 -0.2484
 1355PEP     CB50510  23.229  11.425   6.436 -0.2757 -0.0554  0.0507
 1355PEP     CB50511  23.246  11.880   6.385 -0.1181  0.6352  0.2098
 1355PEP     CB50512  22.832  12.137   6.560  0.1786  0.3574 -0.2343
 1355PEP     CB50513  22.522  12.165   6.956 -0.1471  0.0001 -0.3279
 1355PEP     CB50514  22.065  12.237   7.043  0.1779  0.2766  0.0219
 1355PEP     CB50515  21.821  12.540   6.940 -0.0213  0.0272 -0.0859
 1355PEP     CB50516  21.814  12.988   7.040  0.0096 -0.1895  0.0182
 1355PEP     CB50517  22.140  13.355   7.073 -0.1016 -0.0499  0.1409
 1355PEP     CB50518  22.565  13.615   7.154  0.1279  0.1397  0.0284
 1355PEP     CB50519  22.714  13.874   6.823 -0.1405  0.2255 -0.2618
 1355PEP     CB50520  22.738  14.114   6.478  0.1108 -0.0464 -0.3503
 1356PEP     CB50521  18.201   3.575  17.672 -0.0248  0.0130  0.2684
 1356PEP     CB50522  18.333   3.928  17.393 -0.2077 -0.2136 -0.0853
 1356PEP     CB50523  18.530   4.304  17.184 -0.0092 -0.1332  0.0680
 1356PEP     CB50524  18.391   4.631  17.017  0.3342  0.0282  0.3517
 1356PEP     CB50525  18.090   4.940  17.103 -0.1880 -0.0810  0.0711
 1356PEP     CB50526  17.725   5.247  17.210  0.2205 -0.2182 -0.0703
 1356PEP     CB50527  17.477   5.589  17.232  0.0069  0.0572  0.2872
 1356PEP     CB50528  17.200   5.666  17.639  0.0801  0.3985 -0.0357
 1356PEP     CB50529  17.112   5.401  17.960  0.2307  0.1510 -0.2323
 1356PEP     CB50530  17.248   4.885  17.815  0.0914 -0.1994 -0.2477
 1356PEP     CB50531  17.269   4.493  17.905 -0.3447 -0.0061  0.3992
 1356PEP     CB50532  17.461   4.184  17.723 -0.5483  0.0458  0.0982
 1356PEP     CB50533  17.853   4.033  17.857  0.1292  0.0004  0.2323
 1356PEP     CB50534  18.048   4.064  18.241  0.0440  0.0555 -0.0361
 1356PEP     CB50535  18.301   4.099  18.588  0.1126 -0.3152 -0.0562
 1356PEP     CB50536  18.686   4.234  18.654  0.1778  0.0729 -0.1679
 1356PEP     CB50537  18.947   4.328  18.300 -0.1769  0.1436  0.4335
 1356PEP     CB50538  18.640   4.433  18.043  0.1267  0.0438 -0.2644
 1356PEP     CB50539  18.268   4.557  18.206  0.0346 -0.1026 -0.0824
 1356PEP     CB50540  18.049   4.708  18.530  0.1012 -0.1319  0.1908
 1356PEP     CB50541  17.782   4.898  18.838  0.1095  0.2502  0.4823
 1356PEP     CB50542  17.722   4.905  19.230 -0.1218 -0.1273  0.1617
 1356PEP     CB50543  17.976   4.623  19.455 -0.2578  0.1537 -0.4386
 1356PEP     CB50544  18.074   4.221  19.338  0.1098  0.2010  0.3329
 1356PEP     CB50545  18.090   3.793  19.459  0.1093  0.3730 -0.4823
 1356PEP     CB50546  17.996   3.308  19.476  0.0950  0.1335  0.2572
 1356PEP     CB50547  17.776   2.976  19.275 -0.0673 -0.4346 -0.0487
 1356PEP     CB50548  17.383   2.830  19.448  0.0909  0.1490 -0.0014
 1356PEP     CB50549  17.022   3.117  19.531 -0.2072 -0.3140 -0.1758
 1356PEP     CB50550  17.022   3.632  19.504  0.1323 -0.1381 -0.0915
 1356PEP     CB50551  17.079   4.103  19.200  0.2255 -0.1101  0.2724
 1356PEP     CB50552  17.144   4.510  19.233 -0.2281  0.0990  0.2167
 1356PEP     CB50553  17.409   4.666  19.514  0.1567  0.3214 -0.1216
 1356PEP     CB50554  17.731   4.817  19.798  0.1089 -0.1333  0.3899
 1356PEP     CB50555  17.784   4.902  20.264  0.3070 -0.1741  0.2908
 1356PEP     CB50556  17.438   5.103  20.592  0.0445 -0.1006 -0.1494
 1356PEP     CB50557  17.106   5.127  20.835  0.1110 -0.0618  0.1658
 1356PEP     CB50558  16.960   5.331  21.100 -0.1219 -0.3410 -0.4453
 1356PEP     CB50559  16.789   5.556  21.466 -0.4554 -0.1532 -0.3306
 1356PEP     CB50560  16.821   6.015  21.513 -0.1139 -0.3384  0.1131
 1357PEP     CB50561   8.123   0.228  17.261  0.0921 -0.2066  0.4337
 1357PEP     CB50562   8.440   0.153  16.907  0.2417  0.1082 -0.0178
 1357PEP     CB50563   8.728   0.391  16.639 -0.2395 -0.0541 -0.3857
 1357PEP     CB50564   8.791   0.735  16.354 -0.0960  0.1699  0.1892
 1357PEP     CB50565   8.788   1.247  16.490 -0.3370 -0.1389 -0.0216
 1357PEP     CB50566   8.717   1.552  16.890  0.1479 -0.3794 -0.1791
 1357PEP     CB50567   8.413   1.596  17.171  0.3213  0.1026  0.2993
 1357PEP     CB50568   8.103   1.600  17.568 -0.0381 -0.2454  0.0388
 1357PEP     CB50569   7.953   1.463  18.041 -0.0294 -0.1925  0.2371
 1357PEP     CB50570   7.574   1.300  18.237  0.3060  0.1623  0.0644
 1357PEP     CB50571   7.343   1.063  18.472 -0.1112 -0.1712  0.1105
 1357PEP     CB50572   7.029   0.716  18.465 -0.1585  0.0220 -0.2085
 1357PEP     CB50573   6.660   0.703  18.219 -0.0830 -0.3479 -0.2292
 1357PEP     CB50574   6.476   0.731  17.837  0.1608  0.2213 -0.1349
 1357PEP     CB50575   6.105   0.798  17.615  0.2549  0.0571  0.5031
 1357PEP     CB50576   5.860   1.232  17.492 -0.1488  0.0779 -0.2147
 1357PEP     CB50577   5.523   1.403  17.416 -0.2120  0.1997  0.1140
 1357PEP     CB50578   5.417   1.813  17.205 -0.0681 -0.3409  0.1323
 1357PEP     CB50579   5.539   1.940  16.794  0.1411  0.0406  0.1824
 1357PEP     CB50580   5.713   1.636  16.488  0.1610  0.4632  0.0761
 1357PEP     CB50581   5.960   1.364  16.573 -0.3513 -0.0997  0.5051
 1357PEP     CB50582   6.206   1.281  16.974 -0.2343  0.1614 -0.2409
 1357PEP     CB50583   6.352   1.241  17.358 -0.1720  0.0015  0.2966
 1357PEP     CB50584   6.599   1.227  17.725  0.1943 -0.1744  0.2505
 1357PEP     CB50585   6.829   1.608  18.001 -0.0177 -0.2680 -0.0207
 1357PEP     CB50586   6.658   2.031  18.047 -0.1839  0.1660  0.3701
 1357PEP     CB50587   6.605   2.387  17.757 -0.1641  0.2231  0.1554
 1357PEP     CB50588   6.419   2.799  17.546 -0.1468  0.0594  0.1545
 1357PEP     CB50589   6.007   3.039  17.377  0.1385  0.0375 -0.0223
 1357PEP     CB50590   5.841   3.263  17.040 -0.2146  0.3911 -0.3098
 1357PEP     CB50591   5.635   3.219  16.599 -0.1023 -0.3344 -0.1705
 1357PEP     CB50592   5.335   3.138  16.421  0.2937 -0.2525 -0.0097
 1357PEP     CB50593   4.980   2.835  16.595 -0.4766 -0.0682 -0.2495
 1357PEP     CB50594   4.986   2.619  17.066 -0.0619 -0.0595  0.2598
 1357PEP     CB50595   5.073   2.437  17.532 -0.3367 -0.1091 -0.1172
 1357PEP     CB50596   5.289   2.232  17.913  0.0246  0.3862  0.1616
 1357PEP     CB50597   5.548   2.305  18.325 -0.0680  0.1408  0.3970
 1357PEP     CB50598   5.930   2.349  18.558  0.0904  0.2158 -0.1314
 1357PEP     CB50599   6.078   2.689  18.827 -0.3754 -0.3580  0.2488
 1357PEP     CB50600   6.338   2.908  19.052  0.0003  0.2898  0.3409
 1358PEP     CB50601   6.950  11.623  18.828  0.0384  0.0626  0.0133
 1358PEP     CB50602   6.819  11.260  19.068  0.2581 -0.1079 -0.3738
 1358PEP     CB50603   6.615  10.958  19.270 -0.0581  0.5372 -0.0331
 1358PEP     CB50604   6.672  10.524  19.356  0.4263  0.0243  0.0585
 1358PEP     CB50605   6.698  10.076  19.441  0.2785  0.0181  0.3544
 1358PEP     CB50606   6.793   9.647  19.457 -0.0503  0.0151 -0.5248
 1358PEP     CB50607   6.898   9.281  19.749 -0.1192 -0.1959  0.1642
 1358PEP     CB50608   7.075   9.306  20.151 -0.5022 -0.1471 -0.3130
 1358PEP     CB50609   7.235   9.633  20.388 -0.1332  0.0804 -0.0345
 1358PEP     CB50610   7.232  10.095  20.520  0.4138  0.3989  0.4344
 1358PEP     CB50611   7.333  10.473  20.644  0.4380  0.1408 -0.1174
 1358PEP     CB50612   7.320  10.835  20.471 -0.4318 -0.1773  0.0617
 1358PEP     CB50613   7.012  11.069  20.422 -0.2987 -0.6031  0.0226
 1358PEP     CB50614   6.503  11.080  20.295 -0.0465 -0.1487 -0.1824
 1358PEP     CB50615   6.017  10.934  20.305 -0.3293 -0.1379  0.0983
 1358PEP     CB50616   5.608  11.034  20.214  0.0869  0.5805  0.0972
 1358PEP     CB50617   5.389  11.301  19.913 -0.1838  0.0490 -0.3418
 1358PEP     CB50618   5.513  11.572  19.615  0.0238  0.1228  0.0779
 1358PEP     CB50619   5.893  11.798  19.554  0.1914  0.0864  0.2972
 1358PEP     CB50620   6.331  11.710  19.703 -0.1011 -0.2783 -0.1477
 1358PEP     CB50621   6.504  11.607  20.077 -0.1325 -0.1750 -0.5890
 1358PEP     CB50622   6.235  11.519  20.447 -0.3543 -0.1550  0.0546
 1358PEP     CB50623   6.089  11.248  20.728  0.0472 -0.3645  0.1092
 1358PEP     CB50624   5.949  10.746  20.819  0.3755 -0.1400  0.3170
 1358PEP     CB50625   5.768  10.536  20.462 -0.1349  0.1555 -0.0343
 1358PEP     CB50626   5.781  10.524  20.105  0.1814  0.1924  0.1749
 1358PEP     CB50627   5.667  10.717  19.747  0.2310 -0.2585 -0.2386
 1358PEP     CB50628   5.550  11.042  19.506  0.4172 -0.3291  0.1543
 1358PEP     CB50629   5.325  11.331  19.213  0.0326 -0.1556 -0.0795
 1358PEP     CB50630   5.008  11.543  19.036 -0.2920  0.0486  0.3184
 1358PEP     CB50631   4.931  11.930  18.845 -0.0338  0.1627 -0.1515
 1358PEP     CB50632   5.180  12.234  18.690  0.0703 -0.2010  0.0569
 1358PEP     CB50633   5.599  12.459  18.590  0.1067 -0.0599  0.2117
 1358PEP     CB50634   6.001  12.715  18.614 -0.0988  0.2924 -0.1781
 1358PEP     CB50635   6.449  12.858  18.428 -0.0839 -0.1999 -0.3174
 1358PEP     CB50636   6.711  13.180  18.318  0.4399 -0.0503 -0.1492
 1358PEP     CB50637   6.990  13.551  18.338  0.1156  0.2320 -0.5825
 1358PEP     CB50638   7.330  13.876  18.213 -0.0571 -0.3129  0.1613
 1358PEP     CB50639   7.808  13.882  18.272 -0.0283 -0.3129  0.0936
 1358PEP     CB50640   8.065  13.960  18.553 -0.1727  0.1962  0.2389
 1359PEP     CB50641  20.192  17.757  17.685  0.0837 -0.0045 -0.1530
 1359PEP     CB50642  20.409  17.642  18.053  0.1804  0.0125 -0.4585
 1359PEP     CB50643  20.733  17.891  18.224 -0.1556  0.5302  0.2539
 1359PEP     CB50644  21.119  17.892  18.113  0.2955  0.1528  0.2035
 1359PEP     CB50645  21.507  17.815  18.170 -0.2870 -0.2203  0.2769
 1359PEP     CB50646  21.909  18.002  18.258 -0.1202 -0.0766  0.1759
 1359PEP     CB50647  22.158  18.305  17.983  0.2186 -0.2469  0.3434
 1359PEP     CB50648  22.222  18.370  17.567  0.0635  0.1980  0.1983
 1359PEP     CB50649  22.163  18.460  17.191 -0.0865  0.1524  0.2421
 1359PEP     CB50650  22.142  18.504  16.744  0.3055 -0.3736  0.0066
 1359PEP     CB50651  22.217  18.380  16.376 -0.2557 -0.0203  0.1899
 1359PEP     CB50652  22.460  18.081  16.203 -0.2465  0.3563 -0.0493
 1359PEP     CB50653  22.927  18.048  16.312  0.1784 -0.4749  0.3259
 1359PEP     CB50654  23.363  17.859  16.294  0.2803 -0.1329 -0.1060
 1359PEP     CB50655  23.695  17.696  16.399 -0.3638  0.1852 -0.1813
 1359PEP     CB50656  24.095  17.738  16.579 -0.0189  0.2321  0.1318
 1359PEP     CB50657  24.549  17.700  16.332 -0.3745 -0.2781  0.1473
 1359PEP     CB50658  24.911  17.384  16.193  0.1226  0.1881  0.2132
 1359PEP     CB50659  25.275  17.183  16.416  0.1173  0.4905  0.1170
 1359PEP     CB50660  25.586  17.289  16.598  0.3262 -0.3626 -0.1079
 1359PEP     CB50661  26.082  17.412  16.587  0.3352  0.1589  0.0873
 1359PEP     CB50662  26.344  17.823  16.598 -0.8638  0.0752  0.5672
 1359PEP     CB50663  26.288  18.159  16.362  0.0478 -0.3597  0.0783
 1359PEP     CB50664  26.307  18.206  15.882  0.0885  0.1224  0.4612
 1359PEP     CB50665  26.461  18.439  15.554  0.3527 -0.2953 -0.0096
 1359PEP     CB50666  26.644  18.756  15.368  0.0062 -0.3041 -0.0306
 1359PEP     CB50667  26.769  19.014  14.943 -0.5494  0.3997  0.1807
 1359PEP     CB50668  26.435  19.267  14.717 -0.4273  0.3402 -0.2119
 1359PEP     CB50669  26.029  19.453  14.775 -0.1111 -0.2441  0.0459
 1359PEP     CB50670  25.553  19.501  14.670  0.1313  0.3465 -0.1150
 1359PEP     CB50671  25.180  19.395  14.660  0.1996 -0.0088  0.3776
 1359PEP     CB50672  25.010  19.184  14.957 -0.2419 -0.2830 -0.0398
 1359PEP     CB50673  25.191  19.303  15.363 -0.1893 -0.0523  0.0812
 1359PEP     CB50674  25.499  19.541  15.236  0.0759 -0.2820  0.2036
 1359PEP     CB50675  25.794  19.853  14.976  0.3192 -0.2430  0.2069
 1359PEP     CB50676  26.228  19.880  14.965  0.1373  0.0011  0.1972
 1359PEP     CB50677  26.368  19.500  15.137 -0.5844  0.5217 -0.4810
 1359PEP     CB50678  26.324  19.121  15.164 -0.0065  0.0864 -0.3466
 1359PEP     CB50679  25.929  18.942  14.982  0.0210 -0.1958 -0.0717
 1359PEP     CB50680  25.534  18.854  15.093  0.3209 -0.1553 -0.1020
 1360PEP     CB50681   7.698  18.848   9.208  0.0241  0.0783  0.3010
 1360PEP     CB50682   7.443  19.277   9.335  0.0577 -0.2797  0.0026
 1360PEP     CB50683   6.977  19.376   9.253  0.0681  0.5078 -0.0433
 1360PEP     CB50684   6.708  19.011   9.219  0.0159 -0.2216  0.1051
 1360PEP     CB50685   6.450  18.843   9.573  0.1634 -0.0086 -0.4013
 1360PEP     CB50686   6.320  19.099   9.829 -0.1359  0.4373  0.0883
 1360PEP     CB50687   6.161  19.175  10.279 -0.1621 -0.2776  0.2874
 1360PEP     CB50688   6.003  18.984  10.535  0.6803 -0.0561  0.0944
 1360PEP     CB50689   5.887  18.565  10.775 -0.0348 -0.2254  0.0425
 1360PEP     CB50690   5.843  18.263  10.703 -0.3592  0.0038  0.2865
 1360PEP     CB50691   6.125  18.063  10.517  0.1418  0.0995 -0.0710
 1360PEP     CB50692   6.462  18.152  10.242 -0.0676 -0.2756 -0.1411
 1360PEP     CB50693   6.744  18.416  10.171 -0.3753 -0.1913  0.3100
 1360PEP     CB50694   7.090  18.573  10.413  0.0120  0.0026  0.2512
 1360PEP     CB50695   7.302  18.369  10.678  0.2838  0.0604  0.2606
 1360PEP     CB50696   7.293  17.963  10.894 -0.2689  0.1899  0.0514
 1360PEP     CB50697   6.980  17.936  11.278  0.1252 -0.1866  0.3839
 1360PEP     CB50698   6.613  18.115  11.277 -0.0857  0.3363 -0.0033
 1360PEP     CB50699   6.463  18.545  11.302  0.5682 -0.4902 -0.0144
 1360PEP     CB50700   6.038  18.667  11.631 -0.3151  0.0373 -0.0940
 1360PEP     CB50701   5.896  18.326  11.968  0.0850 -0.1595  0.1577
 1360PEP     CB50702   5.981  18.436  12.383 -0.1837  0.4040 -0.1044
 1360PEP     CB50703   6.110  18.901  12.448  0.4838 -0.3195 -0.4336
 1360PEP     CB50704   5.980  19.290  12.361  0.0627 -0.2019  0.0395
 1360PEP     CB50705   5.877  19.734  12.493  0.0654  0.1006 -0.1895
 1360PEP     CB50706   5.678  20.077  12.456  0.1803 -0.0155  0.4630
 1360PEP     CB50707   5.828  20.583  12.368 -0.1792  0.0762  0.3552
 1360PEP     CB50708   5.519  20.952  12.487 -0.3604 -0.1701  0.4848
 1360PEP     CB50709   5.393  21.284  12.725  0.1590 -0.4558  0.1247
 1360PEP     CB50710   5.252  21.505  13.030 -0.1879  0.4778  0.5363
 1360PEP     CB50711   5.184  21.729  13.462 -0.3303  0.6810  0.0434
 1360PEP     CB50712   4.959  22.097  13.621  0.0081 -0.3334 -0.0387
 1360PEP     CB50713   4.806  22.385  13.898  0.1275  0.1569 -0.2501
 1360PEP     CB50714   4.465  22.627  14.164  0.1568  0.0051 -0.0517
 1360PEP     CB50715   4.318  23.067  14.095 -0.1077  0.1720  0.1363
 1360PEP     CB50716   4.396  23.327  13.802 -0.4003 -0.0705 -0.1464
 1360PEP     CB50717   4.480  23.749  13.620  0.0927 -0.1064  0.4114
 1360PEP     CB50718   4.753  24.100  13.457  0.4793  0.1831  0.3454
 1360PEP     CB50719   4.741  24.497  13.335  0.2285  0.1888  0.3469
 1360PEP     CB50720   4.401  24.774  13.270 -0.4394  0.1032  0.1476
 1361PEP     CB50721  15.085   3.755   4.372  0.2904  0.1364  0.4296
 1361PEP     CB50722  15.476   3.507   4.339 -0.1908  0.0597  0.1435
 1361PEP     CB50723  15.797   3.291   4.435 -0.2669 -0.1485  0.3707
 1361PEP     CB50724  16.167   2.985   4.402  0.2744 -0.1172  0.0573
 1361PEP     CB50725  16.455   2.900   4.765  0.2222 -0.0048 -0.2003
 1361PEP     CB50726  16.399   2.905   5.157  0.3068  0.3235  0.0404
 1361PEP     CB50727  16.317   2.773   5.516 -0.3179 -0.0886 -0.0137
 1361PEP     CB50728  16.401   2.783   6.005 -0.1066 -0.1394  0.0093
 1361PEP     CB50729  16.712   2.992   6.056 -0.1345 -0.2826  0.0511
 1361PEP     CB50730  17.035   2.764   5.805  0.4859  0.5299 -0.2598
 1361PEP     CB50731  17.051   2.424   5.668  0.0466  0.0389 -0.0975
 1361PEP     CB50732  17.003   1.975   5.936  0.2042  0.0301 -0.1545
 1361PEP     CB50733  17.051   1.926   6.301  0.0473 -0.2396 -0.1537
 1361PEP     CB50734  17.044   2.231   6.762 -0.5568  0.2562  0.1283
 1361PEP     CB50735  17.233   2.553   6.900  0.0926  0.0842  0.1284
 1361PEP     CB50736  17.583   2.535   7.165  0.4312 -0.5522 -0.2057
 1361PEP     CB50737  18.007   2.467   7.312  0.2473 -0.3411 -0.1048
 1361PEP     CB50738  18.122   2.212   7.621  0.0863 -0.0143  0.1436
 1361PEP     CB50739  17.889   2.205   8.126 -0.0104  0.2096  0.1968
 1361PEP     CB50740  17.893   2.361   8.511 -0.4675 -0.1936  0.3744
 1361PEP     CB50741  18.060   2.515   8.856  0.2471 -0.0930  0.3326
 1361PEP     CB50742  18.092   2.431   9.297  0.2187  0.7151  0.3950
 1361PEP     CB50743  18.078   2.243   9.713  0.2015 -0.2910 -0.1864
 1361PEP     CB50744  18.007   1.872  10.109  0.2732  0.1057  0.1384
 1361PEP     CB50745  18.059   1.459  10.000 -0.1568  0.0403  0.1433
 1361PEP     CB50746  18.452   1.372   9.774 -0.2273  0.2624  0.3692
 1361PEP     CB50747  18.769   1.205   9.621 -0.0539 -0.3117 -0.2311
 1361PEP     CB50748  19.250   1.339   9.501 -0.1140 -0.1690  0.0413
 1361PEP     CB50749  19.624   1.580   9.432 -0.0644 -0.0254  0.0340
 1361PEP     CB50750  19.873   1.852   9.338 -0.1034  0.0464 -0.0157
 1361PEP     CB50751  20.101   2.200   9.520  0.0245 -0.1195 -0.1000
 1361PEP     CB50752  20.338   2.519   9.473 -0.2790 -0.3523 -0.1934
 1361PEP     CB50753  20.703   2.551   9.798 -0.0988 -0.1194  0.0847
 1361PEP     CB50754  20.910   2.229  10.115 -0.3832  0.1017 -0.2236
 1361PEP     CB50755  20.804   2.071  10.600 -0.4055 -0.0659 -0.0525
 1361PEP     CB50756  20.913   2.331  11.019  0.2288  0.0934 -0.0323
 1361PEP     CB50757  21.251   2.721  11.062  0.1648  0.1696 -0.3796
 1361PEP     CB50758  21.556   2.923  10.829  0.2092 -0.0076 -0.1458
 1361PEP     CB50759  21.705   3.094  10.414 -0.3211 -0.0073  0.0302
 1361PEP     CB50760  21.729   3.366  10.061 -0.0394  0.0421 -0.3980
 1362PEP     CB50761   3.571   6.355   7.342  0.5621  0.0744  0.0494
 1362PEP     CB50762   3.611   5.930   7.270 -0.1944  0.2574 -0.1090
 1362PEP     CB50763   3.489   5.561   7.466  0.0159  0.0819 -0.2153
 1362PEP     CB50764   3.268   5.541   7.771 -0.1427 -0.1646  0.1155
 1362PEP     CB50765   2.821   5.507   7.808  0.1245  0.0797  0.0020
 1362PEP     CB50766   2.422   5.421   7.877  0.2112 -0.2935  0.5103
 1362PEP     CB50767   2.085   5.175   7.786 -0.2085 -0.5822  0.0462
 1362PEP     CB50768   1.912   4.819   7.754  0.1751 -0.3766 -0.2362
 1362PEP     CB50769   1.741   4.381   7.793 -0.2216  0.2508  0.0120
 1362PEP     CB50770   1.578   4.087   8.044  0.2198 -0.1322 -0.1337
 1362PEP     CB50771   1.676   3.832   8.319 -0.3798 -0.2035  0.0082
 1362PEP     CB50772   2.156   3.872   8.526 -0.1144  0.3042  0.0538
 1362PEP     CB50773   2.479   4.044   8.373  0.4410  0.1881 -0.3472
 1362PEP     CB50774   2.654   4.346   8.129 -0.3148  0.0071 -0.0758
 1362PEP     CB50775   2.828   4.628   7.825  0.3268 -0.5058 -0.0603
 1362PEP     CB50776   3.037   4.756   7.312  0.1228 -0.1692  0.1505
 1362PEP     CB50777   3.322   4.768   7.146  0.1798  0.1362  0.1588
 1362PEP     CB50778   3.763   4.889   7.192 -0.1464  0.3691 -0.2789
 1362PEP     CB50779   4.137   4.929   7.424  0.0774 -0.1782 -0.0094
 1362PEP     CB50780   4.544   4.985   7.752 -0.0265 -0.0696 -0.2351
 1362PEP     CB50781   4.872   5.192   7.942 -0.1143 -0.0954  0.0481
 1362PEP     CB50782   5.089   5.624   7.878  0.4728  0.1355  0.1906
 1362PEP     CB50783   5.215   5.951   7.572 -0.0985 -0.1413 -0.1764
 1362PEP     CB50784   5.069   6.184   7.196  0.0590 -0.1853  0.0010
 1362PEP     CB50785   4.772   6.132   6.803 -0.0784  0.0383 -0.0740
 1362PEP     CB50786   4.632   6.181   6.432  0.1791 -0.0053  0.0547
 1362PEP     CB50787   4.434   6.000   6.204  0.1491 -0.0963 -0.0157
 1362PEP     CB50788   4.284   5.644   5.901  0.0780 -0.1172  0.1777
 1362PEP     CB50789   4.269   5.255   5.655  0.0582 -0.2994  0.1677
 1362PEP     CB50790   4.578   5.079   5.256  0.1416  0.0302 -0.2745
 1362PEP     CB50791   4.989   5.245   5.081  0.2233  0.3062 -0.3971
 1362PEP     CB50792   5.216   5.521   5.242  0.0609  0.1116  0.1344
 1362PEP     CB50793   5.257   5.896   5.362  0.0736 -0.0303 -0.0221
 1362PEP     CB50794   5.412   6.204   5.563  0.0303  0.1606 -0.1626
 1362PEP     CB50795   5.835   6.144   5.616 -0.0891  0.1858 -0.1397
 1362PEP     CB50796   6.107   5.828   5.628 -0.2546 -0.0787  0.1990
 1362PEP     CB50797   6.235   5.381   5.497  0.0579 -0.0499 -0.4799
 1362PEP     CB50798   6.423   5.046   5.786 -0.0245 -0.0725 -0.3064
 1362PEP     CB50799   6.329   5.016   6.260 -0.3003  0.0311 -0.1991
 1362PEP     CB50800   6.053   5.150   6.400 -0.0373 -0.1404  0.2219
 1363PEP     CB50801   0.903   8.420   0.147 -0.1714  0.1651 -0.0853
 1363PEP     CB50802   0.637   8.447  -0.170 -0.2197  0.3317  0.0083
 1363PEP     CB50803   0.573   8.601  -0.491  0.2206 -0.1068  0.0159
 1363PEP     CB50804   0.551   8.978  -0.770  0.1111 -0.1198  0.3094
 1363PEP     CB50805   0.410   9.315  -0.939  0.0968 -0.2065  0.2334
 1363PEP     CB50806   0.604   9.655  -1.231  0.1441 -0.2636  0.0562
 1363PEP     CB50807   0.994   9.726  -1.414 -0.1953  0.3213 -0.2546
 1363PEP     CB50808   1.357   9.539  -1.268 -0.3268  0.1684 -0.4170
 1363PEP     CB50809   1.505   9.262  -0.979 -0.1385 -0.0056 -0.4100
 1363PEP     CB50810   1.283   8.992  -0.752  0.4450 -0.0642 -0.3990
 1363PEP     CB50811   0.897   9.126  -0.453  0.2635  0.1905  0.1064
 1363PEP     CB50812   0.658   9.485  -0.395  0.1694 -0.5175  0.3927
 1363PEP     CB50813   0.880   9.935  -0.251  0.2805  0.0951  0.0110
 1363PEP     CB50814   0.696  10.325  -0.362  0.0443 -0.1298 -0.0662
 1363PEP     CB50815   0.413  10.634  -0.527  0.1492 -0.3574 -0.1608
 1363PEP     CB50816   0.022  10.723  -0.676  0.3313 -0.1013  0.1764
 1363PEP     CB50817  -0.330  10.993  -0.837  0.2675 -0.3625  0.2191
 1363PEP     CB50818  -0.431  11.463  -0.938  0.1877  0.0318  0.0462
 1363PEP     CB50819  -0.337  11.889  -1.142 -0.0933  0.1075 -0.0832
 1363PEP     CB50820  -0.074  12.015  -1.582  0.4878  0.1768 -0.0580
 1363PEP     CB50821   0.314  12.185  -1.805  0.2723  0.0243 -0.3023
 1363PEP     CB50822   0.340  12.406  -2.172 -0.1673  0.2046 -0.0862
 1363PEP     CB50823   0.328  12.726  -2.374  0.1479  0.1793 -0.1714
 1363PEP     CB50824   0.065  12.927  -2.725 -0.1273  0.2013 -0.1889
 1363PEP     CB50825  -0.310  13.128  -2.744 -0.2811 -0.0709 -0.1032
 1363PEP     CB50826  -0.761  13.026  -2.594  0.0425  0.0596 -0.1147
 1363PEP     CB50827  -1.043  12.919  -2.259 -0.0608 -0.0590 -0.0981
 1363PEP     CB50828  -0.999  12.650  -1.945  0.1906 -0.1223 -0.1683
 1363PEP     CB50829  -1.111  12.516  -1.501  0.0157 -0.0097  0.2629
 1363PEP     CB50830  -1.030  12.604  -0.996  0.3876  0.3909 -0.4006
 1363PEP     CB50831  -0.859  12.604  -0.725 -0.0198  0.2005 -0.0535
 1363PEP     CB50832  -0.496  12.367  -0.605  0.3535 -0.1524  0.1595
 1363PEP     CB50833  -0.304  12.279  -0.262 -0.3682  0.1596 -0.5279
 1363PEP     CB50834  -0.210  11.925  -0.063 -0.0320  0.2366  0.1694
 1363PEP     CB50835  -0.154  11.462   0.083  0.5225 -0.4297 -0.1813
 1363PEP     CB50836  -0.092  10.994   0.120 -0.0519  0.0269  0.4633
 1363PEP     CB50837  -0.279  10.606   0.142  0.1159 -0.0357 -0.2456
 1363PEP     CB50838  -0.682  10.306   0.137  0.3877  0.0040 -0.0167
 1363PEP     CB50839  -1.053  10.072   0.232 -0.0916 -0.3451 -0.4617
 1363PEP     CB50840  -1.130   9.743   0.446  0.1416  0.1538 -0.2371
 1364PEP     CB50841  20.330   1.916   0.766  0.1770  0.1792  0.0632
 1364PEP     CB50842  19.931   1.846   1.026  0.0927 -0.1573 -0.1938
 1364PEP     CB50843  19.498   1.921   1.073  0.4064 -0.1588 -0.0531
 1364PEP     CB50844  19.040   1.955   1.106 -0.1265 -0.0871 -0.5330
 1364PEP     CB50845  18.745   2.238   1.209  0.1987  0.2142  0.5733
 1364PEP     CB50846  18.560   2.526   1.490 -0.3038  0.1129 -0.0655
 1364PEP     CB50847  18.373   2.678   1.917  0.1242  0.0320  0.2775
 1364PEP     CB50848  18.110   2.531   2.274 -0.0397  0.4105 -0.0632
 1364PEP     CB50849  18.115   2.442   2.704 -0.0905 -0.0118  0.3696
 1364PEP     CB50850  18.002   2.637   3.129  0.0009 -0.2807 -0.0943
 1364PEP     CB50851  17.623   2.762   3.424 -0.3451 -0.2414  0.1739
 1364PEP     CB50852  17.309   2.848   3.611 -0.0597 -0.3293 -0.1680
 1364PEP     CB50853  16.893   2.982   3.586  0.0785 -0.1924 -0.0907
 1364PEP     CB50854  16.583   2.854   3.748 -0.4275 -0.0738  0.0753
 1364PEP     CB50855  16.349   3.096   3.935 -0.2483  0.4986  0.4245
 1364PEP     CB50856  15.964   3.305   3.998  0.1720  0.0171 -0.2331
 1364PEP     CB50857  15.806   3.724   4.050  0.4391 -0.2911 -0.0340
 1364PEP     CB50858  15.793   4.228   4.085  0.0883  0.4031  0.0848
 1364PEP     CB50859  15.718   4.656   4.222 -0.1434 -0.0181  0.0760
 1364PEP     CB50860  15.634   5.054   4.158 -0.0472 -0.1971  0.4639
 1364PEP     CB50861  15.628   5.556   4.145  0.2019 -0.1265 -0.1152
 1364PEP     CB50862  15.575   5.793   4.445  0.3422 -0.0021 -0.2778
 1364PEP     CB50863  15.636   5.759   4.854  0.0530  0.4113 -0.0386
 1364PEP     CB50864  15.871   5.493   5.069 -0.4826  0.0430 -0.0559
 1364PEP     CB50865  15.887   5.268   5.452  0.1869  0.0485  0.1191
 1364PEP     CB50866  15.994   4.846   5.647  0.1679  0.0660  0.0069
 1364PEP     CB50867  16.204   4.516   5.761 -0.1214 -0.3099  0.0579
 1364PEP     CB50868  15.968   4.075   5.946 -0.1739  0.3858  0.1394
 1364PEP     CB50869  15.853   3.711   6.136 -0.1539  0.2348  0.1858
 1364PEP     CB50870  15.480   3.619   6.317 -0.6032  0.1378  0.0817
 1364PEP     CB50871  14.984   3.863   6.198  0.2176 -0.1598  0.0287
 1364PEP     CB50872  14.593   4.062   6.060 -0.2828 -0.1789 -0.1770
 1364PEP     CB50873  14.160   4.206   6.032 -0.0819  0.0410 -0.0344
 1364PEP     CB50874  13.809   4.467   6.174  0.1801  0.2443  0.4933
 1364PEP     CB50875  13.636   4.901   6.265  0.2297 -0.2901 -0.0623
 1364PEP     CB50876  13.817   5.239   6.299 -0.0676 -0.0899 -0.1132
 1364PEP     CB50877  14.123   5.487   5.980  0.2792 -0.0050  0.0617
 1364PEP     CB50878  14.287   5.835   5.738 -0.1240  0.2750  0.1557
 1364PEP     CB50879  14.524   6.117   5.515  0.0757 -0.1262 -0.1365
 1364PEP     CB50880  14.779   6.514   5.254  0.0300  0.2982  0.2709
 1365PEP     CB50881   7.299   5.216  19.925 -0.5114  0.1002 -0.1065
 1365PEP     CB50882   6.944   4.950  19.868  0.0719  0.0135  0.4485
 1365PEP     CB50883   6.543   4.935  19.794  0.0491  0.0645 -0.0733
 1365PEP     CB50884   6.100   4.834  19.896 -0.0985  0.1974  0.0898
 1365PEP     CB50885   5.740   4.770  19.900  0.1776 -0.1802  0.1427
 1365PEP     CB50886   5.422   4.639  20.144 -0.4648  0.3127 -0.0037
 1365PEP     CB50887   5.330   4.341  20.560  0.2148  0.0346  0.1675
 1365PEP     CB50888   5.493   4.365  20.847  0.0421 -0.1451 -0.1479
 1365PEP     CB50889   5.847   4.386  21.106 -0.1648  0.0464  0.7466
 1365PEP     CB50890   6.126   4.521  21.516  0.6305  0.0869 -0.2335
 1365PEP     CB50891   6.365   4.628  21.894  0.2151 -0.1580  0.0244
 1365PEP     CB50892   6.567   5.023  22.104  0.0640 -0.1980  0.0879
 1365PEP     CB50893   6.595   5.504  21.849 -0.3291  0.3135 -0.1392
 1365PEP     CB50894   6.459   5.517  21.463 -0.0277  0.0160 -0.0564
 1365PEP     CB50895   6.206   5.712  21.292  0.2252 -0.0013 -0.1390
 1365PEP     CB50896   5.863   5.606  21.120  0.2006 -0.1040 -0.0996
 1365PEP     CB50897   5.448   5.557  21.055  0.1991  0.0314 -0.0245
 1365PEP     CB50898   5.064   5.308  20.910  0.0217  0.0958 -0.1799
 1365PEP     CB50899   4.691   5.214  21.120 -0.3713  0.1607  0.0753
 1365PEP     CB50900   4.676   4.961  21.595  0.2824  0.5437 -0.0916
 1365PEP     CB50901   5.036   4.735  21.820 -0.0159 -0.2348 -0.3097
 1365PEP     CB50902   5.335   4.583  22.011 -0.0552  0.0927 -0.1633
 1365PEP     CB50903   5.483   4.192  22.191 -0.0338  0.0602  0.2199
 1365PEP     CB50904   5.755   3.827  22.301  0.2816  0.2102 -0.0224
 1365PEP     CB50905   6.047   3.458  22.290 -0.0065  0.1540  0.5112
 1365PEP     CB50906   6.221   3.045  22.196 -0.1981  0.1906  0.1778
 1365PEP     CB50907   6.167   2.725  21.903  0.0387 -0.0529  0.0575
 1365PEP     CB50908   6.130   2.300  21.808 -0.1198  0.0708  0.0053
 1365PEP     CB50909   5.925   1.879  21.900 -0.2919 -0.1131 -0.1985
 1365PEP     CB50910   5.666   1.761  22.229  0.0675  0.0902  0.1249
 1365PEP     CB50911   5.627   1.948  22.664 -0.3146 -0.0401 -0.0988
 1365PEP     CB50912   5.830   1.896  23.018  0.2517  0.2437 -0.2804
 1365PEP     CB50913   6.132   1.905  23.420  0.2178 -0.0446 -0.3360
 1365PEP     CB50914   6.218   1.745  23.883  0.2776  0.0461 -0.1457
 1365PEP     CB50915   6.010   1.470  24.267 -0.0687 -0.1479  0.4807
 1365PEP     CB50916   5.883   1.110  24.475  0.0213 -0.2146  0.3519
 1365PEP     CB50917   6.038   0.665  24.543  0.2340  0.1578  0.1831
 1365PEP     CB50918   5.805   0.200  24.388  0.1231 -0.0621  0.0663
 1365PEP     CB50919   5.376   0.141  24.396  0.3170  0.2629  0.1278
 1365PEP     CB50920   4.990   0.410  24.447  0.1345 -0.1046  0.2077
 1366PEP     CB50921   6.949  18.003   7.609 -0.1567  0.0358  0.0883
 1366PEP     CB50922   7.303  18.241   7.373 -0.5186  0.1426 -0.1215
 1366PEP     CB50923   7.702  18.385   7.246  0.0471  0.1235  0.2217
 1366PEP     CB50924   8.135  18.282   7.286 -0.0823 -0.2175  0.1611
 1366PEP     CB50925   8.221  17.857   7.540  0.0082  0.2211 -0.2617
 1366PEP     CB50926   8.161  17.613   7.977  0.1631  0.0653  0.0046
 1366PEP     CB50927   7.907  17.302   8.206 -0.1989 -0.0300  0.1996
 1366PEP     CB50928   7.627  17.278   8.557  0.0258  0.2221 -0.2869
 1366PEP     CB50929   7.326  17.573   8.637  0.4703  0.4716  0.0411
 1366PEP     CB50930   6.924  17.837   8.386  0.1122 -0.1188 -0.2438
 1366PEP     CB50931   6.745  18.194   8.369  0.2504  0.2547  0.0393
 1366PEP     CB50932   6.284  18.380   8.478 -0.3458  0.1126  0.1040
 1366PEP     CB50933   6.050  18.248   8.824  0.6515  0.0831 -0.2456
 1366PEP     CB50934   5.639  17.927   8.951 -0.2632  0.0331  0.0719
 1366PEP     CB50935   5.286  17.815   8.912  0.0475  0.1970 -0.0151
 1366PEP     CB50936   4.837  17.889   8.807 -0.0642  0.0671 -0.2071
 1366PEP     CB50937   4.586  18.327   8.765 -0.1585 -0.3072  0.2190
 1366PEP     CB50938   4.727  18.757   8.794  0.1036  0.3746 -0.1163
 1366PEP     CB50939   5.168  18.861   8.869 -0.3020 -0.0511  0.0421
 1366PEP     CB50940   5.457  19.066   8.928  0.0677  0.2178  0.3470
 1366PEP     CB50941   5.848  19.219   9.172  0.1909  0.1434  0.1898
 1366PEP     CB50942   6.298  19.318   9.373  0.1085 -0.0698 -0.2331
 1366PEP     CB50943   6.577  19.593   9.572 -0.0123  0.1630  0.2759
 1366PEP     CB50944   6.621  19.758  10.039 -0.0206 -0.0726 -0.0613
 1366PEP     CB50945   6.305  19.755  10.409 -0.0736  0.3904  0.4022
 1366PEP     CB50946   6.391  20.101  10.753  0.1367  0.2967  0.2401
 1366PEP     CB50947   6.621  20.398  10.544  0.0145 -0.1238 -0.0502
 1366PEP     CB50948   7.024  20.664  10.643  0.0931  0.1793  0.2704
 1366PEP     CB50949   7.449  20.739  10.411  0.7253  0.4513  0.2737
 1366PEP     CB50950   7.336  21.047  10.088 -0.4595 -0.0908 -0.2561
 1366PEP     CB50951   6.938  21.037   9.931 -0.2023 -0.3608  0.0401
 1366PEP     CB50952   6.659  20.706  10.082  0.1681 -0.0347  0.2997
 1366PEP     CB50953   6.785  20.208  10.069 -0.2199 -0.0755  0.0199
 1366PEP     CB50954   7.110  19.877  10.197 -0.3042  0.4109 -0.2443
 1366PEP     CB50955   7.665  19.785  10.071 -0.1038 -0.0487 -0.0173
 1366PEP     CB50956   7.901  19.933   9.691  0.1770  0.1322 -0.0132
 1366PEP     CB50957   7.844  19.707   9.248 -0.3002 -0.0793 -0.1598
 1366PEP     CB50958   7.723  19.587   8.955  0.0639 -0.3104  0.3047
 1366PEP     CB50959   7.274  19.475   8.760 -0.1395  0.1966  0.0099
 1366PEP     CB50960   7.029  19.419   8.383 -0.1500  0.5304 -0.0495
 1367PEP     CB50961   6.015  16.992  21.939  0.0923 -0.0187  0.0820
 1367PEP     CB50962   5.948  16.614  21.941 -0.0924  0.4573  0.0419
 1367PEP     CB50963   5.582  16.341  21.874  0.0346  0.0691 -0.6011
 1367PEP     CB50964   5.404  16.154  21.548 -0.0207  0.0368  0.0304
 1367PEP     CB50965   5.533  16.421  21.086  0.1008 -0.0363 -0.3545
 1367PEP     CB50966   5.514  16.780  21.053  0.0707  0.1410 -0.1817
 1367PEP     CB50967   5.367  17.172  21.395  0.0806 -0.2547 -0.0486
 1367PEP     CB50968   5.018  17.021  21.819  0.0361  0.1380  0.2559
 1367PEP     CB50969   4.810  16.623  21.794 -0.2430 -0.1671  0.0891
 1367PEP     CB50970   4.653  16.197  21.535  0.2978 -0.2461  0.1121
 1367PEP     CB50971   4.386  15.903  21.411  0.0259  0.1202 -0.1429
 1367PEP     CB50972   4.268  15.920  21.051 -0.0011 -0.4214 -0.3713
 1367PEP     CB50973   4.288  15.535  20.675  0.2179  0.1026  0.1940
 1367PEP     CB50974   4.708  15.335  20.444  0.1826 -0.2831  0.1241
 1367PEP     CB50975   5.015  15.439  20.195  0.2816 -0.1362  0.3466
 1367PEP     CB50976   5.165  15.608  19.714 -0.3725 -0.4320 -0.2068
 1367PEP     CB50977   4.787  15.738  19.385  0.0146 -0.2139  0.1918
 1367PEP     CB50978   4.474  15.951  19.538  0.0461 -0.0233 -0.2472
 1367PEP     CB50979   4.315  16.057  19.951 -0.1076  0.3295  0.3375
 1367PEP     CB50980   4.570  16.077  20.372  0.0052 -0.0813 -0.3226
 1367PEP     CB50981   4.745  15.960  20.833 -0.1613 -0.5219 -0.0604
 1367PEP     CB50982   4.973  15.869  21.190  0.2434 -0.3739  0.0332
 1367PEP     CB50983   5.275  15.665  21.412  0.3223  0.2531 -0.3393
 1367PEP     CB50984   5.354  15.238  21.622 -0.1236  0.3660 -0.3761
 1367PEP     CB50985   5.350  14.819  21.753  0.2422  0.0067  0.1349
 1367PEP     CB50986   5.637  14.474  21.799 -0.1982 -0.1471  0.0465
 1367PEP     CB50987   5.974  14.311  21.459 -0.0018 -0.2681 -0.1907
 1367PEP     CB50988   6.457  14.247  21.310 -0.2199 -0.1779 -0.3037
 1367PEP     CB50989   6.853  14.157  21.447  0.2602 -0.1961 -0.0673
 1367PEP     CB50990   6.857  13.803  21.747  0.0388 -0.4025  0.0497
 1367PEP     CB50991   6.457  13.734  21.864 -0.0749  0.2195 -0.1695
 1367PEP     CB50992   6.081  13.796  21.691  0.0401  0.0865  0.1516
 1367PEP     CB50993   5.725  13.919  21.634  0.1918  0.3079  0.1374
 1367PEP     CB50994   5.443  14.062  21.987 -0.0177  0.5055  0.1597
 1367PEP     CB50995   5.532  14.451  22.285 -0.2581 -0.3917 -0.1979
 1367PEP     CB50996   5.518  14.786  22.596  0.3743  0.3838  0.1404
 1367PEP     CB50997   5.571  15.216  22.779  0.0073  0.0728  0.3751
 1367PEP     CB50998   5.428  15.606  22.933 -0.1154 -0.2559  0.2508
 1367PEP     CB50999   5.239  15.999  22.999 -0.4629 -0.3107 -0.0245
 1367PEP     CB51000   5.186  16.416  22.993  0.0207 -0.1574 -0.1739
 1368PEP     CB51001  15.008   3.014  17.903 -0.1238  0.0233 -0.1777
 1368PEP     CB51002  14.551   2.907  17.737  0.0789 -0.2911 -0.2232
 1368PEP     CB51003  14.074   2.719  17.944  0.1034  0.0980 -0.0891
 1368PEP     CB51004  13.747   3.005  18.180 -0.0468  0.2385  0.3139
 1368PEP     CB51005  13.814   3.421  18.322  0.1367 -0.0526  0.2509
 1368PEP     CB51006  13.964   3.725  18.687  0.0941 -0.0763 -0.3939
 1368PEP     CB51007  14.087   3.937  19.051  0.2480 -0.1121  0.1559
 1368PEP     CB51008  14.244   4.180  19.365  0.0299 -0.3144 -0.1035
 1368PEP     CB51009  14.596   4.339  19.603  0.2808 -0.1062 -0.1553
 1368PEP     CB51010  14.982   4.517  19.642 -0.5516  0.0190  0.0209
 1368PEP     CB51011  15.373   4.488  19.332 -0.2500 -0.4566  0.1414
 1368PEP     CB51012  15.739   4.288  19.269  0.2678 -0.2273  0.2543
 1368PEP     CB51013  16.078   4.385  19.032  0.0574  0.0047 -0.1209
 1368PEP     CB51014  16.129   4.369  18.545 -0.0073 -0.1703 -0.1362
 1368PEP     CB51015  15.871   4.292  18.119 -0.2182  0.3510  0.2233
 1368PEP     CB51016  15.689   4.458  17.648  0.0694 -0.1733 -0.4662
 1368PEP     CB51017  15.379   4.744  17.407  0.1375  0.2809 -0.2606
 1368PEP     CB51018  15.028   4.966  17.334  0.0049 -0.4342 -0.1266
 1368PEP     CB51019  14.726   4.865  16.947 -0.4264 -0.0570  0.4236
 1368PEP     CB51020  14.869   4.623  16.548 -0.2210 -0.0080  0.3750
 1368PEP     CB51021  15.090   4.300  16.391  0.1613 -0.0436  0.5169
 1368PEP     CB51022  15.510   4.150  16.386 -0.3232 -0.0879 -0.2180
 1368PEP     CB51023  15.840   4.015  16.690 -0.3305  0.3555  0.1289
 1368PEP     CB51024  16.251   4.176  16.703 -0.1410 -0.0938 -0.0442
 1368PEP     CB51025  16.670   4.168  16.750  0.2227  0.0850 -0.4751
 1368PEP     CB51026  17.071   4.114  16.681  0.0489  0.3549 -0.0413
 1368PEP     CB51027  17.363   4.058  16.248 -0.0950 -0.0624 -0.0695
 1368PEP     CB51028  17.391   4.329  15.982 -0.1186 -0.0786 -0.0558
 1368PEP     CB51029  17.547   4.652  15.976 -0.1396 -0.1624 -0.2004
 1368PEP     CB51030  17.697   5.047  15.767  0.0118  0.0472 -0.0721
 1368PEP     CB51031  17.786   5.354  15.542  0.1709 -0.3842 -0.1918
 1368PEP     CB51032  17.845   5.777  15.413 -0.1683 -0.2750 -0.2009
 1368PEP     CB51033  17.900   6.192  15.390 -0.2827 -0.0280  0.1949
 1368PEP     CB51034  17.771   6.561  15.312 -0.2361  0.3069 -0.0851
 1368PEP     CB51035  17.607   6.989  15.205 -0.4503 -0.4983 -0.4708
 1368PEP     CB51036  17.294   7.054  14.942  0.3290 -0.3818  0.3131
 1368PEP     CB51037  16.835   6.881  14.881  0.4193 -0.2766  0.0628
 1368PEP     CB51038  16.620   6.562  14.641  0.1804  0.1977 -0.2775
 1368PEP     CB51039  16.403   6.165  14.469 -0.0505  0.3974 -0.0166
 1368PEP     CB51040  16.495   5.809  14.396  0.0170 -0.3301 -0.2253
 1369PEP     CB51041   0.651   9.766  19.704  0.0375  0.1743  0.0750
 1369PEP     CB51042   0.845  10.058  20.040 -0.1989 -0.2032  0.1938
 1369PEP     CB51043   1.102  10.136  20.391  0.2821  0.2959  0.0651
 1369PEP     CB51044   1.499  10.049  20.658  0.4898  0.1370  0.1271
 1369PEP     CB51045   1.690  10.080  20.990  0.0033 -0.0267 -0.2066
 1369PEP     CB51046   2.166  10.129  21.155  0.1180  0.0180 -0.1072
 1369PEP     CB51047   2.481  10.233  21.396  0.2755 -0.0947  0.3090
 1369PEP     CB51048   2.558  10.184  21.883  0.6368 -0.0493 -0.2403
 1369PEP     CB51049   2.652  10.293  22.305  0.1953 -0.2305 -0.4047
 1369PEP     CB51050   2.780  10.077  22.607  0.0408 -0.3504  0.1354
 1369PEP     CB51051   2.600   9.932  22.967  0.1532  0.1954  0.0211
 1369PEP     CB51052   2.267   9.751  23.161 -0.2583 -0.0188  0.2282
 1369PEP     CB51053   1.821   9.825  23.360 -0.1662  0.0337 -0.1282
 1369PEP     CB51054   1.463  10.117  23.426 -0.0188 -0.2684  0.0786
 1369PEP     CB51055   1.419  10.504  23.701 -0.2508 -0.5741 -0.0393
 1369PEP     CB51056   1.778  10.819  23.811 -0.5244  0.3817  0.1120
 1369PEP     CB51057   2.223  10.877  23.735 -0.0807 -0.0402  0.3527
 1369PEP     CB51058   2.676  10.694  23.795  0.1792 -0.0376 -0.0453
 1369PEP     CB51059   3.147  10.812  23.686  0.1169  0.0990  0.0498
 1369PEP     CB51060   3.324  11.178  23.784  0.1151  0.0203  0.0387
 1369PEP     CB51061   3.154  11.613  23.781 -0.0398 -0.2433  0.2052
 1369PEP     CB51062   3.117  12.063  23.705  0.2365 -0.2704  0.3167
 1369PEP     CB51063   3.269  12.410  23.467 -0.7440  0.0496 -0.0546
 1369PEP     CB51064   3.399  12.768  23.144  0.1438  0.4222 -0.2102
 1369PEP     CB51065   3.125  12.927  23.000 -0.2696 -0.0325 -0.4265
 1369PEP     CB51066   2.784  13.084  23.187  0.0522  0.2954 -0.0235
 1369PEP     CB51067   2.490  13.354  23.318 -0.1076 -0.0097 -0.2600
 1369PEP     CB51068   2.242  13.745  23.483 -0.0984  0.0649 -0.1324
 1369PEP     CB51069   2.014  14.174  23.708  0.2735  0.4173 -0.1006
 1369PEP     CB51070   1.975  14.535  23.582 -0.1609  0.2092  0.0053
 1369PEP     CB51071   1.789  14.486  23.159  0.0294 -0.3990  0.2545
 1369PEP     CB51072   1.510  14.099  22.986 -0.5043  0.0648 -0.0479
 1369PEP     CB51073   1.375  13.677  23.172 -0.3778 -0.1293 -0.2822
 1369PEP     CB51074   1.318  13.519  23.545  0.1936  0.3309  0.1281
 1369PEP     CB51075   1.124  13.533  23.922 -0.1645 -0.0620 -0.3650
 1369PEP     CB51076   0.779  13.976  24.043  0.1733 -0.3066  0.0957
 1369PEP     CB51077   0.499  14.278  23.777 -0.2414 -0.1862 -0.1199
 1369PEP     CB51078   0.510  14.496  23.357 -0.4046 -0.1425 -0.2049
 1369PEP     CB51079   0.413  14.604  22.959  0.2857 -0.0084  0.0362
 1369PEP     CB51080   0.360  14.592  22.448 -0.2058 -0.3158 -0.3091
 1370PEP     CB51081   7.127   1.967  15.977 -0.3890  0.0692  0.1789
 1370PEP     CB51082   6.863   1.579  15.947  0.2853 -0.3710  0.0394
 1370PEP     CB51083   6.608   1.319  15.580 -0.0622 -0.2358 -0.1054
 1370PEP     CB51084   6.413   1.446  15.212 -0.5018 -0.7705  0.5719
 1370PEP     CB51085   6.069   1.719  15.238 -0.0616 -0.0296 -0.2458
 1370PEP     CB51086   5.792   1.774  15.597 -0.2217 -0.1374  0.1697
 1370PEP     CB51087   5.716   1.519  15.985 -0.0522  0.0697  0.0080
 1370PEP     CB51088   5.449   1.148  16.257  0.1353  0.0598  0.1422
 1370PEP     CB51089   5.391   0.768  16.418  0.3731  0.4246 -0.0350
 1370PEP     CB51090   5.036   0.579  16.591 -0.0995 -0.2236 -0.1187
 1370PEP     CB51091   4.914   0.192  16.652 -0.1856 -0.1651  0.4341
 1370PEP     CB51092   4.671  -0.136  16.482 -0.2585 -0.4576 -0.1132
 1370PEP     CB51093   4.616  -0.572  16.307 -0.1162 -0.1038 -0.8657
 1370PEP     CB51094   4.455  -0.873  16.361  0.0429  0.0597 -0.2391
 1370PEP     CB51095   4.579  -1.259  16.396 -0.0928 -0.1266 -0.1196
 1370PEP     CB51096   4.687  -1.526  16.042 -0.1365  0.1829  0.0506
 1370PEP     CB51097   4.870  -1.610  15.701 -0.0159  0.1785  0.2837
 1370PEP     CB51098   5.141  -1.700  15.378 -0.2336 -0.0513  0.0347
 1370PEP     CB51099   5.547  -1.614  15.320 -0.0326 -0.2108 -0.0351
 1370PEP     CB51100   5.998  -1.687  15.368  0.0894 -0.0427 -0.1853
 1370PEP     CB51101   6.405  -1.883  15.170 -0.0566 -0.1739  0.0761
 1370PEP     CB51102   6.683  -1.766  14.841 -0.2330 -0.2320  0.0545
 1370PEP     CB51103   6.814  -1.369  14.911  0.0981  0.0093  0.2012
 1370PEP     CB51104   6.528  -1.232  15.260 -0.0040  0.0251  0.0404
 1370PEP     CB51105   6.534  -1.445  15.553 -0.0115 -0.2884  0.2093
 1370PEP     CB51106   6.747  -1.750  15.515 -0.1167  0.1223  0.2563
 1370PEP     CB51107   7.137  -1.581  15.168  0.4330 -0.2751 -0.0939
 1370PEP     CB51108   7.303  -1.228  14.946 -0.1207 -0.0754 -0.2603
 1370PEP     CB51109   7.458  -0.842  14.990 -0.2143  0.2397 -0.2820
 1370PEP     CB51110   7.402  -0.539  15.390 -0.1979  0.2606 -0.1308
 1370PEP     CB51111   7.489  -0.387  15.732  0.0313  0.0592  0.0457
 1370PEP     CB51112   7.327  -0.394  16.105  0.0368  0.0098 -0.1748
 1370PEP     CB51113   7.344  -0.267  16.494  0.0357  0.3289 -0.3740
 1370PEP     CB51114   7.576   0.090  16.713  0.2621  0.1490 -0.1827
 1370PEP     CB51115   7.979   0.358  16.520 -0.0335  0.2408 -0.2343
 1370PEP     CB51116   8.034   0.406  15.991  0.1037 -0.0007 -0.2530
 1370PEP     CB51117   7.913   0.148  15.764 -0.2758 -0.1964 -0.0056
 1370PEP     CB51118   7.922  -0.348  15.903 -0.1661  0.0369  0.3261
 1370PEP     CB51119   8.359  -0.579  15.978  0.1321  0.5865 -0.5411
 1370PEP     CB51120   8.795  -0.512  16.007 -0.1320  0.0024  0.1086
 1371PEP     CB51121  14.859  17.607   1.152  0.0282  0.0988  0.2518
 1371PEP     CB51122  14.377  17.597   1.358  0.1911 -0.2532 -0.1760
 1371PEP     CB51123  14.116  17.324   1.463 -0.2621  0.0857  0.0828
 1371PEP     CB51124  14.163  16.832   1.416 -0.0293  0.1232  0.0678
 1371PEP     CB51125  14.059  16.381   1.166 -0.2110 -0.0990  0.1057
 1371PEP     CB51126  14.144  16.126   0.830 -0.1091  0.0855 -0.0634
 1371PEP     CB51127  14.226  15.878   0.545  0.1021 -0.1258  0.0661
 1371PEP     CB51128  14.367  15.525   0.400  0.0486  0.1384  0.2154
 1371PEP     CB51129  14.608  15.394   0.073 -0.3402 -0.0118 -0.2349
 1371PEP     CB51130  14.579  15.157  -0.358 -0.3418 -0.0022 -0.2318
 1371PEP     CB51131  14.447  14.741  -0.302  0.1908  0.1272  0.2409
 1371PEP     CB51132  14.434  14.508   0.140 -0.0221 -0.0983 -0.0252
 1371PEP     CB51133  14.853  14.386   0.395 -0.1673 -0.0140 -0.0640
 1371PEP     CB51134  15.344  14.313   0.133 -0.3876  0.1359  0.0619
 1371PEP     CB51135  15.800  14.457   0.056  0.0646  0.0345 -0.3578
 1371PEP     CB51136  16.176  14.672   0.068  0.0849 -0.0100  0.0237
 1371PEP     CB51137  16.615  14.519   0.011 -0.4317 -0.0620  0.0400
 1371PEP     CB51138  17.074  14.568  -0.101  0.1444  0.3598 -0.1010
 1371PEP     CB51139  17.336  14.289  -0.204  0.3762 -0.4653 -0.1672
 1371PEP     CB51140  17.377  13.845   0.013 -0.1888 -0.1003  0.4530
 1371PEP     CB51141  17.341  13.490   0.349  0.1625 -0.0150  0.3286
 1371PEP     CB51142  16.985  13.283   0.404 -0.0111 -0.1717  0.1779
 1371PEP     CB51143  16.668  13.136   0.209 -0.1126  0.1809 -0.3274
 1371PEP     CB51144  16.501  13.131  -0.238  0.0895 -0.1151  0.1384
 1371PEP     CB51145  16.693  13.239  -0.590 -0.0362 -0.0827  0.1413
 1371PEP     CB51146  17.116  13.224  -0.649  0.3761 -0.2203 -0.1237
 1371PEP     CB51147  17.474  13.154  -0.392 -0.1772  0.4042  0.2113
 1371PEP     CB51148  17.633  13.209   0.044  0.1808  0.0665  0.0894
 1371PEP     CB51149  17.782  13.506   0.442 -0.1113 -0.1507  0.0734
 1371PEP     CB51150  17.936  13.330   0.884 -0.2228 -0.1357 -0.5325
 1371PEP     CB51151  18.129  13.430   1.181 -0.2576  0.0442  0.0394
 1371PEP     CB51152  18.455  13.742   1.345 -0.0956 -0.1394  0.2307
 1371PEP     CB51153  18.424  14.126   1.627 -0.0326  0.0415 -0.3162
 1371PEP     CB51154  18.013  14.106   1.936  0.1957  0.0333 -0.2341
 1371PEP     CB51155  17.950  13.626   1.911 -0.4127  0.0831 -0.2124
 1371PEP     CB51156  18.238  13.393   1.623 -0.0339 -0.1074  0.1109
 1371PEP     CB51157  18.592  13.284   1.492  0.4945 -0.6881 -0.0713
 1371PEP     CB51158  18.998  13.160   1.788 -0.3600 -0.1623 -0.0229
 1371PEP     CB51159  19.219  13.075   2.185 -0.0010 -0.1833  0.0253
 1371PEP     CB51160  19.331  12.997   2.595  0.0717 -0.1110  0.1328
 1372PEP     CB51161   5.431  12.980   3.914 -0.2458  0.2023  0.2924
 1372PEP     CB51162   5.518  12.606   4.130 -0.2365 -0.0501 -0.1722
 1372PEP     CB51163   5.396  12.669   4.560 -0.4014 -0.2439  0.0716
 1372PEP     CB51164   5.184  13.044   4.732 -0.3971 -0.1207  0.1103
 1372PEP     CB51165   5.229  13.525   4.700  0.0918 -0.2112 -0.4707
 1372PEP     CB51166   5.137  13.846   5.035 -0.0117  0.1427  0.2712
 1372PEP     CB51167   4.823  14.160   5.256  0.1864 -0.2302 -0.0906
 1372PEP     CB51168   4.722  14.252   5.710 -0.0263 -0.4023 -0.0532
 1372PEP     CB51169   4.539  14.247   6.172  0.1758 -0.1402 -0.0878
 1372PEP     CB51170   4.558  13.958   6.613 -0.0822  0.0474  0.2756
 1372PEP     CB51171   4.844  13.661   6.779  0.2853 -0.4477 -0.1308
 1372PEP     CB51172   5.018  13.328   6.441 -0.0921 -0.0346  0.1329
 1372PEP     CB51173   4.892  12.963   6.172 -0.2994  0.2877  0.0554
 1372PEP     CB51174   4.932  12.814   5.709  0.0714  0.3146 -0.1578
 1372PEP     CB51175   5.339  12.614   5.538 -0.1441  0.2175 -0.1650
 1372PEP     CB51176   5.660  12.462   5.866  0.0237 -0.0230  0.1888
 1372PEP     CB51177   5.625  12.183   6.251  0.2622  0.0387  0.2044
 1372PEP     CB51178   5.221  11.952   6.398 -0.0291 -0.1490  0.2047
 1372PEP     CB51179   5.095  11.716   6.773  0.2618 -0.1418  0.2395
 1372PEP     CB51180   4.819  11.362   6.909 -0.2447  0.1717 -0.1215
 1372PEP     CB51181   4.508  11.077   6.826 -0.0132  0.1258 -0.1472
 1372PEP     CB51182   4.129  10.916   6.879  0.2631 -0.1898  0.1440
 1372PEP     CB51183   3.910  10.458   6.850  0.2681 -0.0822 -0.0608
 1372PEP     CB51184   3.724  10.203   6.486  0.0473  0.0237  0.3125
 1372PEP     CB51185   3.931  10.000   6.140  0.0865  0.1788  0.1042
 1372PEP     CB51186   4.176   9.704   5.897  0.0061  0.1750  0.0514
 1372PEP     CB51187   4.587   9.722   5.803  0.0522 -0.1788 -0.1150
 1372PEP     CB51188   4.972   9.692   6.022 -0.2343 -0.0029 -0.0663
 1372PEP     CB51189   5.143   9.772   6.477  0.4198 -0.0983 -0.0964
 1372PEP     CB51190   5.303   9.612   6.865  0.2054  0.3168 -0.3145
 1372PEP     CB51191   5.426   9.229   7.028  0.0970 -0.1890  0.0924
 1372PEP     CB51192   5.347   8.809   6.762  0.4600 -0.2300 -0.2707
 1372PEP     CB51193   5.432   8.743   6.394 -0.2477  0.1204  0.0171
 1372PEP     CB51194   5.604   8.920   5.972  0.7486 -0.1677  0.1611
 1372PEP     CB51195   5.797   9.262   5.733  0.1712 -0.0645  0.1607
 1372PEP     CB51196   6.015   9.576   5.667  0.0255 -0.1138  0.0320
 1372PEP     CB51197   5.985   9.819   5.224  0.0674  0.2561  0.0957
 1372PEP     CB51198   5.660   9.886   4.915 -0.0359  0.4448 -0.3351
 1372PEP     CB51199   5.349  10.162   4.615  0.0279 -0.2190 -0.0774
 1372PEP     CB51200   5.292  10.583   4.368  0.2091 -0.1218  0.0631
 1373PEP     CB51201   9.637  20.502  18.164 -0.0740  0.2191 -0.1126
 1373PEP     CB51202   9.397  20.869  18.347 -0.3503  0.5714  0.0285
 1373PEP     CB51203   9.034  21.033  18.461 -0.0321  0.1142 -0.2028
 1373PEP     CB51204   8.750  21.080  18.652  0.3028 -0.2477  0.4078
 1373PEP     CB51205   8.313  20.994  18.866 -0.0397  0.1304  0.1249
 1373PEP     CB51206   7.856  20.771  18.767  0.0592 -0.0034  0.1845
 1373PEP     CB51207   7.698  20.343  18.829  0.1871 -0.3030 -0.1333
 1373PEP     CB51208   7.601  20.112  19.191 -0.2749 -0.1438  0.0126
 1373PEP     CB51209   7.630  19.949  19.535 -0.0459  0.0163  0.0105
 1373PEP     CB51210   7.659  20.116  19.896 -0.2338 -0.1577  0.0369
 1373PEP     CB51211   7.859  20.466  20.134 -0.0339 -0.2068 -0.0206
 1373PEP     CB51212   7.813  20.949  20.150  0.0968  0.0852 -0.2927
 1373PEP     CB51213   7.947  21.288  19.960  0.1977  0.1635  0.5756
 1373PEP     CB51214   7.960  21.729  19.794  0.4340  0.1473  0.1250
 1373PEP     CB51215   7.714  22.002  19.703 -0.1933  0.1363  0.1967
 1373PEP     CB51216   7.436  22.194  19.979  0.3346  0.0801 -0.6000
 1373PEP     CB51217   7.240  22.428  20.325  0.2255 -0.0807  0.0466
 1373PEP     CB51218   7.057  22.801  20.449 -0.0611  0.1767 -0.2381
 1373PEP     CB51219   7.029  23.267  20.579 -0.2715  0.1415 -0.1429
 1373PEP     CB51220   7.162  23.592  20.891 -0.1643  0.0698  0.2953
 1373PEP     CB51221   7.417  23.921  21.131  0.4131  0.0789  0.1380
 1373PEP     CB51222   7.268  23.981  21.563  0.2108  0.2930  0.4218
 1373PEP     CB51223   7.045  23.668  21.742 -0.3100 -0.3840  0.1153
 1373PEP     CB51224   6.956  23.206  21.568 -0.1986 -0.1418  0.2269
 1373PEP     CB51225   6.935  23.143  21.089  0.0623 -0.0970  0.1819
 1373PEP     CB51226   6.695  23.485  20.898 -0.0538 -0.0657  0.4708
 1373PEP     CB51227   6.842  23.961  20.952 -0.3047 -0.2707  0.0555
 1373PEP     CB51228   6.928  24.364  21.063  0.2747 -0.2366  0.0855
 1373PEP     CB51229   7.090  24.487  21.501  0.5751 -0.1130  0.0070
 1373PEP     CB51230   7.529  24.494  21.769  0.5496 -0.1686  0.0477
 1373PEP     CB51231   7.964  24.305  21.930 -0.0843 -0.0723  0.0310
 1373PEP     CB51232   8.371  24.134  21.916 -0.0735  0.1426  0.0684
 1373PEP     CB51233   8.588  23.721  21.858 -0.2153 -0.4177 -0.1382
 1373PEP     CB51234   8.341  23.315  21.856  0.1169 -0.0648  0.4432
 1373PEP     CB51235   8.283  22.905  21.924 -0.0957  0.1183 -0.4402
 1373PEP     CB51236   8.033  22.636  21.673  0.0394 -0.0484 -0.0348
 1373PEP     CB51237   7.855  22.225  21.791  0.1357 -0.0745  0.2051
 1373PEP     CB51238   7.981  21.884  21.924 -0.0446 -0.0293  0.2315
 1373PEP     CB51239   7.980  21.581  22.179  0.0065  0.3820 -0.1911
 1373PEP     CB51240   7.913  21.309  22.438 -0.2276  0.0602 -0.0020
 1374PEP     CB51241  10.208   0.666  18.951  0.4107  0.0733  0.3318
 1374PEP     CB51242  10.140   0.767  19.430 -0.2369 -0.0401 -0.0519
 1374PEP     CB51243   9.918   0.741  19.773 -0.1025 -0.2019 -0.1613
 1374PEP     CB51244   9.796   0.897  19.977  0.4098  0.2877 -0.1807
 1374PEP     CB51245   9.831   1.145  20.187 -0.2829  0.0326  0.2162
 1374PEP     CB51246   9.870   1.492  20.469 -0.1075  0.5754 -0.0598
 1374PEP     CB51247  10.175   1.721  20.685  0.6462  0.0668 -0.2586
 1374PEP     CB51248  10.349   1.931  21.051 -0.4828  0.0561  0.5200
 1374PEP     CB51249  10.387   2.253  21.416  0.2822 -0.2803 -0.1692
 1374PEP     CB51250  10.773   2.499  21.608 -0.2350 -0.0697 -0.0867
 1374PEP     CB51251  10.867   2.885  21.724 -0.1848  0.1246  0.0752
 1374PEP     CB51252  10.790   3.178  21.471 -0.2157  0.0477 -0.3873
 1374PEP     CB51253  10.993   3.293  21.080 -0.0150  0.1822  0.0660
 1374PEP     CB51254  11.298   3.103  20.898 -0.0255 -0.0730  0.1525
 1374PEP     CB51255  11.258   2.699  20.797 -0.1879 -0.0190  0.3265
 1374PEP     CB51256  10.924   2.497  20.847 -0.2409 -0.0542 -0.0528
 1374PEP     CB51257  10.452   2.446  20.928  0.0127 -0.1360  0.1858
 1374PEP     CB51258  10.067   2.368  20.903  0.2144  0.1225  0.0954
 1374PEP     CB51259   9.779   2.038  20.860 -0.2389  0.1426  0.2182
 1374PEP     CB51260   9.369   1.839  20.768 -0.2275  0.2906 -0.0512
 1374PEP     CB51261   8.925   1.743  20.695 -0.4312  0.2859  0.2652
 1374PEP     CB51262   8.585   1.325  20.700 -0.1444 -0.2993  0.0974
 1374PEP     CB51263   8.335   0.934  20.681  0.7598 -0.0324 -0.1495
 1374PEP     CB51264   8.062   0.588  20.656 -0.2044 -0.1790  0.1561
 1374PEP     CB51265   8.092   0.138  20.712  0.1043  0.0500 -0.2520
 1374PEP     CB51266   8.264  -0.211  20.793  0.1761  0.0381  0.3957
 1374PEP     CB51267   8.627  -0.352  20.945  0.0611  0.1243  0.0347
 1374PEP     CB51268   8.882  -0.436  21.319 -0.5325  0.1610  0.0309
 1374PEP     CB51269   8.987  -0.662  21.714 -0.2828  0.1095 -0.1208
 1374PEP     CB51270   8.878  -0.799  22.119 -0.1593  0.0587  0.0489
 1374PEP     CB51271   8.884  -0.448  22.457 -0.2512 -0.1159  0.0922
 1374PEP     CB51272   9.019  -0.095  22.756 -0.3320 -0.2017 -0.0292
 1374PEP     CB51273   8.979   0.207  23.184  0.0113  0.1711 -0.0808
 1374PEP     CB51274   9.041   0.236  23.620  0.4217  0.3027  0.1307
 1374PEP     CB51275   9.340   0.280  23.964 -0.2844  0.1940  0.4056
 1374PEP     CB51276   9.481   0.080  24.300 -0.0350 -0.1018 -0.0706
 1374PEP     CB51277   9.732  -0.239  24.545 -0.0916  0.1933 -0.0458
 1374PEP     CB51278  10.068  -0.516  24.696  0.0953  0.1598  0.0935
 1374PEP     CB51279  10.187  -0.789  24.987 -0.3983 -0.4439 -0.0342
 1374PEP     CB51280  10.420  -1.071  25.218 -0.4941  0.3666 -0.3322
 1375PEP     CB51281  12.463  20.479   6.925  0.0124  0.0275  0.0439
 1375PEP     CB51282  12.499  20.945   6.914  0.0502 -0.1872 -0.4242
 1375PEP     CB51283  12.400  21.333   6.695 -0.1814  0.1905  0.0585
 1375PEP     CB51284  12.370  21.412   6.295 -0.1023 -0.2277 -0.3067
 1375PEP     CB51285  12.356  21.008   5.956 -0.2333 -0.1522  0.2456
 1375PEP     CB51286  12.475  20.774   5.685  0.2636 -0.1466  0.0774
 1375PEP     CB51287  12.720  20.481   5.404  0.2580 -0.1598 -0.4176
 1375PEP     CB51288  12.902  20.415   5.094 -0.0258  0.0015  0.0150
 1375PEP     CB51289  12.640  20.305   4.720  0.0555 -0.2192 -0.1929
 1375PEP     CB51290  12.338  20.014   4.621 -0.1693  0.0869  0.1045
 1375PEP     CB51291  12.345  19.584   4.919 -0.0218 -0.2691 -0.1295
 1375PEP     CB51292  12.311  19.348   5.255 -0.1698 -0.4450 -0.2081
 1375PEP     CB51293  12.295  18.873   5.392 -0.0724  0.2780  0.0808
 1375PEP     CB51294  12.032  18.460   5.577  0.0701  0.1491 -0.1268
 1375PEP     CB51295  12.093  18.220   5.943  0.5235 -0.1644 -0.3837
 1375PEP     CB51296  12.205  17.849   6.207 -0.0109  0.2254 -0.0760
 1375PEP     CB51297  12.300  17.663   6.633 -0.2536 -0.0905  0.2750
 1375PEP     CB51298  12.281  17.650   7.169  0.0435  0.0830 -0.3057
 1375PEP     CB51299  12.058  17.828   7.469 -0.1854  0.0341  0.0843
 1375PEP     CB51300  12.002  18.197   7.587 -0.1963 -0.1227 -0.4345
 1375PEP     CB51301  12.219  18.603   7.462 -0.2488  0.0554  0.0402
 1375PEP     CB51302  12.623  18.595   7.333  0.0787 -0.0305  0.0443
 1375PEP     CB51303  12.685  18.201   7.133 -0.1567  0.0621  0.0008
 1375PEP     CB51304  12.752  17.805   6.952 -0.2487 -0.1907  0.3547
 1375PEP     CB51305  12.684  17.393   6.823  0.2117 -0.0445 -0.2032
 1375PEP     CB51306  12.437  17.177   6.969  0.2001  0.2565 -0.1038
 1375PEP     CB51307  12.213  16.791   7.195 -0.3434  0.1125  0.1501
 1375PEP     CB51308  11.758  16.733   7.123 -0.1816  0.1151  0.2461
 1375PEP     CB51309  11.414  16.576   6.949 -0.2279  0.0451 -0.1712
 1375PEP     CB51310  11.025  16.644   6.787  0.1571 -0.3209  0.0817
 1375PEP     CB51311  10.749  16.964   6.680 -0.1894 -0.2865 -0.1457
 1375PEP     CB51312  10.327  17.048   6.959  0.1237 -0.0060  0.0734
 1375PEP     CB51313  10.018  16.743   6.984  0.0320  0.0190 -0.0190
 1375PEP     CB51314  10.017  16.347   6.779 -0.1794  0.0245  0.1979
 1375PEP     CB51315  10.206  16.270   6.365 -0.3519  0.2562  0.0754
 1375PEP     CB51316  10.265  16.455   6.037 -0.1991 -0.1479 -0.3516
 1375PEP     CB51317  10.604  16.421   5.767  0.3024 -0.1242  0.2183
 1375PEP     CB51318  10.924  16.082   5.722  0.2280 -0.1660  0.1923
 1375PEP     CB51319  10.828  15.649   5.413  0.2070  0.1472  0.3402
 1375PEP     CB51320  10.505  15.465   5.191 -0.0718  0.3235  0.5102
 1376PEP     CB51321  21.999  15.446   1.750 -0.0020 -0.0124  0.1747
 1376PEP     CB51322  22.004  15.158   1.459  0.0862 -0.0218  0.1801
 1376PEP     CB51323  22.097  15.058   0.991 -0.3434  0.0331  0.3144
 1376PEP     CB51324  21.976  14.911   0.604  0.2792 -0.0094  0.2052
 1376PEP     CB51325  21.810  14.479   0.427 -0.0404 -0.3326 -0.2207
 1376PEP     CB51326  22.006  14.039   0.261 -0.0566 -0.0585 -0.0264
 1376PEP     CB51327  22.533  13.888   0.220 -0.5217  0.0480  0.0764
 1376PEP     CB51328  22.834  13.703   0.371 -0.2782 -0.2363 -0.4408
 1376PEP     CB51329  22.711  13.535   0.833  0.1295 -0.2327  0.2323
 1376PEP     CB51330  22.375  13.398   0.960  0.2299 -0.3632 -0.2094
 1376PEP     CB51331  22.019  13.232   0.729 -0.1060 -0.0271 -0.0199
 1376PEP     CB51332  21.697  13.055   0.483  0.3059  0.1755 -0.2118
 1376PEP     CB51333  21.376  12.833   0.383 -0.2211 -0.0783  0.1534
 1376PEP     CB51334  21.149  12.435   0.482  0.1534  0.0660 -0.2040
 1376PEP     CB51335  20.802  12.184   0.499 -0.6880 -0.3105  0.0529
 1376PEP     CB51336  20.460  12.269   0.671 -0.1753  0.0881  0.3210
 1376PEP     CB51337  20.508  12.553   0.992  0.1467 -0.4983  0.0633
 1376PEP     CB51338  20.904  12.671   1.158  0.2969 -0.3750  0.1896
 1376PEP     CB51339  21.375  12.517   0.951 -0.3493  0.0893  0.3152
 1376PEP     CB51340  21.635  12.212   0.750 -0.0541  0.4659 -0.1414
 1376PEP     CB51341  22.023  12.063   0.839 -0.1215 -0.0437  0.4133
 1376PEP     CB51342  22.363  12.170   1.103  0.1882 -0.2493 -0.1211
 1376PEP     CB51343  22.617  12.509   1.213  0.3557 -0.2496  0.2478
 1376PEP     CB51344  22.497  12.877   1.341  0.0660 -0.0756 -0.0389
 1376PEP     CB51345  22.190  13.238   1.418  0.1374 -0.0303  0.3138
 1376PEP     CB51346  21.661  13.129   1.332 -0.2335 -0.0404  0.2016
 1376PEP     CB51347  21.606  12.915   0.989 -0.1516  0.4311 -0.0389
 1376PEP     CB51348  21.872  12.582   0.766 -0.0988 -0.3031 -0.0983
 1376PEP     CB51349  22.210  12.269   0.434 -0.2665 -0.0220  0.1185
 1376PEP     CB51350  22.399  11.940   0.147 -0.0075  0.4192  0.0352
 1376PEP     CB51351  22.207  11.628  -0.301 -0.2876 -0.1641  0.0356
 1376PEP     CB51352  21.832  11.447  -0.442 -0.1945 -0.1783  0.0991
 1376PEP     CB51353  21.389  11.418  -0.487 -0.2857  0.1155 -0.0081
 1376PEP     CB51354  20.923  11.525  -0.331  0.0486 -0.0147 -0.4016
 1376PEP     CB51355  20.726  11.413   0.012 -0.2688  0.1689  0.0534
 1376PEP     CB51356  20.774  11.142   0.444 -0.2359 -0.1848  0.0241
 1376PEP     CB51357  21.158  11.236   0.792 -0.0594  0.2122  0.2668
 1376PEP     CB51358  21.624  11.253   0.763 -0.0588 -0.2067  0.2850
 1376PEP     CB51359  21.847  10.837   0.712 -0.1710  0.0244 -0.0863
 1376PEP     CB51360  21.688  10.463   0.852 -0.1277  0.2004 -0.0878
 1377PEP     CB51361   0.814   2.728  19.635 -0.2996  0.3904  0.0913
 1377PEP     CB51362   0.598   2.608  19.934 -0.3470 -0.3194 -0.3244
 1377PEP     CB51363   0.678   2.319  20.332  0.0073  0.2147 -0.0770
 1377PEP     CB51364   0.705   2.182  20.761 -0.1898 -0.0418 -0.5626
 1377PEP     CB51365   1.056   2.012  20.906 -0.3417  0.3504  0.1221
 1377PEP     CB51366   1.457   2.231  20.712  0.0200 -0.1186 -0.2562
 1377PEP     CB51367   1.593   2.568  20.433 -0.0197 -0.0765 -0.0699
 1377PEP     CB51368   1.537   3.063  20.281 -0.2257 -0.2146  0.1453
 1377PEP     CB51369   1.627   3.498  20.246 -0.2970  0.2099 -0.0236
 1377PEP     CB51370   1.646   3.920  19.948 -0.2572  0.0410  0.0920
 1377PEP     CB51371   1.784   4.236  19.692 -0.0114 -0.2335 -0.2108
 1377PEP     CB51372   1.846   4.535  19.453 -0.1095  0.0302 -0.0164
 1377PEP     CB51373   1.833   4.983  19.395  0.2493 -0.3386  0.0715
 1377PEP     CB51374   1.485   5.104  19.513  0.4478  0.1147  0.0286
 1377PEP     CB51375   1.202   4.776  19.582 -0.0920  0.0061  0.2083
 1377PEP     CB51376   0.920   4.478  19.323  0.0216  0.3068 -0.0980
 1377PEP     CB51377   0.746   4.539  18.940 -0.0174 -0.0462 -0.2530
 1377PEP     CB51378   0.511   4.615  18.520 -0.0034 -0.0266  0.0040
 1377PEP     CB51379   0.426   4.444  18.142  0.2791  0.0045 -0.2022
 1377PEP     CB51380   0.404   4.034  17.957 -0.1661 -0.2439  0.0167
 1377PEP     CB51381   0.228   3.702  18.156  0.0433  0.1386  0.0766
 1377PEP     CB51382   0.328   3.684  18.537  0.0495 -0.1860  0.4464
 1377PEP     CB51383   0.105   3.711  18.889 -0.1111 -0.4745 -0.0580
 1377PEP     CB51384  -0.036   3.392  19.282 -0.0662 -0.1011 -0.1730
 1377PEP     CB51385   0.240   3.083  19.461 -0.1300  0.2122  0.1720
 1377PEP     CB51386   0.611   3.228  19.539 -0.0361 -0.3315  0.0965
 1377PEP     CB51387   0.858   3.491  19.352 -0.0681  0.0246 -0.2850
 1377PEP     CB51388   0.878   3.899  19.306  0.0568 -0.2793  0.1688
 1377PEP     CB51389   1.294   4.147  19.432  0.3115  0.3420  0.2849
 1377PEP     CB51390   1.340   4.324  19.804 -0.0279  0.2214  0.2338
 1377PEP     CB51391   1.065   4.339  20.200  0.1285 -0.1318  0.2354
 1377PEP     CB51392   0.965   4.454  20.526 -0.3636 -0.2138  0.0962
 1377PEP     CB51393   0.753   4.690  20.714 -0.0398 -0.0454  0.2129
 1377PEP     CB51394   0.401   4.710  20.780 -0.3217 -0.5874 -0.2851
 1377PEP     CB51395  -0.031   4.655  20.499  0.0946 -0.0078 -0.0558
 1377PEP     CB51396  -0.458   4.478  20.233 -0.2900  0.0781 -0.0721
 1377PEP     CB51397  -0.858   4.308  20.130 -0.3802  0.2615  0.2090
 1377PEP     CB51398  -1.266   4.244  20.141  0.1277 -0.2814 -0.3206
 1377PEP     CB51399  -1.759   4.211  20.067 -0.3011 -0.6010  0.6004
 1377PEP     CB51400  -2.138   4.451  20.018  0.0866  0.1775 -0.1751
 1378PEP     CB51401   5.129  18.684  11.927  0.4500 -0.0334 -0.0860
 1378PEP     CB51402   5.165  18.714  11.484  0.0945  0.1760  0.4376
 1378PEP     CB51403   5.149  18.629  11.108  0.4746  0.1122  0.5503
 1378PEP     CB51404   5.392  18.667  10.807 -0.1079  0.2410 -0.2851
 1378PEP     CB51405   5.510  18.862  10.483  0.1368  0.4826  0.0522
 1378PEP     CB51406   5.733  18.998  10.097  0.1714 -0.2139  0.0409
 1378PEP     CB51407   5.789  18.840   9.651 -0.0758 -0.1673  0.1385
 1378PEP     CB51408   5.719  18.761   9.228  0.1727  0.3726 -0.0842
 1378PEP     CB51409   5.818  18.707   8.786  0.0240 -0.3248 -0.1985
 1378PEP     CB51410   5.887  18.665   8.358 -0.0858 -0.0914 -0.1780
 1378PEP     CB51411   6.027  18.525   8.062  0.0729  0.3567 -0.4102
 1378PEP     CB51412   6.236  18.409   7.786 -0.0011 -0.1187 -0.0078
 1378PEP     CB51413   6.319  18.055   7.521  0.4136 -0.3615  0.2442
 1378PEP     CB51414   6.536  17.891   7.232  0.1592 -0.1921  0.0315
 1378PEP     CB51415   6.802  17.710   6.986 -0.2354  0.1319  0.0994
 1378PEP     CB51416   7.113  17.523   6.939 -0.0046  0.1216 -0.1754
 1378PEP     CB51417   7.410  17.209   6.824 -0.1656 -0.2198 -0.4460
 1378PEP     CB51418   7.566  16.824   6.772  0.0805 -0.2170 -0.2380
 1378PEP     CB51419   7.763  16.548   6.526 -0.1694  0.0338 -0.3997
 1378PEP     CB51420   8.134  16.250   6.800 -0.0346 -0.1362  0.0208
 1378PEP     CB51421   8.280  16.373   7.216 -0.1140  0.0607  0.1298
 1378PEP     CB51422   8.710  16.368   7.406  0.3332 -0.1701  0.0440
 1378PEP     CB51423   9.175  16.321   7.384  0.1915  0.0155  0.1687
 1378PEP     CB51424   9.503  16.446   7.222  0.2167 -0.3423 -0.0349
 1378PEP     CB51425   9.882  16.692   7.426  0.4315  0.2854 -0.1883
 1378PEP     CB51426  10.133  16.808   7.869  0.4225 -0.1588 -0.3469
 1378PEP     CB51427  10.113  16.423   8.112  0.0786  0.1406 -0.2947
 1378PEP     CB51428   9.838  16.063   8.131 -0.5221  0.3140  0.0058
 1378PEP     CB51429   9.691  15.699   7.943 -0.4390  0.4696  0.1660
 1378PEP     CB51430   9.777  15.374   7.604  0.0687 -0.2803 -0.0541
 1378PEP     CB51431  10.051  15.184   7.206 -0.1158  0.0880 -0.3268
 1378PEP     CB51432   9.898  14.776   7.069  0.0062  0.0625 -0.2515
 1378PEP     CB51433   9.990  14.376   7.048  0.2461  0.0288  0.3695
 1378PEP     CB51434  10.284  14.087   7.079  0.3556  0.0744 -0.0953
 1378PEP     CB51435  10.670  13.966   7.391  0.1535  0.1589  0.0520
 1378PEP     CB51436  11.106  13.798   7.337 -0.0071  0.1152 -0.5023
 1378PEP     CB51437  11.367  13.498   7.255 -0.0961  0.0201  0.2418
 1378PEP     CB51438  11.553  13.231   6.898 -0.1158 -0.0249  0.0984
 1378PEP     CB51439  11.376  12.972   6.617 -0.2777  0.1271  0.1916
 1378PEP     CB51440  11.122  12.604   6.732  0.1008  0.0858 -0.2999
 1379PEP     CB51441   1.709  19.951   6.215 -0.1032  0.0675 -0.0890
 1379PEP     CB51442   1.346  19.809   6.156 -0.0814  0.1992  0.2018
 1379PEP     CB51443   0.947  19.661   5.985 -0.0568  0.0487 -0.1383
 1379PEP     CB51444   0.603  19.557   5.699 -0.0648  0.3338  0.0708
 1379PEP     CB51445   0.167  19.478   5.430 -0.0645 -0.1935 -0.1426
 1379PEP     CB51446  -0.025  19.112   5.307 -0.1594  0.2040  0.1718
 1379PEP     CB51447  -0.031  18.672   5.150  0.4321  0.0569  0.0925
 1379PEP     CB51448   0.323  18.478   5.336 -0.1831  0.0311 -0.2855
 1379PEP     CB51449   0.615  18.482   5.751  0.1804 -0.2390  0.5447
 1379PEP     CB51450   0.523  18.749   6.096  0.2138 -0.1520 -0.2654
 1379PEP     CB51451   0.539  19.090   6.330  0.0257  0.2488  0.1120
 1379PEP     CB51452   0.776  19.423   6.462 -0.0002 -0.2183  0.2744
 1379PEP     CB51453   0.949  19.778   6.526  0.2360  0.1636  0.0288
 1379PEP     CB51454   1.218  20.237   6.450  0.6934  0.2383 -0.3175
 1379PEP     CB51455   1.561  20.438   6.299 -0.2552 -0.0483  0.1092
 1379PEP     CB51456   1.845  20.680   6.170  0.1829  0.0661 -0.0309
 1379PEP     CB51457   2.227  20.766   5.974 -0.1416 -0.0157 -0.2657
 1379PEP     CB51458   2.621  20.655   5.830 -0.0602  0.2166  0.1592
 1379PEP     CB51459   2.971  20.753   5.551 -0.0249 -0.2211  0.1005
 1379PEP     CB51460   2.933  21.095   5.318 -0.3188 -0.1590 -0.1829
 1379PEP     CB51461   2.917  21.439   4.934  0.2711  0.0175  0.0555
 1379PEP     CB51462   2.746  21.741   4.630  0.3609  0.0174 -0.1549
 1379PEP     CB51463   2.497  21.929   4.227  0.1438 -0.2098  0.1383
 1379PEP     CB51464   2.153  22.079   3.866 -0.4366  0.1409 -0.1167
 1379PEP     CB51465   1.930  22.138   3.525 -0.1292  0.0815 -0.0350
 1379PEP     CB51466   1.649  21.895   3.192  0.0689  0.0557 -0.3894
 1379PEP     CB51467   1.761  21.506   3.007  0.0563  0.0660 -0.0078
 1379PEP     CB51468   1.816  21.019   3.020 -0.3527  0.0837 -0.1059
 1379PEP     CB51469   1.558  20.703   3.027 -0.2731  0.1774  0.0926
 1379PEP     CB51470   1.419  20.342   2.954 -0.0841 -0.3070  0.0789
 1379PEP     CB51471   1.359  19.910   2.961 -0.0736 -0.1463 -0.2773
 1379PEP     CB51472   1.573  19.600   3.184 -0.3614 -0.0456 -0.5083
 1379PEP     CB51473   1.756  19.239   3.252  0.3482  0.2738  0.1061
 1379PEP     CB51474   1.845  19.077   3.637  0.0112 -0.2421  0.2933
 1379PEP     CB51475   1.822  19.041   4.100 -0.1764  0.3079 -0.0055
 1379PEP     CB51476   1.817  18.895   4.545  0.0697 -0.1130  0.0261
 1379PEP     CB51477   1.697  18.923   4.992  0.2442  0.4020 -0.0496
 1379PEP     CB51478   1.330  18.858   5.367  0.1593  0.2408  0.1785
 1379PEP     CB51479   1.085  18.814   5.695  0.0448  0.0510  0.2311
 1379PEP     CB51480   1.039  18.795   6.144  0.3033 -0.2390 -0.0735
 1380PEP     CB51481   8.330  15.203  15.066  0.1642 -0.2222  0.1249
 1380PEP     CB51482   8.686  15.070  15.314 -0.2268 -0.1437 -0.3624
 1380PEP     CB51483   8.903  14.788  15.647  0.1499  0.2855 -0.1316
 1380PEP     CB51484   9.142  14.796  16.053 -0.1699 -0.0996  0.2984
 1380PEP     CB51485   9.146  14.710  16.544  0.2105 -0.1478 -0.3576
 1380PEP     CB51486   9.361  14.751  16.966  0.3172  0.3643 -0.0007
 1380PEP     CB51487   9.352  14.648  17.414 -0.1557  0.1890 -0.4948
 1380PEP     CB51488   9.223  14.753  17.786 -0.2696 -0.4923 -0.0162
 1380PEP     CB51489   8.985  14.786  18.095  0.1975 -0.3378 -0.3230
 1380PEP     CB51490   8.667  14.864  18.307 -0.0454  0.1865 -0.3712
 1380PEP     CB51491   8.204  14.938  18.402 -0.0357  0.2207  0.1407
 1380PEP     CB51492   7.780  14.889  18.329  0.2460  0.4415 -0.4265
 1380PEP     CB51493   7.637  14.808  17.854 -0.0347  0.0574 -0.3114
 1380PEP     CB51494   8.015  14.706  17.460 -0.1546 -0.0298  0.3586
 1380PEP     CB51495   8.337  14.963  17.199  0.2562 -0.0036  0.0926
 1380PEP     CB51496   8.143  15.411  17.020 -0.1252 -0.0789  0.0669
 1380PEP     CB51497   7.817  15.688  16.797  0.5210  0.1352 -0.0721
 1380PEP     CB51498   7.483  15.947  16.622 -0.1507 -0.3390  0.1025
 1380PEP     CB51499   7.154  16.148  16.690 -0.0278  0.2390  0.0536
 1380PEP     CB51500   6.908  16.421  16.517 -0.1480 -0.7545  0.1993
 1380PEP     CB51501   6.621  16.778  16.560 -0.3289 -0.2096 -0.3265
 1380PEP     CB51502   6.273  16.925  16.426 -0.0135 -0.1071 -0.2795
 1380PEP     CB51503   5.956  17.198  16.431  0.1895  0.0944  0.1559
 1380PEP     CB51504   5.555  17.349  16.583  0.0310  0.3700  0.1133
 1380PEP     CB51505   5.192  17.273  16.889  0.2066 -0.1559  0.0354
 1380PEP     CB51506   4.852  16.951  16.802 -0.1301  0.0444 -0.0432
 1380PEP     CB51507   4.839  16.551  16.982 -0.0073 -0.1217  0.1965
 1380PEP     CB51508   5.093  16.474  17.223 -0.2715 -0.1407 -0.4615
 1380PEP     CB51509   5.492  16.786  17.217 -0.1018 -0.2535  0.1073
 1380PEP     CB51510   5.676  16.960  16.939 -0.0588 -0.2687 -0.1304
 1380PEP     CB51511   6.071  17.105  16.912 -0.1645 -0.2469  0.2505
 1380PEP     CB51512   6.464  17.040  17.241 -0.0795  0.2192  0.3110
 1380PEP     CB51513   6.573  16.773  17.579  0.4384  0.2336 -0.6167
 1380PEP     CB51514   6.871  16.489  17.757  0.0977 -0.1981  0.2496
 1380PEP     CB51515   7.345  16.530  17.647  0.1406 -0.1583 -0.4273
 1380PEP     CB51516   7.756  16.469  17.643  0.3502  0.1349  0.1621
 1380PEP     CB51517   8.149  16.753  17.507  0.3885 -0.1615 -0.3101
 1380PEP     CB51518   8.636  16.667  17.462  0.0139 -0.3157  0.0090
 1380PEP     CB51519   8.919  16.545  17.181 -0.1549 -0.2483  0.0530
 1380PEP     CB51520   9.249  16.630  16.996  0.0883  0.0802 -0.0773
 1381PEP     CB51521  20.332   3.740   4.628  0.1787 -0.2222  0.2073
 1381PEP     CB51522  20.645   3.896   4.835  0.2149 -0.0339  0.2753
 1381PEP     CB51523  21.057   4.017   4.928 -0.1658 -0.1781  0.1249
 1381PEP     CB51524  21.480   3.861   5.020 -0.1460  0.1538  0.0101
 1381PEP     CB51525  21.870   3.768   4.790  0.1567  0.1273 -0.0290
 1381PEP     CB51526  21.848   3.643   4.338 -0.1999  0.1680  0.0240
 1381PEP     CB51527  21.536   3.750   4.090  0.0579 -0.0394  0.3006
 1381PEP     CB51528  21.110   3.878   3.955  0.1920  0.1479  0.2540
 1381PEP     CB51529  20.673   3.964   3.795 -0.1136 -0.0733 -0.1873
 1381PEP     CB51530  20.499   4.334   3.846 -0.1676 -0.0404 -0.1945
 1381PEP     CB51531  20.576   4.695   4.053 -0.0851  0.2167  0.0406
 1381PEP     CB51532  21.010   4.747   4.324 -0.0363 -0.0355 -0.0158
 1381PEP     CB51533  21.220   4.413   4.523 -0.4299 -0.3213  0.3890
 1381PEP     CB51534  21.306   3.981   4.513  0.1719  0.2352  0.1343
 1381PEP     CB51535  21.016   3.701   4.485  0.0729  0.0520 -0.0559
 1381PEP     CB51536  20.739   3.412   4.764 -0.1933  0.1231 -0.2307
 1381PEP     CB51537  20.567   3.002   4.872  0.4801 -0.0382 -0.0086
 1381PEP     CB51538  20.217   2.680   4.822 -0.2717 -0.2605 -0.0782
 1381PEP     CB51539  19.829   2.696   4.843 -0.0800  0.0426  0.3908
 1381PEP     CB51540  19.516   2.462   5.133  0.0250  0.1345  0.2784
 1381PEP     CB51541  19.374   2.061   5.177 -0.5371 -0.1833 -0.0572
 1381PEP     CB51542  19.255   1.694   5.085  0.2025 -0.3734 -0.0167
 1381PEP     CB51543  19.316   1.326   4.860 -0.2119 -0.1732 -0.1341
 1381PEP     CB51544  19.287   0.994   4.618 -0.1812 -0.2132  0.4062
 1381PEP     CB51545  19.373   0.758   4.234  0.0895 -0.2687  0.0288
 1381PEP     CB51546  19.747   0.411   4.113 -0.1074  0.0717 -0.3764
 1381PEP     CB51547  20.015   0.285   3.830 -0.0631  0.3265  0.2918
 1381PEP     CB51548  20.349   0.404   3.528  0.0959 -0.2023  0.2377
 1381PEP     CB51549  20.456   0.480   3.028 -0.0383 -0.1621 -0.2801
 1381PEP     CB51550  20.314   0.452   2.669  0.0155  0.0170 -0.1645
 1381PEP     CB51551  19.995   0.203   2.503 -0.1897  0.2497 -0.0606
 1381PEP     CB51552  19.758  -0.157   2.477  0.0057 -0.0957  0.3256
 1381PEP     CB51553  19.831  -0.466   2.687 -0.0050 -0.3238  0.4333
 1381PEP     CB51554  19.626  -0.933   2.662 -0.0780  0.1307  0.0131
 1381PEP     CB51555  19.160  -0.942   2.737 -0.1101 -0.1787  0.2963
 1381PEP     CB51556  18.966  -0.706   2.992 -0.1662  0.2606  0.1336
 1381PEP     CB51557  19.015  -0.650   3.397  0.4741 -0.7104  0.1116
 1381PEP     CB51558  19.216  -0.682   3.779  0.0412 -0.1574  0.4394
 1381PEP     CB51559  19.139  -0.748   4.237 -0.2147 -0.2863 -0.0613
 1381PEP     CB51560  19.181  -0.964   4.587  0.0357  0.0073 -0.1795
 1382PEP     CB51561   9.857   4.835   7.774 -0.1793  0.1351 -0.2434
 1382PEP     CB51562   9.535   4.959   8.052  0.1557  0.4205 -0.3016
 1382PEP     CB51563   8.987   4.895   7.953 -0.3649 -0.1701 -0.1416
 1382PEP     CB51564   8.823   4.591   7.651  0.0396  0.0003  0.0717
 1382PEP     CB51565   8.809   4.462   7.298 -0.5183 -0.1229  0.2676
 1382PEP     CB51566   8.740   4.270   6.893  0.0905  0.0931 -0.1518
 1382PEP     CB51567   8.376   4.240   6.668  0.0724  0.2563  0.0571
 1382PEP     CB51568   7.991   4.296   6.845 -0.1355 -0.1764  0.0166
 1382PEP     CB51569   7.640   4.522   6.749  0.1573 -0.3358 -0.1964
 1382PEP     CB51570   7.362   4.646   6.367 -0.0050  0.0099 -0.0215
 1382PEP     CB51571   7.487   4.527   5.983 -0.0763  0.1429 -0.1468
 1382PEP     CB51572   7.468   4.398   5.529 -0.2296 -0.0496  0.3256
 1382PEP     CB51573   7.111   4.179   5.273 -0.3411 -0.3437 -0.4438
 1382PEP     CB51574   6.911   3.875   5.158 -0.2020  0.0334  0.3459
 1382PEP     CB51575   6.711   3.567   5.506 -0.0938  0.2440  0.0219
 1382PEP     CB51576   6.808   3.472   5.957  0.1740  0.1800 -0.1033
 1382PEP     CB51577   6.900   3.584   6.436 -0.0873  0.0660 -0.0994
 1382PEP     CB51578   7.134   3.679   6.856 -0.1527 -0.0614  0.3479
 1382PEP     CB51579   7.232   3.740   7.367  0.2399 -0.1625 -0.0492
 1382PEP     CB51580   7.408   3.938   7.756  0.0636 -0.4298  0.0469
 1382PEP     CB51581   7.545   4.044   8.147  0.0420 -0.2164 -0.0681
 1382PEP     CB51582   7.674   4.278   8.485  0.1988 -0.1163 -0.2104
 1382PEP     CB51583   7.860   4.417   8.857 -0.0511 -0.0078 -0.2134
 1382PEP     CB51584   7.846   4.285   9.286  0.2121  0.0625 -0.1156
 1382PEP     CB51585   7.839   3.870   9.227  0.1684  0.2537 -0.0083
 1382PEP     CB51586   7.835   3.675   8.766 -0.3435 -0.0977 -0.3114
 1382PEP     CB51587   7.994   3.880   8.330 -0.1338 -0.1315 -0.0605
 1382PEP     CB51588   8.255   3.836   7.905 -0.0779 -0.1405  0.0323
 1382PEP     CB51589   8.571   3.663   7.599  0.5193 -0.1406 -0.0787
 1382PEP     CB51590   8.650   3.531   7.233 -0.2111  0.5276  0.0411
 1382PEP     CB51591   8.724   3.126   7.053 -0.3813 -0.3473  0.0517
 1382PEP     CB51592   8.872   2.789   7.289 -0.0212  0.1980 -0.0558
 1382PEP     CB51593   8.790   2.719   7.670 -0.2404  0.0526 -0.2976
 1382PEP     CB51594   8.758   2.613   8.109  0.2420  0.1706  0.1139
 1382PEP     CB51595   8.463   2.434   8.341 -0.2011 -0.0226  0.0176
 1382PEP     CB51596   8.120   2.431   8.401  0.0054  0.2413  0.2556
 1382PEP     CB51597   7.703   2.365   8.289 -0.1738 -0.2212 -0.1440
 1382PEP     CB51598   7.381   2.300   8.138 -0.2684 -0.1554  0.0826
 1382PEP     CB51599   7.131   2.451   7.805 -0.1656  0.1187 -0.2143
 1382PEP     CB51600   6.972   2.554   7.487 -0.0292 -0.1348  0.1195
 1383PEP     CB51601  20.871  15.518  21.806  0.2540 -0.3297 -0.0141
 1383PEP     CB51602  20.465  15.331  21.681  0.0109 -0.3630  0.0242
 1383PEP     CB51603  20.179  14.937  21.585  0.4739  0.2022 -0.1367
 1383PEP     CB51604  20.014  14.568  21.388  0.1815  0.2115  0.1428
 1383PEP     CB51605  19.844  14.156  21.288 -0.3896 -0.0702 -0.5388
 1383PEP     CB51606  19.628  13.893  20.987 -0.0209  0.0056 -0.1901
 1383PEP     CB51607  19.378  13.569  20.939 -0.0453  0.2996 -0.1733
 1383PEP     CB51608  19.317  13.188  21.248  0.0027  0.0586  0.2364
 1383PEP     CB51609  19.408  13.065  21.612 -0.1597 -0.2003 -0.0344
 1383PEP     CB51610  19.871  13.050  21.860 -0.0200  0.2184  0.2786
 1383PEP     CB51611  20.317  12.994  22.109 -0.3145  0.0031 -0.4232
 1383PEP     CB51612  20.682  12.592  22.155  0.3722 -0.0773 -0.2823
 1383PEP     CB51613  20.839  12.221  22.069  0.1388 -0.3701  0.0847
 1383PEP     CB51614  21.114  12.031  21.732  0.0825 -0.2922  0.0483
 1383PEP     CB51615  21.438  11.891  21.591  0.2848  0.1326  0.3220
 1383PEP     CB51616  21.852  11.874  21.417  0.2461  0.3683 -0.2241
 1383PEP     CB51617  22.225  11.858  21.148  0.3114 -0.2015  0.0467
 1383PEP     CB51618  22.567  11.659  21.039  0.2625 -0.0874  0.0461
 1383PEP     CB51619  22.823  11.491  20.716 -0.2827 -0.4935 -0.0271
 1383PEP     CB51620  23.153  11.240  20.534  0.1311 -0.0425  0.2770
 1383PEP     CB51621  23.217  10.868  20.495  0.0238 -0.0604 -0.0346
 1383PEP     CB51622  23.505  10.541  20.496 -0.1443 -0.0521 -0.0738
 1383PEP     CB51623  23.706  10.335  20.195 -0.4380  0.1842 -0.1438
 1383PEP     CB51624  23.524  10.305  19.797  0.2702 -0.1047  0.0529
 1383PEP     CB51625  23.430  10.619  19.581 -0.0815 -0.1683  0.2272
 1383PEP     CB51626  23.513  11.080  19.599  0.0209 -0.0467 -0.1626
 1383PEP     CB51627  23.794  11.324  19.803 -0.2075  0.1562 -0.1181
 1383PEP     CB51628  23.978  11.446  20.117  0.1373 -0.4117 -0.1157
 1383PEP     CB51629  24.470  11.566  20.314  0.1262 -0.4757  0.0660
 1383PEP     CB51630  24.841  11.793  20.045 -0.1652  0.1798 -0.0368
 1383PEP     CB51631  25.155  11.747  19.768  0.3946 -0.1847  0.1056
 1383PEP     CB51632  25.451  11.574  19.480  0.1723 -0.1172  0.0181
 1383PEP     CB51633  25.877  11.324  19.333  0.0114  0.0858 -0.1592
 1383PEP     CB51634  26.227  11.210  19.547  0.2674  0.1207 -0.4767
 1383PEP     CB51635  26.588  10.987  19.438 -0.0859  0.0180  0.1322
 1383PEP     CB51636  26.722  11.018  19.056  0.2370 -0.3029 -0.0161
 1383PEP     CB51637  26.655  11.350  18.804  0.4802 -0.1615 -0.0273
 1383PEP     CB51638  26.495  11.684  18.895 -0.3850 -0.4318 -0.1599
 1383PEP     CB51639  26.441  12.092  19.124  0.3355 -0.0363 -0.1470
 1383PEP     CB51640  26.431  12.512  19.267 -0.2955 -0.6043  0.1336
 1384PEP     CB51641  19.382   4.935  18.130  0.1373  0.1069  0.2633
 1384PEP     CB51642  19.032   4.804  18.399 -0.1165 -0.2547  0.0835
 1384PEP     CB51643  18.963   4.791  18.867 -0.1261 -0.3999  0.2644
 1384PEP     CB51644  19.005   4.768  19.286  0.0174 -0.0042 -0.1889
 1384PEP     CB51645  19.015   4.932  19.635 -0.0247 -0.1047  0.3978
 1384PEP     CB51646  19.387   5.155  19.882  0.2896  0.0057 -0.1528
 1384PEP     CB51647  19.684   5.426  19.695 -0.3541 -0.0358  0.2834
 1384PEP     CB51648  19.911   5.390  19.342  0.6150 -0.2184  0.3967
 1384PEP     CB51649  20.184   5.429  18.907  0.1444  0.3948 -0.0807
 1384PEP     CB51650  20.201   5.300  18.474  0.2768  0.1841 -0.0416
 1384PEP     CB51651  20.214   5.182  18.034  0.3461 -0.0686  0.0818
 1384PEP     CB51652  20.345   4.989  17.536  0.5161 -0.2608 -0.0833
 1384PEP     CB51653  20.682   4.850  17.280 -0.1579  0.2340 -0.2948
 1384PEP     CB51654  21.115   4.724  17.241  0.0505 -0.0889 -0.2007
 1384PEP     CB51655  21.531   4.596  17.458 -0.3064 -0.1248 -0.0786
 1384PEP     CB51656  21.936   4.494  17.582  0.0372  0.3223  0.3479
 1384PEP     CB51657  22.327   4.425  17.515 -0.2043  0.1951  0.3313
 1384PEP     CB51658  22.787   4.430  17.784  0.0116  0.0628 -0.0450
 1384PEP     CB51659  23.000   4.311  18.136 -0.0094 -0.1373  0.4660
 1384PEP     CB51660  23.088   4.540  18.512  0.2984  0.1818  0.1213
 1384PEP     CB51661  23.371   4.947  18.520  0.2433  0.2041 -0.0401
 1384PEP     CB51662  23.252   5.384  18.346 -0.3316 -0.1781 -0.2224
 1384PEP     CB51663  23.039   5.761  18.269  0.3246 -0.1425  0.1675
 1384PEP     CB51664  22.693   6.008  18.141  0.0153 -0.0445  0.0746
 1384PEP     CB51665  22.370   6.289  18.270 -0.2292 -0.3074  0.1637
 1384PEP     CB51666  21.966   6.618  18.232 -0.1370  0.2764 -0.4823
 1384PEP     CB51667  21.511   6.773  18.132 -0.2785  0.3027  0.2395
 1384PEP     CB51668  21.115   6.893  18.399 -0.0374  0.3213  0.2475
 1384PEP     CB51669  20.996   6.841  18.775 -0.1161  0.6656  0.1101
 1384PEP     CB51670  21.202   6.842  19.192 -0.4356 -0.0275 -0.3384
 1384PEP     CB51671  21.545   7.109  19.213 -0.1661 -0.1887  0.1875
 1384PEP     CB51672  21.608   7.383  18.882 -0.2449  0.0993  0.1154
 1384PEP     CB51673  21.583   7.696  18.567 -0.0049  0.0773  0.3151
 1384PEP     CB51674  21.208   8.047  18.448 -0.0965 -0.3803 -0.3894
 1384PEP     CB51675  20.861   8.324  18.380 -0.1718  0.2832 -0.0278
 1384PEP     CB51676  20.336   8.385  18.439 -0.1007 -0.2576  0.1830
 1384PEP     CB51677  19.910   8.627  18.320  0.1412 -0.1658 -0.0542
 1384PEP     CB51678  19.562   8.822  18.254 -0.1526 -0.4982  0.3042
 1384PEP     CB51679  19.271   9.152  18.283 -0.3079  0.1248  0.2797
 1384PEP     CB51680  18.819   9.391  18.283  0.1218  0.2037  0.1330
 1385PEP     CB51681  18.982  14.263   5.182  0.2270  0.1560  0.1030
 1385PEP     CB51682  18.801  14.726   5.168 -0.0313  0.1305  0.3565
 1385PEP     CB51683  18.801  15.203   5.164  0.0740 -0.2084  0.2334
 1385PEP     CB51684  19.074  15.530   5.205  0.0263 -0.0181  0.6143
 1385PEP     CB51685  19.401  15.762   5.362 -0.0065  0.1289  0.1516
 1385PEP     CB51686  19.902  15.922   5.310  0.0162  0.1019 -0.2093
 1385PEP     CB51687  20.206  15.976   4.935  0.4008 -0.2042 -0.3655
 1385PEP     CB51688  20.478  15.819   4.595 -0.4323  0.0673  0.1331
 1385PEP     CB51689  20.854  16.045   4.456 -0.1221 -0.0055 -0.0494
 1385PEP     CB51690  21.039  16.393   4.584 -0.0547  0.2998 -0.1783
 1385PEP     CB51691  21.380  16.700   4.730  0.2407  0.2430  0.1772
 1385PEP     CB51692  21.767  16.705   4.847 -0.2970 -0.2820  0.1253
 1385PEP     CB51693  22.233  16.642   4.744  0.1275 -0.1041 -0.0513
 1385PEP     CB51694  22.505  16.867   4.938 -0.1916 -0.2608  0.0572
 1385PEP     CB51695  22.502  17.255   5.106 -0.2323  0.0726 -0.0537
 1385PEP     CB51696  22.218  17.538   5.338  0.0429 -0.1343  0.1407
 1385PEP     CB51697  22.176  17.557   5.809 -0.1821  0.1875  0.1378
 1385PEP     CB51698  21.948  17.862   6.141  0.1063 -0.0997 -0.1031
 1385PEP     CB51699  21.800  18.231   6.196  0.2168  0.2336 -0.2309
 1385PEP     CB51700  21.475  18.470   6.257  0.0797 -0.4152 -0.0373
 1385PEP     CB51701  21.139  18.714   6.416  0.2495 -0.0959 -0.1654
 1385PEP     CB51702  21.079  19.070   6.549  0.1711  0.3059  0.2588
 1385PEP     CB51703  20.707  19.405   6.722 -0.3263  0.0359 -0.0156
 1385PEP     CB51704  20.333  19.455   6.524  0.0695 -0.4953 -0.1671
 1385PEP     CB51705  20.237  19.260   6.154  0.0002 -0.1365 -0.0292
 1385PEP     CB51706  20.478  18.970   5.996  0.1120 -0.0145 -0.4570
 1385PEP     CB51707  20.675  18.655   6.236 -0.3246 -0.2447 -0.0078
 1385PEP     CB51708  20.526  18.378   6.529  0.0966  0.3393  0.0742
 1385PEP     CB51709  20.590  18.444   6.940  0.0976  0.0945 -0.0122
 1385PEP     CB51710  20.311  18.525   7.347 -0.3989 -0.0313 -0.0451
 1385PEP     CB51711  19.835  18.383   7.515  0.0931  0.1429 -0.0011
 1385PEP     CB51712  19.394  18.053   7.483 -0.1072 -0.0374 -0.0887
 1385PEP     CB51713  18.913  17.984   7.544 -0.0390 -0.0786 -0.1871
 1385PEP     CB51714  18.586  18.254   7.486 -0.2699  0.0816  0.2883
 1385PEP     CB51715  18.640  18.624   7.216  0.0650  0.0424  0.0467
 1385PEP     CB51716  18.528  18.511   6.768  0.0420 -0.3408 -0.0442
 1385PEP     CB51717  18.457  18.369   6.413 -0.0206 -0.1022 -0.2611
 1385PEP     CB51718  18.641  18.356   5.985  0.1204  0.2326  0.4465
 1385PEP     CB51719  18.826  18.164   5.586 -0.1219 -0.2369 -0.0574
 1385PEP     CB51720  18.796  17.824   5.342  0.1374 -0.1331 -0.0243
 1386PEP     CB51721   3.203  14.716  12.468  0.1394  0.0435  0.1187
 1386PEP     CB51722   2.997  14.839  12.753  0.0502  0.1263 -0.1498
 1386PEP     CB51723   2.918  15.125  13.046 -0.0049  0.1783  0.0247
 1386PEP     CB51724   2.584  15.433  13.285  0.0196 -0.1801 -0.1872
 1386PEP     CB51725   2.193  15.764  13.343  0.0158  0.1919 -0.3257
 1386PEP     CB51726   2.099  16.235  13.232 -0.1487 -0.0340  0.2672
 1386PEP     CB51727   2.411  16.529  12.962 -0.0115 -0.3338 -0.1506
 1386PEP     CB51728   2.781  16.315  12.757  0.3496 -0.1122  0.0031
 1386PEP     CB51729   3.132  16.083  12.997 -0.3748 -0.2257 -0.1781
 1386PEP     CB51730   3.183  16.213  13.462 -0.0507  0.1527 -0.2755
 1386PEP     CB51731   3.201  16.623  13.505 -0.4104 -0.2437  0.0777
 1386PEP     CB51732   3.456  16.885  13.190 -0.0873  0.1966 -0.0897
 1386PEP     CB51733   3.731  16.794  12.820  0.2230  0.3958  0.2926
 1386PEP     CB51734   3.745  16.585  12.412  0.0911  0.0314  0.3014
 1386PEP     CB51735   3.789  16.667  12.005 -0.1122 -0.2698  0.1181
 1386PEP     CB51736   3.972  16.946  11.817 -0.2298  0.0850 -0.0871
 1386PEP     CB51737   4.402  16.943  11.777 -0.4216 -0.0114 -0.2939
 1386PEP     CB51738   4.674  16.781  12.138  0.0668  0.1944 -0.1009
 1386PEP     CB51739   5.012  16.704  12.495  0.0740  0.1869  0.1971
 1386PEP     CB51740   5.074  16.370  12.635  0.0208 -0.4318 -0.1095
 1386PEP     CB51741   5.054  15.957  12.890 -0.1301 -0.0801  0.0464
 1386PEP     CB51742   5.280  15.581  12.944  0.1249 -0.2757  0.1180
 1386PEP     CB51743   5.559  15.448  13.158  0.2863  0.2960  0.1755
 1386PEP     CB51744   5.609  15.598  13.583  0.0128 -0.1418  0.2403
 1386PEP     CB51745   5.483  16.021  13.804  0.1644  0.0193  0.1251
 1386PEP     CB51746   5.100  16.307  13.719  0.2985  0.3831  0.6783
 1386PEP     CB51747   5.007  16.762  13.726 -0.3552  0.2170 -0.0019
 1386PEP     CB51748   4.866  17.165  13.518 -0.2153  0.3274 -0.0579
 1386PEP     CB51749   4.570  17.335  13.416  0.0558  0.0716  0.1880
 1386PEP     CB51750   4.248  17.578  13.203 -0.0397  0.4384 -0.3007
 1386PEP     CB51751   3.909  17.691  13.315 -0.1892  0.2132  0.0102
 1386PEP     CB51752   3.659  17.551  13.658 -0.0860  0.2953 -0.3977
 1386PEP     CB51753   3.698  17.281  14.072 -0.2197 -0.1825  0.0937
 1386PEP     CB51754   3.743  16.763  14.275 -0.0316 -0.0318  0.0878
 1386PEP     CB51755   3.644  16.382  14.073 -0.1904 -0.0260 -0.4192
 1386PEP     CB51756   3.213  16.258  13.951  0.0688 -0.3356  0.1751
 1386PEP     CB51757   2.869  16.331  13.875 -0.4080  0.1486 -0.0951
 1386PEP     CB51758   2.468  16.103  13.772 -0.0172  0.4284 -0.2841
 1386PEP     CB51759   1.999  16.125  13.838 -0.1608  0.0253  0.0429
 1386PEP     CB51760   1.715  16.379  14.101  0.0667 -0.0104 -0.0932
 1387PEP     CB51761  21.203  10.233  21.169  0.1636 -0.2232  0.1412
 1387PEP     CB51762  21.558  10.023  20.910  0.0500  0.2309  0.2795
 1387PEP     CB51763  21.921   9.868  20.689  0.3671 -0.2862  0.0037
 1387PEP     CB51764  22.248   9.852  20.564  0.2752 -0.2143  0.1018
 1387PEP     CB51765  22.403   9.970  20.210 -0.2011  0.1482 -0.3706
 1387PEP     CB51766  22.312  10.314  19.989  0.3316  0.2271  0.1127
 1387PEP     CB51767  22.375  10.713  19.912  0.5130 -0.0177 -0.0629
 1387PEP     CB51768  22.614  11.062  20.189 -0.1116  0.2893  0.2120
 1387PEP     CB51769  22.718  10.971  20.633 -0.1151 -0.1862 -0.0318
 1387PEP     CB51770  22.375  10.792  20.921  0.0140  0.5637 -0.0127
 1387PEP     CB51771  22.001  10.622  20.901  0.0448 -0.1492 -0.1638
 1387PEP     CB51772  21.591  10.535  21.208 -0.3114 -0.0423  0.1333
 1387PEP     CB51773  21.428  10.808  21.555  0.1050  0.1359 -0.0621
 1387PEP     CB51774  21.551  11.020  21.925  0.3168 -0.3904 -0.0210
 1387PEP     CB51775  21.388  10.985  22.361  0.0491 -0.2533  0.1221
 1387PEP     CB51776  21.115  10.643  22.528 -0.0176  0.1360  0.3728
 1387PEP     CB51777  20.694  10.630  22.534  0.1379  0.0071 -0.0246
 1387PEP     CB51778  20.452  10.843  22.219 -0.1573  0.0277 -0.0080
 1387PEP     CB51779  20.549  10.851  21.745  0.0508  0.0720 -0.1902
 1387PEP     CB51780  20.938  10.998  21.536 -0.7159  0.4498  0.1803
 1387PEP     CB51781  21.157  10.881  21.180 -0.3396 -0.1205 -0.0600
 1387PEP     CB51782  21.116  10.626  20.828  0.1271  0.0672 -0.3003
 1387PEP     CB51783  21.174  10.258  20.554  0.1437 -0.0327 -0.5469
 1387PEP     CB51784  21.597  10.129  20.440  0.0101  0.0740 -0.1799
 1387PEP     CB51785  21.959  10.290  20.415  0.0267 -0.2252  0.0486
 1387PEP     CB51786  22.178  10.746  20.401 -0.0554 -0.1170 -0.0503
 1387PEP     CB51787  22.246  11.168  20.583 -0.0397  0.0329  0.0447
 1387PEP     CB51788  22.171  11.282  21.012 -0.0935 -0.1000 -0.1502
 1387PEP     CB51789  22.150  11.177  21.425 -0.3308 -0.2177 -0.2857
 1387PEP     CB51790  22.295  11.129  21.798  0.2076  0.3325  0.0603
 1387PEP     CB51791  22.374  11.252  22.170 -0.1991 -0.0632 -0.0490
 1387PEP     CB51792  22.090  11.242  22.621 -0.0704 -0.0789  0.1132
 1387PEP     CB51793  22.048  11.225  23.025  0.0270  0.1611 -0.3504
 1387PEP     CB51794  21.652  11.281  23.346  0.1710 -0.0273  0.1404
 1387PEP     CB51795  21.581  11.327  23.688  0.0803 -0.1451 -0.3712
 1387PEP     CB51796  21.685  11.126  24.074  0.1518 -0.0642 -0.1951
 1387PEP     CB51797  22.018  11.253  24.223 -0.3279  0.2645 -0.1938
 1387PEP     CB51798  22.211  11.628  24.400 -0.3696  0.2502 -0.1971
 1387PEP     CB51799  22.250  12.016  24.333  0.2973  0.1227  0.5679
 1387PEP     CB51800  22.054  12.425  24.350  0.1449 -0.0471  0.3053
 1388PEP     CB51801   7.515  11.287   3.522  0.1208  0.0912 -0.1824
 1388PEP     CB51802   7.206  11.567   3.490 -0.3540  0.1112  0.1993
 1388PEP     CB51803   6.999  11.878   3.752 -0.0555  0.2224  0.0254
 1388PEP     CB51804   6.715  12.068   3.970  0.2000 -0.3067  0.3917
 1388PEP     CB51805   6.281  12.140   4.206 -0.0143  0.0202 -0.0155
 1388PEP     CB51806   5.965  12.501   4.338 -0.0714  0.0395  0.2199
 1388PEP     CB51807   5.950  12.948   4.388 -0.3522 -0.0492 -0.1239
 1388PEP     CB51808   5.814  13.259   4.315  0.2659 -0.3413 -0.1048
 1388PEP     CB51809   5.829  13.677   4.068 -0.2175 -0.1447 -0.4231
 1388PEP     CB51810   5.750  13.911   3.653  0.0051 -0.0793  0.0671
 1388PEP     CB51811   5.847  14.201   3.362 -0.0048 -0.1218  0.2345
 1388PEP     CB51812   5.831  14.624   3.274 -0.2925 -0.1273 -0.2447
 1388PEP     CB51813   5.662  14.963   3.371  0.1602  0.1406  0.3407
 1388PEP     CB51814   5.558  15.125   3.822 -0.4178  0.2285  0.4611
 1388PEP     CB51815   5.566  15.348   4.236 -0.0271  0.1651 -0.1709
 1388PEP     CB51816   5.430  15.412   4.671 -0.1287 -0.0663 -0.2106
 1388PEP     CB51817   5.125  15.369   5.089 -0.0573 -0.1696 -0.2846
 1388PEP     CB51818   4.860  15.170   5.269  0.1929  0.4086  0.0823
 1388PEP     CB51819   4.491  15.100   5.470 -0.2326 -0.0365 -0.3598
 1388PEP     CB51820   4.151  14.852   5.373 -0.1160 -0.0055 -0.0853
 1388PEP     CB51821   4.017  14.455   5.251 -0.0485 -0.1084  0.2627
 1388PEP     CB51822   3.935  14.069   5.086 -0.7001  0.6331  0.1131
 1388PEP     CB51823   4.149  13.751   4.873  0.0168 -0.1643  1.0949
 1388PEP     CB51824   4.499  13.719   4.709 -0.0005  0.1425 -0.3852
 1388PEP     CB51825   4.732  14.066   4.668  0.0116  0.1289 -0.0326
 1388PEP     CB51826   4.913  14.464   4.829  0.1264  0.0628  0.3800
 1388PEP     CB51827   5.074  14.798   4.654 -0.0092  0.1066 -0.0370
 1388PEP     CB51828   5.203  15.083   4.348  0.1499 -0.1393  0.1874
 1388PEP     CB51829   5.083  15.110   3.952  0.2481  0.2446 -0.3767
 1388PEP     CB51830   5.033  14.844   3.632  0.0065  0.3973 -0.1996
 1388PEP     CB51831   5.289  14.459   3.582  0.2406  0.2365 -0.0071
 1388PEP     CB51832   5.696  14.493   3.775 -0.1509 -0.4451  0.3745
 1388PEP     CB51833   6.047  14.817   3.789 -0.2224  0.3950  0.0063
 1388PEP     CB51834   6.046  15.229   4.055  0.0859  0.2094 -0.4893
 1388PEP     CB51835   6.095  15.518   4.405 -0.1496  0.0028 -0.2608
 1388PEP     CB51836   5.937  15.734   4.689 -0.1308  0.2381 -0.3494
 1388PEP     CB51837   6.172  16.160   4.876  0.1672  0.0667  0.3075
 1388PEP     CB51838   6.556  16.321   4.864  0.0792 -0.1430 -0.3438
 1388PEP     CB51839   6.966  16.355   4.764 -0.2197  0.0361  0.0535
 1388PEP     CB51840   7.380  16.203   4.841 -0.1894 -0.1059  0.4512
 1389PEP     CB51841  18.431  11.153  22.034 -0.5760  0.4171  0.0551
 1389PEP     CB51842  18.596  11.054  21.619 -0.2133  0.2152 -0.2103
 1389PEP     CB51843  19.003  10.992  21.499 -0.1393 -0.0631  0.1916
 1389PEP     CB51844  19.422  10.850  21.835  0.1321 -0.5691  0.0496
 1389PEP     CB51845  19.340  10.630  22.213 -0.4787 -0.1054  0.1051
 1389PEP     CB51846  19.327  10.354  22.604  0.1314  0.2651 -0.1809
 1389PEP     CB51847  19.061  10.406  23.010 -0.1284  0.0837  0.0762
 1389PEP     CB51848  18.696  10.575  23.354 -0.1468 -0.0386  0.1861
 1389PEP     CB51849  18.411  10.524  23.703  0.0761 -0.2053  0.4597
 1389PEP     CB51850  17.958  10.649  23.812  0.1009  0.1325 -0.2013
 1389PEP     CB51851  17.661  10.729  24.103  0.2979 -0.0216 -0.0882
 1389PEP     CB51852  17.390  10.430  24.270  0.3268 -0.2602 -0.1276
 1389PEP     CB51853  17.195  10.063  24.050  0.0018 -0.4215  0.2759
 1389PEP     CB51854  16.925  10.103  23.669  0.1753 -0.2891 -0.1049
 1389PEP     CB51855  16.909  10.588  23.416  0.0779 -0.0118 -0.1818
 1389PEP     CB51856  17.061  10.964  23.467  0.1201 -0.2090  0.1388
 1389PEP     CB51857  17.370  11.258  23.367  0.3478  0.0131  0.1957
 1389PEP     CB51858  17.542  11.643  23.447  0.0523 -0.1796 -0.2761
 1389PEP     CB51859  17.903  11.941  23.285 -0.1444  0.1449 -0.4752
 1389PEP     CB51860  17.816  12.321  22.994  0.0962 -0.3358  0.1649
 1389PEP     CB51861  17.900  12.750  22.940  0.1630 -0.2873  0.2902
 1389PEP     CB51862  18.229  12.908  23.219 -0.2523  0.3658  0.0491
 1389PEP     CB51863  18.271  12.901  23.708  0.1581 -0.0141  0.1221
 1389PEP     CB51864  18.256  12.773  24.223 -0.2137  0.2202  0.0267
 1389PEP     CB51865  18.269  12.506  24.647 -0.2904  0.0935  0.1331
 1389PEP     CB51866  18.313  12.579  25.016 -0.1640  0.1651  0.1454
 1389PEP     CB51867  18.100  12.821  25.270  0.1323  0.2807  0.2152
 1389PEP     CB51868  17.822  13.102  25.483 -0.0072  0.1076  0.1750
 1389PEP     CB51869  17.798  13.509  25.593  0.0879  0.1408 -0.0294
 1389PEP     CB51870  17.691  13.872  25.571  0.0214  0.0180 -0.1500
 1389PEP     CB51871  17.725  14.269  25.783  0.3975 -0.4609 -0.0232
 1389PEP     CB51872  17.814  14.666  25.525 -0.1363  0.2811 -0.0189
 1389PEP     CB51873  17.583  14.694  25.168  0.0592  0.4978 -0.0227
 1389PEP     CB51874  17.685  14.359  24.902 -0.3570  0.3498 -0.0304
 1389PEP     CB51875  17.897  14.128  25.148 -0.2627  0.1844  0.1294
 1389PEP     CB51876  18.259  14.278  25.417  0.0342  0.1636 -0.1578
 1389PEP     CB51877  18.727  14.318  25.523 -0.2322 -0.1597 -0.1584
 1389PEP     CB51878  19.008  14.245  25.764 -0.1305  0.0132 -0.0084
 1389PEP     CB51879  19.462  14.139  25.971 -0.1436  0.0263 -0.0460
 1389PEP     CB51880  19.648  14.009  26.315 -0.2320 -0.1264 -0.3879
 1390PEP     CB51881   9.369   1.535  14.594  0.3971  0.2702  0.0409
 1390PEP     CB51882   9.462   1.549  14.982  0.0375  0.5460  0.2451
 1390PEP     CB51883   9.873   1.385  15.229  0.2830 -0.2215 -0.1362
 1390PEP     CB51884   9.826   1.025  15.516  0.4457  0.2409 -0.2332
 1390PEP     CB51885   9.426   0.860  15.675 -0.4223 -0.2141 -0.2677
 1390PEP     CB51886   9.253   0.629  16.021 -0.0723  0.0443 -0.3969
 1390PEP     CB51887   9.434   0.382  16.339 -0.1093  0.1059 -0.1182
 1390PEP     CB51888   9.793   0.227  16.645 -0.2410 -0.0970  0.1265
 1390PEP     CB51889  10.208   0.178  16.789 -0.4040  0.1843  0.0416
 1390PEP     CB51890  10.524   0.162  17.162 -0.1185  0.1703  0.1050
 1390PEP     CB51891  10.770   0.164  17.472 -0.0977  0.0452 -0.3668
 1390PEP     CB51892  10.968   0.339  17.755 -0.0822 -0.2908  0.2836
 1390PEP     CB51893  11.417   0.338  17.823 -0.3350 -0.1829  0.1492
 1390PEP     CB51894  11.716   0.214  17.513  0.1026  0.1179  0.0609
 1390PEP     CB51895  11.622   0.242  16.989 -0.2906  0.5099  0.1307
 1390PEP     CB51896  11.611   0.409  16.614 -0.5065  0.2707  0.0629
 1390PEP     CB51897  11.472   0.492  16.239  0.1228  0.0746 -0.4324
 1390PEP     CB51898  11.636   0.377  15.833 -0.2180  0.0107  0.0449
 1390PEP     CB51899  11.949   0.175  15.585  0.3091 -0.1802  0.2726
 1390PEP     CB51900  12.025   0.243  15.174 -0.2001 -0.1078  0.0862
 1390PEP     CB51901  11.822   0.481  14.988  0.0034 -0.3134 -0.0168
 1390PEP     CB51902  11.481   0.669  15.032  0.4318 -0.0402 -0.1504
 1390PEP     CB51903  11.011   0.685  14.969 -0.1842  0.1200  0.3249
 1390PEP     CB51904  10.577   0.667  14.901  0.2721 -0.0001 -0.2440
 1390PEP     CB51905  10.120   0.815  14.998  0.0496  0.1062  0.3440
 1390PEP     CB51906   9.710   1.022  14.999  0.1519 -0.0323 -0.0013
 1390PEP     CB51907   9.390   1.156  15.260  0.5794  0.0860  0.4384
 1390PEP     CB51908   9.201   1.258  15.534  0.0854 -0.1688 -0.1234
 1390PEP     CB51909   9.160   1.202  15.982 -0.1967  0.1039  0.1310
 1390PEP     CB51910   9.236   0.981  16.369  0.4890  0.1239  0.2267
 1390PEP     CB51911   9.318   0.751  16.674  0.1091  0.1150  0.0866
 1390PEP     CB51912   9.621   0.496  17.014 -0.1809  0.1619  0.4065
 1390PEP     CB51913   9.853   0.188  17.192 -0.2687 -0.3534 -0.1686
 1390PEP     CB51914   9.878  -0.061  17.631  0.3254 -0.1316  0.0090
 1390PEP     CB51915   9.625  -0.148  17.907  0.0119  0.0427 -0.3621
 1390PEP     CB51916   9.266   0.023  17.976  0.0094 -0.1891 -0.1431
 1390PEP     CB51917   8.967   0.133  17.645 -0.1250 -0.1033 -0.1266
 1390PEP     CB51918   8.976   0.061  17.190 -0.1788 -0.0030 -0.2086
 1390PEP     CB51919   8.855  -0.122  16.837 -0.0152  0.0507 -0.0707
 1390PEP     CB51920   8.563  -0.243  16.523  0.1589  0.1526  0.0161
 1391PEP     CB51921   0.824   4.420   7.664 -0.0743 -0.3098 -0.0373
 1391PEP     CB51922   1.198   4.670   7.699 -0.2486 -0.1767  0.0950
 1391PEP     CB51923   1.484   4.992   7.540  0.3701  0.0215  0.2154
 1391PEP     CB51924   1.802   5.256   7.352  0.2915  0.3674 -0.0854
 1391PEP     CB51925   2.202   5.279   7.315  0.1075  0.5148  0.2795
 1391PEP     CB51926   2.619   5.430   7.317 -0.4297 -0.4558  0.1108
 1391PEP     CB51927   3.081   5.343   7.285 -0.0594 -0.1388  0.0393
 1391PEP     CB51928   3.406   5.329   6.975 -0.0908  0.1146  0.2145
 1391PEP     CB51929   3.755   5.692   6.854 -0.3147 -0.2354  0.1325
 1391PEP     CB51930   4.113   5.903   6.954 -0.1077  0.1089  0.2184
 1391PEP     CB51931   4.516   5.811   7.056  0.4110 -0.3464  0.0149
 1391PEP     CB51932   4.844   5.578   7.163 -0.3384 -0.2788 -0.0546
 1391PEP     CB51933   5.140   5.237   7.440  0.1497 -0.0336  0.0508
 1391PEP     CB51934   4.990   4.820   7.629 -0.0148  0.0201  0.0296
 1391PEP     CB51935   4.705   4.670   7.312 -0.0914 -0.1566 -0.0408
 1391PEP     CB51936   4.465   5.035   7.071 -0.0046  0.0711  0.3708
 1391PEP     CB51937   4.423   5.389   7.351 -0.3688  0.0154  0.0176
 1391PEP     CB51938   4.683   5.668   7.634 -0.1997  0.1135  0.0040
 1391PEP     CB51939   4.726   6.025   7.827  0.2731  0.3194 -0.2265
 1391PEP     CB51940   4.564   6.331   8.042 -0.2455  0.2624 -0.3213
 1391PEP     CB51941   4.439   6.354   8.442 -0.0229  0.0669 -0.0491
 1391PEP     CB51942   4.550   6.490   8.854  0.0216  0.1111 -0.2759
 1391PEP     CB51943   4.650   6.292   9.171  0.0549 -0.0464  0.0079
 1391PEP     CB51944   5.040   6.151   9.260  0.0724 -0.1551  0.1045
 1391PEP     CB51945   5.361   5.848   9.199  0.1610 -0.0570  0.1023
 1391PEP     CB51946   5.497   5.523   8.999  0.1325 -0.2184 -0.1849
 1391PEP     CB51947   5.707   5.138   8.759 -0.0006  0.1571 -0.1589
 1391PEP     CB51948   5.624   4.720   8.641  0.1366  0.3027 -0.2019
 1391PEP     CB51949   5.446   4.339   8.515  0.0919 -0.0577  0.0338
 1391PEP     CB51950   5.364   3.858   8.513  0.3010  0.3892 -0.0069
 1391PEP     CB51951   5.554   3.467   8.600  0.0112 -0.1866  0.3515
 1391PEP     CB51952   5.699   3.149   8.692  0.0804 -0.3578  0.0447
 1391PEP     CB51953   5.803   2.826   8.993  0.2028  0.2682  0.0107
 1391PEP     CB51954   5.985   2.411   9.140 -0.2195 -0.3216 -0.3876
 1391PEP     CB51955   6.278   2.210   9.348  0.0842 -0.0337  0.2621
 1391PEP     CB51956   6.631   1.941   9.463 -0.0487  0.1823  0.3966
 1391PEP     CB51957   6.951   1.965   9.713 -0.2099 -0.2430  0.1448
 1391PEP     CB51958   6.971   2.169  10.105  0.0762 -0.1705  0.0728
 1391PEP     CB51959   6.808   2.476  10.298  0.0093  0.1867  0.3729
 1391PEP     CB51960   6.617   2.814  10.028 -0.2965 -0.4313 -0.0188
 1392PEP     CB51961  21.047  14.986  17.732  0.0764 -0.0393  0.1325
 1392PEP     CB51962  21.372  15.290  17.565 -0.1007  0.0824 -0.1212
 1392PEP     CB51963  21.320  15.790  17.450 -0.0604  0.2684  0.1173
 1392PEP     CB51964  20.903  15.939  17.345  0.5567  0.0022 -0.1402
 1392PEP     CB51965  20.553  15.687  17.256  0.4664  0.2149  0.2091
 1392PEP     CB51966  20.621  15.360  16.922  0.1364 -0.3054  0.1911
 1392PEP     CB51967  20.491  15.085  16.623 -0.1376 -0.1840 -0.2320
 1392PEP     CB51968  20.581  14.774  16.305 -0.1691 -0.2693 -0.3209
 1392PEP     CB51969  20.785  14.393  16.002 -0.0016 -0.1388  0.1263
 1392PEP     CB51970  21.207  14.351  15.736  0.0431  0.0096  0.0206
 1392PEP     CB51971  21.622  14.498  15.911 -0.2274  0.5044  0.0327
 1392PEP     CB51972  21.834  14.847  15.855  0.4322 -0.0939  0.0115
 1392PEP     CB51973  21.991  14.996  15.588 -0.3534 -0.2132  0.0880
 1392PEP     CB51974  22.038  14.794  15.177  0.0007 -0.2414 -0.0150
 1392PEP     CB51975  22.313  14.422  14.973 -0.5807 -0.0896 -0.1590
 1392PEP     CB51976  22.411  13.947  14.906  0.1482  0.1469 -0.1438
 1392PEP     CB51977  22.707  13.540  14.902  0.0766  0.1167  0.4940
 1392PEP     CB51978  22.657  13.078  15.030 -0.3703 -0.0148 -0.1437
 1392PEP     CB51979  22.314  12.787  15.248  0.0728  0.1452  0.0136
 1392PEP     CB51980  21.967  12.896  15.575 -0.4982 -0.0690 -0.0306
 1392PEP     CB51981  21.720  13.007  15.851 -0.0349 -0.6863  0.2442
 1392PEP     CB51982  21.429  13.323  15.963  0.1388 -0.3635  0.2466
 1392PEP     CB51983  21.186  13.543  16.254 -0.0868  0.0862  0.4235
 1392PEP     CB51984  20.880  13.696  16.198  0.1159 -0.4792  0.3641
 1392PEP     CB51985  20.553  14.034  16.236  0.0265  0.1619 -0.1421
 1392PEP     CB51986  20.174  14.035  16.056 -0.4817  0.2662 -0.0992
 1392PEP     CB51987  19.986  13.674  15.851 -0.0470  0.2120  0.4764
 1392PEP     CB51988  20.086  13.255  15.803  0.1453  0.0173 -0.0213
 1392PEP     CB51989  20.172  12.855  15.656 -0.0806  0.2620  0.1261
 1392PEP     CB51990  20.063  12.445  15.613  0.2578 -0.3399 -0.0721
 1392PEP     CB51991  19.708  12.173  15.557 -0.0514 -0.0696  0.3889
 1392PEP     CB51992  19.410  11.968  15.802 -0.0170 -0.2772  0.3562
 1392PEP     CB51993  19.414  11.972  16.268 -0.2857  0.2676 -0.3236
 1392PEP     CB51994  19.584  12.217  16.678 -0.0550 -0.0444  0.1438
 1392PEP     CB51995  19.601  12.575  17.097 -0.2556 -0.1637  0.0011
 1392PEP     CB51996  19.338  12.772  17.395 -0.2973  0.0834  0.1905
 1392PEP     CB51997  18.848  12.671  17.436 -0.1286 -0.0885 -0.1495
 1392PEP     CB51998  18.646  12.893  17.807  0.1799 -0.1451 -0.2032
 1392PEP     CB51999  18.406  12.911  18.251  0.1757 -0.2613  0.1076
 1392PEP     CB52000  18.127  12.762  18.575  0.6017  0.1977 -0.4055
 1393PEP     CB52001  11.734  19.383   9.036 -0.2958 -0.0447  0.1686
 1393PEP     CB52002  11.689  19.764   9.086 -0.0430  0.0695 -0.1446
 1393PEP     CB52003  11.616  20.196   9.249  0.1345  0.2085  0.2593
 1393PEP     CB52004  11.391  20.596   9.074  0.1887  0.2139  0.2828
 1393PEP     CB52005  10.930  20.589   8.847 -0.1382  0.0696 -0.4356
 1393PEP     CB52006  10.477  20.471   9.054  0.3549  0.2649 -0.1950
 1393PEP     CB52007  10.386  20.391   9.421  0.1015  0.0939  0.4067
 1393PEP     CB52008  10.515  19.933   9.575  0.0618 -0.0815  0.1125
 1393PEP     CB52009  10.600  19.569   9.351 -0.2819  0.1858 -0.1972
 1393PEP     CB52010  10.450  19.104   9.267 -0.0357  0.3710 -0.6259
 1393PEP     CB52011  10.097  18.965   9.333  0.1523  0.2230  0.0515
 1393PEP     CB52012   9.848  18.959   9.798  0.0450 -0.1405  0.1488
 1393PEP     CB52013  10.030  18.826  10.224  0.2772  0.0836  0.0082
 1393PEP     CB52014  10.177  18.843  10.667  0.1068 -0.2524 -0.2220
 1393PEP     CB52015  10.418  19.028  10.996  0.5493  0.0965 -0.2466
 1393PEP     CB52016  10.629  19.223  11.376  0.3808  0.2197  0.1133
 1393PEP     CB52017  10.534  19.625  11.457 -0.1570 -0.0159 -0.0855
 1393PEP     CB52018  10.429  19.932  11.134  0.0912 -0.1007  0.1736
 1393PEP     CB52019   9.968  19.839  10.962  0.1472  0.0810 -0.2522
 1393PEP     CB52020   9.629  19.655  11.330  0.4061  0.1501 -0.3828
 1393PEP     CB52021   9.716  19.758  11.728 -0.1644  0.1971 -0.2310
 1393PEP     CB52022  10.001  19.664  12.049  0.0209  0.0220 -0.1727
 1393PEP     CB52023  10.272  19.653  12.488  0.1892  0.0810  0.1322
 1393PEP     CB52024  10.623  19.756  12.767 -0.0938 -0.1093  0.6283
 1393PEP     CB52025  11.024  19.873  12.896  0.2309  0.0551  0.1623
 1393PEP     CB52026  11.432  19.732  12.956 -0.0111 -0.4513 -0.4261
 1393PEP     CB52027  11.853  19.732  13.067  0.1828  0.1097  0.3220
 1393PEP     CB52028  12.093  20.039  13.274 -0.0214 -0.0962  0.0391
 1393PEP     CB52029  11.956  20.328  13.584  0.4174  0.2468 -0.2084
 1393PEP     CB52030  11.550  20.437  13.624  0.5435  0.1849 -0.0920
 1393PEP     CB52031  11.254  20.645  13.887 -0.0412 -0.0309  0.1551
 1393PEP     CB52032  11.063  20.899  14.109 -0.1355 -0.4801 -0.1058
 1393PEP     CB52033  10.687  20.992  14.346  0.3022 -0.0411 -0.0872
 1393PEP     CB52034  10.614  21.264  14.663 -0.1810  0.1950 -0.1411
 1393PEP     CB52035  10.942  21.367  15.007  0.0497  0.2248 -0.1595
 1393PEP     CB52036  11.129  21.116  15.294  0.1654 -0.3088 -0.2121
 1393PEP     CB52037  11.314  21.074  15.801 -0.1916 -0.2433 -0.0431
 1393PEP     CB52038  11.293  21.080  16.221 -0.0107 -0.0421  0.3064
 1393PEP     CB52039  11.420  20.974  16.682 -0.1681 -0.1702  0.2383
 1393PEP     CB52040  11.759  21.088  16.963  0.0295 -0.0194  0.0670
 1394PEP     CB52041   1.158  17.008  14.208 -0.0674  0.0819  0.0977
 1394PEP     CB52042   1.318  17.380  14.306 -0.0409  0.2154  0.2181
 1394PEP     CB52043   1.470  17.502  14.666  0.0570  0.2942  0.0679
 1394PEP     CB52044   1.683  17.302  14.878 -0.3003  0.4762  0.0446
 1394PEP     CB52045   1.875  16.950  14.906 -0.1346  0.3510  0.0155
 1394PEP     CB52046   1.996  16.627  15.237 -0.0333 -0.1552  0.2440
 1394PEP     CB52047   1.923  16.268  15.413  0.0516  0.1755 -0.3641
 1394PEP     CB52048   2.003  15.903  15.604  0.0217  0.2455 -0.0357
 1394PEP     CB52049   2.363  15.784  16.014  0.1493  0.0570 -0.0088
 1394PEP     CB52050   2.677  16.104  16.201  0.0906  0.2235 -0.1653
 1394PEP     CB52051   2.723  16.503  16.147  0.0697 -0.1156 -0.0934
 1394PEP     CB52052   2.610  16.882  15.849  0.0441  0.2054  0.0230
 1394PEP     CB52053   2.227  16.946  15.632  0.2283  0.0661  0.1230
 1394PEP     CB52054   1.881  16.703  15.730 -0.2791 -0.2057 -0.0459
 1394PEP     CB52055   1.492  16.403  15.676  0.2478 -0.1124  0.3869
 1394PEP     CB52056   1.063  16.296  15.422  0.7590 -0.1932  0.0910
 1394PEP     CB52057   0.923  16.116  14.999 -0.1435 -0.5179  0.1938
 1394PEP     CB52058   0.924  16.207  14.579 -0.2639  0.7298 -0.1627
 1394PEP     CB52059   1.167  16.479  14.460 -0.1057  0.2991 -0.0232
 1394PEP     CB52060   1.517  16.588  14.722 -0.0366 -0.0704 -0.2488
 1394PEP     CB52061   1.500  16.474  15.177 -0.0131  0.5030 -0.1175
 1394PEP     CB52062   1.449  16.007  15.317  0.0019  0.2691 -0.0991
 1394PEP     CB52063   1.161  15.692  15.076  0.0954 -0.1559  0.2208
 1394PEP     CB52064   0.715  15.667  15.220  0.0173  0.4317 -0.4266
 1394PEP     CB52065   0.422  15.976  15.415  0.3299  0.2276 -0.2778
 1394PEP     CB52066   0.576  16.317  15.459 -0.5618  0.0441  0.1288
 1394PEP     CB52067   0.806  16.599  15.174 -0.0798  0.3000  0.4760
 1394PEP     CB52068   0.879  16.689  14.799  0.2321  0.0555  0.3922
 1394PEP     CB52069   0.714  16.710  14.356 -0.0732 -0.1886 -0.2132
 1394PEP     CB52070   0.352  16.502  14.219 -0.1472 -0.2541 -0.0021
 1394PEP     CB52071  -0.033  16.447  14.470 -0.2049 -0.2391 -0.1736
 1394PEP     CB52072  -0.145  16.537  14.875 -0.1721  0.1669 -0.0276
 1394PEP     CB52073  -0.002  16.476  15.240  0.0704 -0.0726  0.0602
 1394PEP     CB52074   0.120  16.522  15.616 -0.2213  0.1584  0.0643
 1394PEP     CB52075   0.007  16.131  15.810 -0.0990  0.2246 -0.5935
 1394PEP     CB52076  -0.038  15.760  15.602  0.1617 -0.0479  0.2299
 1394PEP     CB52077   0.072  15.617  15.232  0.1905  0.4191 -0.1101
 1394PEP     CB52078   0.437  15.876  14.918 -0.1845  0.1727 -0.1526
 1394PEP     CB52079   0.463  16.291  14.785 -0.3496  0.3501 -0.1358
 1394PEP     CB52080   0.371  16.704  14.892 -0.2191 -0.0374  0.1166
 1395PEP     CB52081  17.077  16.778   2.712  0.3165  0.3879 -0.1820
 1395PEP     CB52082  16.674  16.888   2.734  0.0275 -0.3079  0.1420
 1395PEP     CB52083  16.295  17.048   2.988  0.0227 -0.1535  0.2609
 1395PEP     CB52084  16.083  17.423   3.079  0.2428  0.0290  0.0864
 1395PEP     CB52085  16.044  17.917   2.991 -0.0859  0.0343  0.0028
 1395PEP     CB52086  16.021  18.078   2.504  0.1053 -0.0537 -0.1270
 1395PEP     CB52087  15.905  18.216   2.044  0.2485 -0.1092  0.0302
 1395PEP     CB52088  15.756  18.100   1.644 -0.0622 -0.3715  0.0296
 1395PEP     CB52089  15.694  18.183   1.195 -0.4852  0.3573  0.0056
 1395PEP     CB52090  15.442  18.261   0.794 -0.0235  0.1101 -0.1241
 1395PEP     CB52091  15.293  18.308   0.301  0.0217 -0.1355 -0.2738
 1395PEP     CB52092  15.151  18.512  -0.038  0.1020  0.2771 -0.2027
 1395PEP     CB52093  15.021  18.554  -0.457  0.2761 -0.2873 -0.2393
 1395PEP     CB52094  14.796  18.876  -0.755  0.3362 -0.3184  0.1258
 1395PEP     CB52095  14.621  19.127  -1.060  0.0973 -0.0391 -0.0167
 1395PEP     CB52096  14.429  19.370  -1.399  0.1831 -0.5320 -0.3085
 1395PEP     CB52097  14.033  19.622  -1.542  0.0529  0.5050 -0.1156
 1395PEP     CB52098  13.821  19.730  -1.965 -0.0171 -0.0155 -0.2885
 1395PEP     CB52099  13.513  19.886  -2.129 -0.2140 -0.5043 -0.4693
 1395PEP     CB52100  13.139  19.852  -2.308 -0.0372 -0.2465  0.3400
 1395PEP     CB52101  12.777  20.100  -2.339 -0.2493 -0.3734 -0.1430
 1395PEP     CB52102  12.611  20.423  -1.997  0.0208 -0.0233 -0.3318
 1395PEP     CB52103  12.802  20.795  -1.957 -0.2385 -0.1294 -0.1193
 1395PEP     CB52104  12.987  21.092  -2.315  0.0508  0.2811 -0.1707
 1395PEP     CB52105  12.973  21.316  -2.823 -0.0332  0.4166 -0.1923
 1395PEP     CB52106  13.172  21.378  -3.235  0.1717  0.0172 -0.0489
 1395PEP     CB52107  13.402  21.146  -3.633 -0.2515 -0.0725 -0.0396
 1395PEP     CB52108  13.754  20.932  -3.909  0.0492 -0.1072 -0.2497
 1395PEP     CB52109  14.111  20.807  -4.246 -0.0693  0.0482 -0.4440
 1395PEP     CB52110  14.552  20.764  -4.494  0.5619  0.1573 -0.1491
 1395PEP     CB52111  14.959  20.611  -4.717 -0.0801 -0.2643  0.1046
 1395PEP     CB52112  15.133  20.270  -4.520 -0.1533  0.4328 -0.1481
 1395PEP     CB52113  15.007  20.331  -4.101  0.3025  0.3036  0.0230
 1395PEP     CB52114  14.786  20.669  -3.858 -0.0838  0.2307 -0.2051
 1395PEP     CB52115  14.694  21.057  -3.888 -0.2482 -0.1776 -0.2022
 1395PEP     CB52116  14.581  21.455  -4.049 -0.4085  0.0812 -0.0502
 1395PEP     CB52117  14.581  21.638  -4.364 -0.0509  0.0976  0.3246
 1395PEP     CB52118  14.875  21.519  -4.669  0.0322 -0.1570 -0.0866
 1395PEP     CB52119  15.292  21.437  -4.784 -0.1313  0.0278  0.1383
 1395PEP     CB52120  15.502  21.201  -5.051  0.1120  0.1999 -0.3167
 1396PEP     CB52121   1.226  19.282  15.125  0.2179  0.3424 -0.0196
 1396PEP     CB52122   1.236  19.136  15.530  0.0244 -0.1842 -0.0005
 1396PEP     CB52123   1.284  18.716  15.578  0.2682 -0.1913  0.3284
 1396PEP     CB52124   1.649  18.434  15.494 -0.1737 -0.3012 -0.4289
 1396PEP     CB52125   1.982  18.216  15.277 -0.0776 -0.0039  0.1236
 1396PEP     CB52126   2.064  18.021  14.906  0.1901 -0.1753 -0.0464
 1396PEP     CB52127   2.113  17.637  14.721 -0.3461  0.0646 -0.3479
 1396PEP     CB52128   2.120  17.178  14.603 -0.1457 -0.0059  0.4063
 1396PEP     CB52129   2.164  16.729  14.518  0.1417  0.1747 -0.3716
 1396PEP     CB52130   2.287  16.274  14.204 -0.3136  0.2815  0.2386
 1396PEP     CB52131   2.692  16.076  14.250 -0.1636  0.1112 -0.0603
 1396PEP     CB52132   3.076  16.047  14.566  0.0264  0.1204  0.4938
 1396PEP     CB52133   3.391  16.274  14.759 -0.4101  0.2127  0.2088
 1396PEP     CB52134   3.411  16.676  14.850  0.6790  0.1546  0.2030
 1396PEP     CB52135   3.230  17.004  14.533 -0.2439  0.1405  0.0012
 1396PEP     CB52136   2.935  17.145  14.291 -0.2392  0.2743 -0.3538
 1396PEP     CB52137   2.724  17.554  14.028 -0.0815  0.0466 -0.0794
 1396PEP     CB52138   2.665  17.943  13.839  0.5135 -0.3085 -0.0333
 1396PEP     CB52139   2.617  18.344  13.572  0.4881  0.0795  0.1368
 1396PEP     CB52140   2.564  18.584  13.160  0.1190  0.3021  0.2590
 1396PEP     CB52141   2.483  19.000  13.110  0.0646  0.0883 -0.0580
 1396PEP     CB52142   2.400  19.349  13.491 -0.2317 -0.0692 -0.0599
 1396PEP     CB52143   2.340  19.331  14.004 -0.0945 -0.2577  0.1119
 1396PEP     CB52144   2.425  19.414  14.429  0.1078  0.2155 -0.3023
 1396PEP     CB52145   2.530  19.626  14.834  0.1961  0.2631 -0.1990
 1396PEP     CB52146   2.930  19.757  15.125 -0.0191  0.2886 -0.0751
 1396PEP     CB52147   3.176  19.960  15.482 -0.1095 -0.1927  0.0735
 1396PEP     CB52148   3.360  19.892  15.766 -0.2419 -0.2818  0.0366
 1396PEP     CB52149   3.777  19.751  15.908  0.1256  0.1290 -0.1957
 1396PEP     CB52150   4.216  19.824  15.998 -0.4539  0.3326  0.4580
 1396PEP     CB52151   4.486  19.806  16.404 -0.0767  0.1833 -0.0838
 1396PEP     CB52152   4.351  19.848  16.873 -0.0574 -0.0519  0.5714
 1396PEP     CB52153   4.176  19.584  17.125 -0.3820 -0.0069  0.0921
 1396PEP     CB52154   3.875  19.474  17.378 -0.3812  0.1863  0.1220
 1396PEP     CB52155   3.424  19.609  17.473 -0.0533  0.0094 -0.1666
 1396PEP     CB52156   3.185  19.962  17.675 -0.2880  0.1139 -0.1865
 1396PEP     CB52157   2.818  20.219  17.708 -0.2050 -0.0878 -0.0687
 1396PEP     CB52158   2.669  20.507  17.383  0.1545 -0.0330 -0.1399
 1396PEP     CB52159   2.849  20.577  16.999  0.0083  0.1992  0.1752
 1396PEP     CB52160   3.073  20.471  16.665 -0.0201  0.3930 -0.2231
 1397PEP     CB52161  19.908  21.206   8.759 -0.3194 -0.2327 -0.0832
 1397PEP     CB52162  20.095  21.133   8.303  0.0015 -0.0954  0.0014
 1397PEP     CB52163  20.244  21.409   7.983  0.0668  0.0579 -0.2118
 1397PEP     CB52164  20.451  21.786   8.034  0.1617 -0.0207 -0.2574
 1397PEP     CB52165  20.563  21.825   8.452 -0.2412 -0.1744  0.1460
 1397PEP     CB52166  20.584  21.617   8.843 -0.0074 -0.2933  0.1662
 1397PEP     CB52167  20.324  21.409   8.991 -0.1546  0.3050  0.3581
 1397PEP     CB52168  19.872  21.486   9.248  0.0286 -0.4464 -0.0263
 1397PEP     CB52169  19.640  21.281   9.502  0.2296  0.1964 -0.0376
 1397PEP     CB52170  19.702  21.322  10.006  0.2044 -0.0924 -0.2994
 1397PEP     CB52171  19.797  21.667  10.193 -0.3744 -0.2651 -0.2603
 1397PEP     CB52172  19.918  22.145  10.037  0.1521 -0.0365 -0.0739
 1397PEP     CB52173  20.301  22.368  10.004  0.2378 -0.2794  0.1488
 1397PEP     CB52174  20.780  22.323  10.066 -0.0104  0.1745 -0.0755
 1397PEP     CB52175  21.125  22.423  10.255 -0.1796 -0.0560 -0.1011
 1397PEP     CB52176  21.348  22.331  10.704  0.0801 -0.0056  0.0992
 1397PEP     CB52177  21.717  22.186  10.948  0.2732 -0.1384  0.0844
 1397PEP     CB52178  22.118  22.263  10.927  0.1196 -0.0231 -0.0861
 1397PEP     CB52179  22.551  22.332  11.079  0.2163  0.0445  0.0867
 1397PEP     CB52180  22.930  22.036  11.085 -0.1026  0.2361 -0.1330
 1397PEP     CB52181  23.343  21.771  11.080 -0.2382 -0.0122 -0.1654
 1397PEP     CB52182  23.776  21.493  11.024 -0.2180 -0.2902  0.1772
 1397PEP     CB52183  23.830  21.193  11.227 -0.0756 -0.1617  0.1310
 1397PEP     CB52184  23.572  20.909  11.562 -0.0880  0.2084  0.0198
 1397PEP     CB52185  23.167  20.815  11.528  0.0601  0.2301 -0.0182
 1397PEP     CB52186  22.747  20.922  11.591  0.3645  0.0011 -0.2048
 1397PEP     CB52187  22.486  21.217  11.576 -0.0247 -0.1608  0.1487
 1397PEP     CB52188  22.217  21.603  11.699  0.0259 -0.1543  0.0167
 1397PEP     CB52189  22.045  21.885  11.976  0.2127 -0.2945  0.0977
 1397PEP     CB52190  22.078  22.318  12.227  0.1358 -0.1357  0.1466
 1397PEP     CB52191  22.408  22.524  12.337  0.3649 -0.1705 -0.4002
 1397PEP     CB52192  22.786  22.551  12.166  0.1625  0.0290 -0.1011
 1397PEP     CB52193  23.127  22.573  12.329 -0.1876  0.0126 -0.0767
 1397PEP     CB52194  23.437  22.221  12.417  0.0547 -0.1599  0.0005
 1397PEP     CB52195  23.256  21.875  12.554  0.3780  0.3140 -0.1487
 1397PEP     CB52196  22.936  21.540  12.601 -0.2128 -0.0915 -0.1474
 1397PEP     CB52197  22.774  21.306  12.261  0.0981 -0.1309  0.0977
 1397PEP     CB52198  22.745  20.888  12.116 -0.1752  0.4051  0.0332
 1397PEP     CB52199  22.928  20.674  11.975 -0.1952 -0.3866  0.3454
 1397PEP     CB52200  23.235  20.339  11.977  0.0692 -0.2470  0.1479
 1398PEP     CB52201  16.486   9.865  18.075 -0.4716 -0.3738  0.1117
 1398PEP     CB52202  16.302  10.071  17.767 -0.5055 -0.1711 -0.4311
 1398PEP     CB52203  16.352  10.371  17.453  0.4246  0.2971 -0.2641
 1398PEP     CB52204  16.125  10.442  17.216 -0.1715  0.1502 -0.2004
 1398PEP     CB52205  15.802  10.067  17.164  0.0312  0.2464  0.0040
 1398PEP     CB52206  15.746   9.903  17.480 -0.0906  0.0307 -0.0926
 1398PEP     CB52207  15.829  10.189  17.808 -0.1682 -0.0337 -0.2247
 1398PEP     CB52208  16.049  10.610  17.795  0.0845  0.3507 -0.0069
 1398PEP     CB52209  16.110  10.883  17.460  0.0731 -0.1908  0.0773
 1398PEP     CB52210  16.075  11.277  17.457 -0.1242  0.3166  0.1536
 1398PEP     CB52211  16.438  11.596  17.435  0.2744 -0.2449  0.1201
 1398PEP     CB52212  16.764  11.615  17.254  0.3132  0.0179  0.4066
 1398PEP     CB52213  17.120  11.401  17.228 -0.1972  0.5204  0.3053
 1398PEP     CB52214  17.233  11.007  17.166  0.1431 -0.2158 -0.2925
 1398PEP     CB52215  17.479  10.830  17.357 -0.2493  0.2342 -0.1509
 1398PEP     CB52216  17.672  10.753  17.718 -0.4361  0.2787  0.1739
 1398PEP     CB52217  17.975  10.973  18.020  0.1839  0.0346 -0.0608
 1398PEP     CB52218  18.009  11.180  18.403  0.0153 -0.3850 -0.0284
 1398PEP     CB52219  18.227  11.495  18.497 -0.1576 -0.5091 -0.0641
 1398PEP     CB52220  18.537  11.631  18.363 -0.0310  0.0197  0.1073
 1398PEP     CB52221  18.769  11.900  18.209 -0.2578  0.1276 -0.1054
 1398PEP     CB52222  19.082  12.132  18.387  0.2378  0.0449  0.3464
 1398PEP     CB52223  19.257  12.144  18.818 -0.1267  0.5354 -0.0303
 1398PEP     CB52224  19.668  11.941  19.052 -0.0204 -0.0492 -0.2603
 1398PEP     CB52225  20.065  11.734  19.043 -0.4654 -0.1977 -0.1855
 1398PEP     CB52226  20.314  11.598  19.400  0.2055  0.3979 -0.1904
 1398PEP     CB52227  20.219  11.762  19.782  0.0805  0.2797  0.1577
 1398PEP     CB52228  19.815  11.521  20.075  0.0586  0.0473  0.1596
 1398PEP     CB52229  19.622  11.123  20.042 -0.0506  0.0478  0.1580
 1398PEP     CB52230  19.558  10.700  19.842  0.0562  0.2140 -0.0781
 1398PEP     CB52231  19.769  10.509  19.485  0.3902  0.1259 -0.1305
 1398PEP     CB52232  20.075  10.474  19.269 -0.0532 -0.2026  0.2890
 1398PEP     CB52233  20.526  10.308  19.117  0.3083  0.0767  0.0299
 1398PEP     CB52234  20.933  10.329  19.217 -0.0249  0.0168  0.3950
 1398PEP     CB52235  21.352  10.385  19.203 -0.0409 -0.1089 -0.1823
 1398PEP     CB52236  21.838  10.301  19.331 -0.1016 -0.5579 -0.1903
 1398PEP     CB52237  22.088  10.221  19.100 -0.0339  0.0432  0.0162
 1398PEP     CB52238  22.415  10.364  18.867 -0.0863  0.2005 -0.2861
 1398PEP     CB52239  22.674  10.279  18.604 -0.2017  0.1700 -0.2418
 1398PEP     CB52240  22.685  10.169  18.177  0.2579 -0.1779 -0.1715
 1399PEP     CB52241  16.470   8.409   4.422  0.0938  0.1290  0.4040
 1399PEP     CB52242  16.738   8.324   4.040  0.0038 -0.2552 -0.2894
 1399PEP     CB52243  16.874   8.137   3.568 -0.1748 -0.1797  0.3669
 1399PEP     CB52244  16.963   8.304   3.180 -0.1229 -0.1965  0.0995
 1399PEP     CB52245  16.804   8.759   3.112 -0.1852 -0.2193  0.1050
 1399PEP     CB52246  16.603   9.027   3.395  0.3032  0.3370 -0.1613
 1399PEP     CB52247  16.807   9.106   3.830  0.1346  0.0984  0.3636
 1399PEP     CB52248  16.657   9.313   4.295 -0.0990 -0.3128 -0.2377
 1399PEP     CB52249  16.198   9.245   4.489 -0.1042 -0.3098  0.0561
 1399PEP     CB52250  15.904   9.091   4.301  0.3128  0.1790 -0.2403
 1399PEP     CB52251  15.684   8.793   4.042 -0.0816  0.2389 -0.1732
 1399PEP     CB52252  15.531   8.624   3.656  0.0879  0.2961 -0.2022
 1399PEP     CB52253  15.383   8.249   3.403 -0.1097  0.4006  0.1087
 1399PEP     CB52254  15.215   8.058   3.072 -0.1533 -0.0777  0.2665
 1399PEP     CB52255  14.932   7.866   2.787 -0.0219 -0.3008  0.0868
 1399PEP     CB52256  14.945   7.576   2.497 -0.4977  0.0908  0.2114
 1399PEP     CB52257  15.042   7.580   2.024 -0.3618  0.2660  0.1973
 1399PEP     CB52258  15.293   7.491   1.650  0.0819 -0.0847 -0.1964
 1399PEP     CB52259  15.654   7.622   1.363  0.0186  0.0039 -0.2098
 1399PEP     CB52260  16.120   7.684   1.425  0.6783 -0.1791  0.0210
 1399PEP     CB52261  16.512   7.716   1.434 -0.0399  0.1245 -0.1686
 1399PEP     CB52262  16.940   7.797   1.275 -0.0353 -0.1902  0.3589
 1399PEP     CB52263  17.257   7.899   1.062 -0.3675  0.0419  0.0937
 1399PEP     CB52264  17.478   7.831   0.747 -0.2741  0.1439 -0.0735
 1399PEP     CB52265  17.853   7.871   0.498  0.1778  0.1408 -0.1671
 1399PEP     CB52266  18.065   7.923   0.089 -0.0326 -0.0384  0.0960
 1399PEP     CB52267  18.509   7.964  -0.137 -0.0318 -0.0581  0.0263
 1399PEP     CB52268  18.937   7.798  -0.085 -0.0625  0.1587  0.6479
 1399PEP     CB52269  19.325   7.795  -0.015  0.1881 -0.2063  0.1738
 1399PEP     CB52270  19.699   7.814   0.184  0.2627  0.0296 -0.1574
 1399PEP     CB52271  19.938   7.569   0.410 -0.1460 -0.0986 -0.2123
 1399PEP     CB52272  20.163   7.556   0.816  0.0449  0.0949 -0.1252
 1399PEP     CB52273  20.554   7.803   0.882 -0.0833  0.2053  0.5709
 1399PEP     CB52274  20.712   8.083   0.626 -0.1175  0.2011 -0.1841
 1399PEP     CB52275  20.566   8.352   0.360 -0.3315 -0.1340  0.3760
 1399PEP     CB52276  20.255   8.715   0.249  0.0952  0.0369  0.1469
 1399PEP     CB52277  19.855   8.598  -0.070 -0.3290 -0.1653  0.3180
 1399PEP     CB52278  19.700   8.180  -0.221 -0.1393 -0.2109  0.0867
 1399PEP     CB52279  19.819   7.771  -0.412 -0.1286 -0.0671 -0.0570
 1399PEP     CB52280  20.063   7.358  -0.476  0.1578  0.1213 -0.4024
 1400PEP     CB52281   8.777  16.337   4.935 -0.3824 -0.0917 -0.0132
 1400PEP     CB52282   8.534  15.975   4.702  0.0701  0.0139 -0.0204
 1400PEP     CB52283   8.177  15.738   4.398 -0.0011 -0.1690 -0.1551
 1400PEP     CB52284   8.036  15.652   3.974 -0.1149  0.0153 -0.5733
 1400PEP     CB52285   8.106  15.809   3.601 -0.3506  0.2190 -0.3476
 1400PEP     CB52286   8.084  15.979   3.189  0.1599 -0.3167 -0.1538
 1400PEP     CB52287   7.835  15.869   2.794 -0.1755 -0.1790  0.0119
 1400PEP     CB52288   7.636  15.897   2.410 -0.0907 -0.0728 -0.2099
 1400PEP     CB52289   7.248  16.050   2.199 -0.1027  0.0190 -0.2805
 1400PEP     CB52290   6.799  16.002   2.063  0.3522  0.3069 -0.0642
 1400PEP     CB52291   6.503  16.132   1.790 -0.0993  0.1227 -0.1808
 1400PEP     CB52292   6.125  15.997   1.526  0.2696  0.1997  0.0175
 1400PEP     CB52293   5.614  15.741   1.465  0.2926  0.1115 -0.2926
 1400PEP     CB52294   5.333  15.456   1.385 -0.3953 -0.2382 -0.2398
 1400PEP     CB52295   4.974  15.300   1.176 -0.0095 -0.2621  0.3206
 1400PEP     CB52296   4.535  15.275   0.874  0.1912 -0.1793 -0.0120
 1400PEP     CB52297   4.138  15.273   1.044  0.1509 -0.0625  0.4167
 1400PEP     CB52298   3.924  14.922   1.245 -0.1141 -0.2792  0.2109
 1400PEP     CB52299   4.097  14.470   1.480 -0.1256  0.1583 -0.3620
 1400PEP     CB52300   4.440  14.266   1.494  0.0157 -0.1729  0.0402
 1400PEP     CB52301   4.710  14.001   1.243  0.0148  0.0730  0.2312
 1400PEP     CB52302   4.874  13.544   1.265 -0.3367  0.1876 -0.0236
 1400PEP     CB52303   4.829  13.094   1.127 -0.3475 -0.1184 -0.0993
 1400PEP     CB52304   5.000  12.785   0.981 -0.1743 -0.1196 -0.3446
 1400PEP     CB52305   4.974  12.376   0.791  0.3392  0.1808  0.6256
 1400PEP     CB52306   4.948  12.023   0.845 -0.3235  0.4410  0.2497
 1400PEP     CB52307   4.577  11.630   0.794  0.0296  0.1235  0.1345
 1400PEP     CB52308   4.168  11.536   0.619 -0.0046 -0.1204 -0.3112
 1400PEP     CB52309   3.907  11.744   0.308 -0.2619  0.2196 -0.1259
 1400PEP     CB52310   3.765  12.142   0.298  0.1377 -0.0627  0.3282
 1400PEP     CB52311   3.533  12.413   0.027 -0.5214  0.3536  0.0423
 1400PEP     CB52312   3.649  12.535  -0.366  0.0201  0.0810  0.0323
 1400PEP     CB52313   3.816  12.799  -0.755  0.4397 -0.3490  0.0509
 1400PEP     CB52314   4.000  13.170  -0.874  0.5913 -0.2621  0.0942
 1400PEP     CB52315   3.853  13.486  -1.258  0.1046 -0.0401 -0.0367
 1400PEP     CB52316   3.800  13.881  -1.385  0.3434  0.0288 -0.0526
 1400PEP     CB52317   3.673  14.247  -1.358 -0.3866  0.3941  0.1762
 1400PEP     CB52318   3.464  14.604  -1.142  0.4546  0.0388  0.0993
 1400PEP     CB52319   3.341  14.716  -0.670  0.2023 -0.3080 -0.3284
 1400PEP     CB52320   3.059  14.894  -0.387  0.2885 -0.0753  0.1588
 1401PEP     CB52321   7.501  18.427  11.636  0.1876  0.1364  0.3753
 1401PEP     CB52322   7.710  18.802  11.489 -0.0820  0.0306 -0.0075
 1401PEP     CB52323   7.757  18.971  11.102  0.2428 -0.5623  0.1679
 1401PEP     CB52324   8.065  18.938  10.709  0.0158  0.3290  0.0074
 1401PEP     CB52325   7.926  18.851  10.210 -0.3014  0.2012 -0.3237
 1401PEP     CB52326   7.996  18.944   9.688 -0.3774  0.4145  0.1685
 1401PEP     CB52327   8.008  19.239   9.306  0.0706 -0.0134  0.0682
 1401PEP     CB52328   8.327  19.400   9.125 -0.0452  0.2913  0.2280
 1401PEP     CB52329   8.730  19.383   9.322 -0.1765  0.2021 -0.0063
 1401PEP     CB52330   8.909  19.081   9.576  0.0203  0.2196 -0.1651
 1401PEP     CB52331   8.643  18.603   9.673 -0.2221 -0.2404  0.1503
 1401PEP     CB52332   8.731  18.279   9.818  0.0834 -0.1422 -0.0554
 1401PEP     CB52333   8.765  18.123  10.201 -0.1015 -0.0204  0.2837
 1401PEP     CB52334   8.989  17.918  10.574 -0.1468 -0.0623 -0.0957
 1401PEP     CB52335   9.313  17.489  10.799  0.2336  0.1279  0.0019
 1401PEP     CB52336   9.560  17.189  10.993 -0.1810  0.1229 -0.0272
 1401PEP     CB52337   9.662  16.882  11.379  0.0455  0.2493 -0.4290
 1401PEP     CB52338   9.872  16.560  11.411 -0.2867  0.1612  0.0913
 1401PEP     CB52339  10.133  16.357  11.068  0.0550 -0.2441  0.1056
 1401PEP     CB52340  10.256  16.545  10.643  0.1193 -0.0286 -0.1417
 1401PEP     CB52341  10.369  16.847  10.215  0.1076  0.0878 -0.2104
 1401PEP     CB52342  10.420  16.905   9.816  0.4353 -0.2415 -0.2592
 1401PEP     CB52343  10.294  16.811   9.394  0.0891  0.0587  0.2620
 1401PEP     CB52344  10.415  16.434   9.099  0.1426  0.0885 -0.2716
 1401PEP     CB52345  10.568  15.994   9.058  0.1448 -0.1486  0.0387
 1401PEP     CB52346  10.909  15.715   9.202  0.0714 -0.1122  0.0368
 1401PEP     CB52347  11.390  15.626   9.108 -0.1610  0.3460  0.0952
 1401PEP     CB52348  11.822  15.454   9.030  0.0443  0.2110 -0.3514
 1401PEP     CB52349  12.293  15.273   8.862  0.2943 -0.6025 -0.0749
 1401PEP     CB52350  12.542  15.309   8.535 -0.1235 -0.0096 -0.3049
 1401PEP     CB52351  12.723  14.940   8.258 -0.1366 -0.0392 -0.1899
 1401PEP     CB52352  12.502  14.559   8.117  0.1291 -0.0264  0.0329
 1401PEP     CB52353  12.258  14.370   7.849  0.1877 -0.0366 -0.2339
 1401PEP     CB52354  11.959  14.581   7.642  0.0321  0.0812 -0.3426
 1401PEP     CB52355  11.791  14.999   7.642 -0.1703  0.1008 -0.0510
 1401PEP     CB52356  11.723  15.275   7.271  0.0571 -0.1727  0.1572
 1401PEP     CB52357  11.590  15.012   6.889 -0.1703 -0.0969 -0.2608
 1401PEP     CB52358  11.394  14.675   6.794 -0.1554 -0.1419  0.2411
 1401PEP     CB52359  11.086  14.299   6.742  0.0168  0.1998  0.3199
 1401PEP     CB52360  10.783  14.055   6.890  0.1065  0.0984  0.1559
 1402PEP     CB52361   3.822   3.358  16.160  0.0501  0.0733 -0.1321
 1402PEP     CB52362   4.011   3.708  16.367  0.1979  0.2964  0.0561
 1402PEP     CB52363   4.259   4.100  16.225  0.1225 -0.0562 -0.2090
 1402PEP     CB52364   4.099   4.463  16.054 -0.2662  0.0233  0.1234
 1402PEP     CB52365   3.726   4.627  15.933 -0.0425 -0.0635 -0.2032
 1402PEP     CB52366   3.382   4.434  15.826 -0.1457 -0.0463  0.2491
 1402PEP     CB52367   3.081   4.054  15.931  0.1444 -0.0601 -0.1768
 1402PEP     CB52368   2.766   3.818  15.931 -0.2024  0.1120 -0.0918
 1402PEP     CB52369   2.352   3.771  16.093  0.1734 -0.1857  0.0492
 1402PEP     CB52370   1.956   3.573  16.310 -0.3398  0.1605  0.3434
 1402PEP     CB52371   1.456   3.682  16.235 -0.1948 -0.1691 -0.1241
 1402PEP     CB52372   0.995   3.754  15.917  0.4109 -0.0409 -0.2261
 1402PEP     CB52373   0.971   4.092  15.815 -0.0998 -0.1606 -0.4413
 1402PEP     CB52374   1.165   4.466  15.644 -0.0125 -0.0428  0.1718
 1402PEP     CB52375   1.388   4.894  15.760 -0.1790 -0.0550 -0.4780
 1402PEP     CB52376   1.427   5.270  15.475 -0.0708 -0.0097 -0.0960
 1402PEP     CB52377   1.567   5.275  15.088 -0.0800 -0.0873  0.2157
 1402PEP     CB52378   1.448   5.218  14.691 -0.1919 -0.1290  0.0649
 1402PEP     CB52379   1.246   5.450  14.325 -0.1723 -0.1429  0.0270
 1402PEP     CB52380   1.400   5.898  14.186  0.0658 -0.0274  0.3744
 1402PEP     CB52381   1.666   6.205  14.025  0.0462  0.1592 -0.0673
 1402PEP     CB52382   2.070   6.395  14.138  0.1655  0.3215 -0.2503
 1402PEP     CB52383   2.387   6.554  14.393  0.0341 -0.2072  0.0584
 1402PEP     CB52384   2.661   6.720  14.562 -0.4028  0.0043 -0.3667
 1402PEP     CB52385   2.940   6.994  14.436 -0.0029  0.1002  0.0208
 1402PEP     CB52386   3.223   7.283  14.380  0.3570  0.0903  0.1059
 1402PEP     CB52387   3.343   7.694  14.535 -0.1022 -0.1826 -0.1488
 1402PEP     CB52388   3.696   7.962  14.679 -0.0337  0.2943  0.3416
 1402PEP     CB52389   3.960   7.816  14.920  0.3066 -0.1024  0.1061
 1402PEP     CB52390   4.055   7.469  14.879 -0.2192 -0.1795 -0.2258
 1402PEP     CB52391   4.401   7.255  14.820 -0.0377 -0.0932  0.0214
 1402PEP     CB52392   4.901   7.296  14.786 -0.0248  0.0609 -0.5156
 1402PEP     CB52393   5.213   7.666  14.751  0.2844 -0.0787 -0.1539
 1402PEP     CB52394   5.476   7.873  14.364  0.3471 -0.3113 -0.2680
 1402PEP     CB52395   5.500   7.686  14.001 -0.3413 -0.0793  0.0374
 1402PEP     CB52396   5.607   7.516  13.654 -0.1174  0.2615 -0.1986
 1402PEP     CB52397   5.704   7.312  13.267  0.0536 -0.3333  0.4370
 1402PEP     CB52398   5.511   7.430  12.879 -0.1751 -0.1001 -0.0697
 1402PEP     CB52399   5.320   7.257  12.553  0.0808 -0.3084 -0.0663
 1402PEP     CB52400   5.371   7.341  12.166 -0.2758  0.2834 -0.1152
 1403PEP     CB52401  13.111  17.220  19.566 -0.6512 -0.1738  0.1220
 1403PEP     CB52402  13.006  16.782  19.457  0.1151 -0.0052  0.0661
 1403PEP     CB52403  12.910  16.204  19.360  0.2297 -0.0423 -0.3352
 1403PEP     CB52404  12.675  15.901  19.665  0.0565 -0.1305  0.0741
 1403PEP     CB52405  12.545  15.631  20.065 -0.3067  0.2968  0.4239
 1403PEP     CB52406  12.409  15.395  20.406 -0.0419 -0.3563  0.3804
 1403PEP     CB52407  12.217  15.320  20.801 -0.3000  0.0413  0.0282
 1403PEP     CB52408  11.925  15.063  21.029  0.3626  0.1766  0.1038
 1403PEP     CB52409  11.617  15.215  21.344 -0.1367 -0.0160 -0.2299
 1403PEP     CB52410  11.457  15.662  21.427 -0.2485 -0.0149  0.0246
 1403PEP     CB52411  11.416  16.156  21.371  0.3692 -0.0497  0.2286
 1403PEP     CB52412  11.414  16.574  21.467  0.0536 -0.2442 -0.2073
 1403PEP     CB52413  11.279  16.858  21.742 -0.0660  0.0678 -0.1620
 1403PEP     CB52414  11.284  17.172  22.092  0.4496  0.2395  0.1968
 1403PEP     CB52415  11.362  17.418  22.448  0.3249  0.4082  0.1900
 1403PEP     CB52416  11.708  17.514  22.845  0.2590 -0.0680 -0.2719
 1403PEP     CB52417  12.005  17.442  23.039  0.0418 -0.2109  0.0274
 1403PEP     CB52418  12.071  17.188  23.335  0.1635  0.1079  0.2133
 1403PEP     CB52419  12.073  16.802  23.582  0.2905  0.2948 -0.0422
 1403PEP     CB52420  11.815  16.463  23.483 -0.4447 -0.1242 -0.2486
 1403PEP     CB52421  11.313  16.473  23.465 -0.1935  0.2654  0.0764
 1403PEP     CB52422  11.131  16.749  23.787  0.1641 -0.2019 -0.1039
 1403PEP     CB52423  11.411  16.839  24.252 -0.0934 -0.1399  0.1306
 1403PEP     CB52424  11.693  16.523  24.508  0.2052  0.0471  0.1594
 1403PEP     CB52425  11.612  16.014  24.542 -0.3880 -0.1102 -0.5069
 1403PEP     CB52426  11.720  15.645  24.880 -0.0894  0.0633  0.1853
 1403PEP     CB52427  11.995  15.598  25.223  0.1653 -0.0421 -0.2314
 1403PEP     CB52428  12.242  15.796  25.482 -0.1182  0.0765  0.0502
 1403PEP     CB52429  12.422  16.153  25.546 -0.0965  0.1836  0.3218
 1403PEP     CB52430  12.679  16.355  25.130  0.1707 -0.1540 -0.1232
 1403PEP     CB52431  12.652  16.538  24.653  0.0170 -0.3672  0.0314
 1403PEP     CB52432  12.315  16.697  24.377  0.0919  0.0929 -0.0945
 1403PEP     CB52433  11.942  16.840  24.237 -0.4142 -0.1400 -0.1442
 1403PEP     CB52434  11.629  16.747  23.844  0.2870  0.1956 -0.0302
 1403PEP     CB52435  11.540  16.930  23.491 -0.2995  0.1102  0.2944
 1403PEP     CB52436  11.431  17.369  23.255 -0.3135  0.2175  0.2919
 1403PEP     CB52437  11.106  17.550  23.049 -0.1907 -0.1411 -0.0639
 1403PEP     CB52438  10.732  17.625  22.929  0.2062  0.0213  0.2481
 1403PEP     CB52439  10.338  17.802  22.856 -0.2557 -0.1365 -0.1014
 1403PEP     CB52440  10.015  18.127  22.775 -0.4777  0.0874  0.0100
 1404PEP     CB52441  12.199  11.359   2.381 -0.0796  0.1925  0.2239
 1404PEP     CB52442  12.438  11.738   2.556  0.0395  0.3000 -0.2174
 1404PEP     CB52443  12.919  11.836   2.660  0.3554  0.0778 -0.1416
 1404PEP     CB52444  13.234  11.876   2.978  0.0733  0.0392 -0.3848
 1404PEP     CB52445  13.303  12.072   3.334  0.2185 -0.2278 -0.2017
 1404PEP     CB52446  13.598  12.073   3.648  0.2184  0.0150  0.1285
 1404PEP     CB52447  14.003  12.094   3.521  0.0431 -0.1901  0.0811
 1404PEP     CB52448  14.328  11.957   3.360  0.1246 -0.2789 -0.2442
 1404PEP     CB52449  14.498  11.733   3.109 -0.0095  0.0060 -0.0710
 1404PEP     CB52450  14.618  11.628   2.638  0.0924  0.2680  0.1419
 1404PEP     CB52451  14.685  11.375   2.269  0.6353 -0.0865 -0.0863
 1404PEP     CB52452  14.901  11.227   1.928  0.2967 -0.4876  0.1985
 1404PEP     CB52453  14.847  10.824   1.644  0.2299 -0.2843 -0.0149
 1404PEP     CB52454  14.793  10.363   1.601 -0.0556  0.0476  0.1175
 1404PEP     CB52455  14.647  10.108   1.794  0.1927 -0.1861  0.0031
 1404PEP     CB52456  14.540   9.640   1.800  0.2811  0.1181  0.4549
 1404PEP     CB52457  14.574   9.391   1.423  0.3430  0.0182 -0.2311
 1404PEP     CB52458  14.905   9.124   1.208 -0.0657 -0.4047 -0.2736
 1404PEP     CB52459  15.178   8.862   0.870  0.0262  0.2096 -0.1226
 1404PEP     CB52460  15.215   8.671   0.513 -0.3893  0.1967  0.0245
 1404PEP     CB52461  15.288   8.748   0.076 -0.3724  0.0788  0.0681
 1404PEP     CB52462  15.306   8.507  -0.367  0.1258 -0.0552 -0.1336
 1404PEP     CB52463  15.178   8.556  -0.824 -0.2393  0.0028  0.1152
 1404PEP     CB52464  14.761   8.648  -0.989 -0.3950 -0.0538 -0.0374
 1404PEP     CB52465  14.455   9.006  -0.864  0.2987 -0.1571  0.3143
 1404PEP     CB52466  14.448   9.376  -0.557 -0.3367  0.2782 -0.0189
 1404PEP     CB52467  14.620   9.629  -0.224 -0.4126 -0.1926  0.5111
 1404PEP     CB52468  14.522  10.009  -0.038 -0.1182 -0.0168 -0.2394
 1404PEP     CB52469  14.216  10.347  -0.183 -0.0234  0.3604  0.1754
 1404PEP     CB52470  14.198  10.660  -0.283 -0.1180 -0.2506  0.0862
 1404PEP     CB52471  14.141  11.119  -0.374 -0.0141  0.1116 -0.1720
 1404PEP     CB52472  13.862  11.484  -0.454 -0.0153 -0.4059  0.0597
 1404PEP     CB52473  13.438  11.596  -0.607  0.4329  0.2403  0.4359
 1404PEP     CB52474  13.181  11.737  -0.845 -0.0484  0.0560  0.0182
 1404PEP     CB52475  12.841  11.704  -0.938 -0.0953 -0.0468  0.2247
 1404PEP     CB52476  12.718  11.997  -1.274  0.0605 -0.0664  0.0246
 1404PEP     CB52477  12.720  12.413  -1.126  0.1262 -0.2661 -0.1083
 1404PEP     CB52478  12.717  12.572  -0.754 -0.5863 -0.1044  0.0895
 1404PEP     CB52479  12.943  12.538  -0.386  0.1700 -0.2493  0.0082
 1404PEP     CB52480  13.397  12.590  -0.277  0.1354  0.1386  0.0095
 1405PEP     CB52481   5.419   0.479   4.413 -0.0459 -0.1472  0.1244
 1405PEP     CB52482   4.981   0.442   4.697 -0.3658 -0.1462 -0.0693
 1405PEP     CB52483   4.671   0.507   5.081  0.0359 -0.1241  0.1249
 1405PEP     CB52484   4.492   0.241   5.351  0.2256  0.2886  0.1241
 1405PEP     CB52485   4.618  -0.006   5.821  0.0531 -0.0545 -0.3544
 1405PEP     CB52486   4.704   0.094   6.259 -0.1876  0.4900 -0.5875
 1405PEP     CB52487   4.463   0.249   6.457 -0.1493 -0.3075 -0.1930
 1405PEP     CB52488   4.030   0.340   6.573  0.2038  0.3728  0.1968
 1405PEP     CB52489   3.710   0.339   6.932 -0.7672  0.0260  0.3025
 1405PEP     CB52490   3.665   0.249   7.401  0.1541  0.1419 -0.2762
 1405PEP     CB52491   3.732  -0.121   7.613 -0.2931 -0.1818  0.0421
 1405PEP     CB52492   4.178  -0.269   7.737 -0.1134  0.3671  0.0547
 1405PEP     CB52493   4.529  -0.053   7.718 -0.1480  0.1026 -0.1849
 1405PEP     CB52494   4.678   0.422   7.626  0.0331  0.0944 -0.1760
 1405PEP     CB52495   4.795   0.820   7.524  0.2407 -0.4441 -0.2881
 1405PEP     CB52496   4.941   1.132   7.783 -0.1109 -0.1078  0.0965
 1405PEP     CB52497   4.788   1.199   8.220 -0.0649 -0.3449 -0.3819
 1405PEP     CB52498   4.578   1.424   8.550  0.0888  0.0747  0.0688
 1405PEP     CB52499   4.304   1.425   8.879 -0.0503 -0.0734 -0.0571
 1405PEP     CB52500   4.121   1.545   9.210  0.1096  0.3360 -0.2360
 1405PEP     CB52501   4.324   1.671   9.592 -0.4401  0.0432  0.3044
 1405PEP     CB52502   4.772   1.698   9.499  0.0550 -0.1168 -0.1107
 1405PEP     CB52503   4.946   1.378   9.168  0.3350 -0.1799 -0.0851
 1405PEP     CB52504   5.081   1.235   8.808  0.0222  0.2780  0.3883
 1405PEP     CB52505   5.288   1.183   8.458 -0.3845 -0.0521  0.4160
 1405PEP     CB52506   5.364   0.864   8.191 -0.0618 -0.0717 -0.0544
 1405PEP     CB52507   5.133   0.572   7.903 -0.1631 -0.2640 -0.0013
 1405PEP     CB52508   5.183   0.449   7.594 -0.1632  0.1199  0.0525
 1405PEP     CB52509   5.170   0.154   7.295 -0.2693  0.0669 -0.0264
 1405PEP     CB52510   5.118   0.268   6.856 -0.0206 -0.2652  0.0986
 1405PEP     CB52511   4.855   0.526   6.527 -0.1178  0.0174  0.2515
 1405PEP     CB52512   4.667   0.567   6.144 -0.1863  0.0800 -0.1318
 1405PEP     CB52513   4.651   0.516   5.705 -0.1360 -0.1539 -0.0471
 1405PEP     CB52514   4.570   0.847   5.437  0.1993 -0.0244 -0.0094
 1405PEP     CB52515   4.904   1.224   5.409 -0.2059 -0.2179 -0.0278
 1405PEP     CB52516   5.296   1.165   5.677  0.2724  0.0751  0.0439
 1405PEP     CB52517   5.574   0.873   5.820  0.0283 -0.2041 -0.2401
 1405PEP     CB52518   5.630   0.396   5.777 -0.0759  0.2509  0.0525
 1405PEP     CB52519   5.632   0.282   5.339 -0.2425 -0.3754 -0.0104
 1405PEP     CB52520   5.383   0.517   4.914 -0.0487 -0.0037  0.1036
 1406PEP     CB52521  18.329   2.604  20.605  0.3555  0.0690  0.4281
 1406PEP     CB52522  18.523   2.270  20.588 -0.1417 -0.4113  0.0258
 1406PEP     CB52523  18.499   1.773  20.631 -0.2425  0.3374 -0.3773
 1406PEP     CB52524  18.615   1.354  20.564 -0.1987  0.1073 -0.1471
 1406PEP     CB52525  18.986   1.131  20.551  0.1005 -0.0474 -0.0012
 1406PEP     CB52526  19.384   1.097  20.649 -0.1225 -0.0664 -0.2210
 1406PEP     CB52527  19.721   1.110  20.993 -0.0255 -0.2753 -0.2022
 1406PEP     CB52528  20.037   1.356  21.127 -0.0727 -0.1635 -0.4373
 1406PEP     CB52529  20.392   1.652  21.251 -0.4222 -0.0913  0.3587
 1406PEP     CB52530  20.538   2.054  21.300 -0.1341  0.2600 -0.0206
 1406PEP     CB52531  20.419   2.457  21.380 -0.2202  0.0884  0.0742
 1406PEP     CB52532  20.344   2.821  21.621  0.2580  0.2795 -0.5629
 1406PEP     CB52533  20.277   3.128  22.025  0.2324 -0.0139 -0.6271
 1406PEP     CB52534  20.256   3.377  22.414 -0.3383 -0.2290  0.0057
 1406PEP     CB52535  20.244   3.696  22.652  0.3266  0.0715  0.0847
 1406PEP     CB52536  20.304   4.228  22.593  0.0708 -0.0693  0.0623
 1406PEP     CB52537  20.142   4.467  22.138  0.0206 -0.2711  0.3330
 1406PEP     CB52538  20.179   4.193  21.866 -0.0659 -0.0129  0.1540
 1406PEP     CB52539  20.224   3.737  21.941 -0.3709  0.1195  0.1974
 1406PEP     CB52540  20.582   3.504  22.112  0.2020 -0.1185  0.1643
 1406PEP     CB52541  20.707   3.510  22.586 -0.0527  0.0101 -0.3020
 1406PEP     CB52542  20.584   3.827  22.965 -0.1236 -0.3836 -0.2846
 1406PEP     CB52543  20.146   3.904  23.124  0.3436 -0.2411  0.0373
 1406PEP     CB52544  19.839   3.988  22.850  0.1198  0.3593 -0.5494
 1406PEP     CB52545  19.816   4.386  22.557 -0.1307  0.0227 -0.1694
 1406PEP     CB52546  19.986   4.756  22.743 -0.0127  0.4599 -0.1621
 1406PEP     CB52547  20.259   5.098  22.793 -0.1814  0.2910  0.3380
 1406PEP     CB52548  20.447   5.460  22.500  0.1421  0.2747 -0.0442
 1406PEP     CB52549  20.302   5.899  22.365  0.0850 -0.0162 -0.6247
 1406PEP     CB52550  19.956   6.090  22.235 -0.1464 -0.4395 -0.3216
 1406PEP     CB52551  19.780   5.987  21.916 -0.2766 -0.2009 -0.3397
 1406PEP     CB52552  19.587   6.135  21.582  0.1631 -0.1339 -0.0596
 1406PEP     CB52553  19.630   6.398  21.304 -0.2230 -0.2281  0.0538
 1406PEP     CB52554  20.005   6.636  21.387  0.1846 -0.1494  0.0994
 1406PEP     CB52555  20.353   6.434  21.653  0.4349  0.0423  0.3271
 1406PEP     CB52556  20.256   6.091  21.819 -0.1902 -0.1815 -0.1079
 1406PEP     CB52557  20.085   5.712  21.576  0.4752  0.1871  0.1794
 1406PEP     CB52558  19.670   5.711  21.391  0.0937  0.0137  0.0020
 1406PEP     CB52559  19.594   5.948  21.023  0.3220 -0.0213 -0.1533
 1406PEP     CB52560  19.425   5.986  20.679 -0.1036  0.0590  0.0800
 1407PEP     CB52561   0.811   3.134  17.298  0.2517 -0.1208  0.2922
 1407PEP     CB52562   1.072   2.928  17.749  0.0351  0.0550  0.2270
 1407PEP     CB52563   1.380   2.741  17.878  0.0258  0.0856  0.0162
 1407PEP     CB52564   1.790   2.677  18.041 -0.2950  0.0273  0.2249
 1407PEP     CB52565   2.191   2.687  18.077 -0.3301 -0.2055 -0.2419
 1407PEP     CB52566   2.402   2.985  17.739  0.5003  0.0209 -0.1089
 1407PEP     CB52567   2.176   3.127  17.417 -0.0631  0.3455  0.1319
 1407PEP     CB52568   1.809   3.040  17.281  0.3329  0.1806  0.3070
 1407PEP     CB52569   1.402   2.788  17.349 -0.3605  0.3195  0.0425
 1407PEP     CB52570   1.300   2.344  17.254  0.1380  0.1835  0.2377
 1407PEP     CB52571   1.322   1.967  17.095  0.3827 -0.3374  0.1146
 1407PEP     CB52572   1.160   1.588  16.834  0.1863 -0.2678 -0.3639
 1407PEP     CB52573   0.808   1.339  16.856  0.1846  0.0320  0.0382
 1407PEP     CB52574   0.497   1.150  16.609 -0.0858  0.3000  0.0121
 1407PEP     CB52575   0.070   0.905  16.534 -0.0825 -0.0936  0.0705
 1407PEP     CB52576  -0.187   0.600  16.638  0.2650 -0.1483 -0.1583
 1407PEP     CB52577  -0.285   0.198  16.550  0.1260  0.1233  0.0233
 1407PEP     CB52578  -0.636  -0.086  16.586  0.2284 -0.0532  0.0522
 1407PEP     CB52579  -0.922  -0.293  16.859 -0.0009  0.0886  0.0743
 1407PEP     CB52580  -1.024  -0.672  17.101  0.2263 -0.3592  0.1616
 1407PEP     CB52581  -0.889  -0.898  17.332 -0.1006  0.2423  0.1055
 1407PEP     CB52582  -0.703  -1.017  17.771 -0.2634  0.0740 -0.0569
 1407PEP     CB52583  -0.699  -1.349  18.126 -0.0498  0.3714 -0.2411
 1407PEP     CB52584  -0.911  -1.688  18.257  0.2307  0.3085  0.2627
 1407PEP     CB52585  -1.323  -1.702  18.528 -0.0904 -0.2862 -0.0165
 1407PEP     CB52586  -1.782  -1.571  18.662  0.0297 -0.2352 -0.1834
 1407PEP     CB52587  -2.180  -1.581  18.878  0.1231  0.2095  0.0533
 1407PEP     CB52588  -2.395  -1.763  19.233  0.0531  0.1541  0.2316
 1407PEP     CB52589  -2.240  -1.831  19.590  0.1099  0.0828 -0.0196
 1407PEP     CB52590  -1.843  -1.662  19.769 -0.2353 -0.0058 -0.0929
 1407PEP     CB52591  -1.413  -1.622  19.541 -0.1086  0.1283  0.2866
 1407PEP     CB52592  -1.222  -1.373  19.187 -0.0746 -0.0183 -0.0063
 1407PEP     CB52593  -0.798  -1.118  19.189  0.3118  0.1468  0.0609
 1407PEP     CB52594  -0.505  -1.114  19.516  0.5118  0.0044  0.2934
 1407PEP     CB52595  -0.446  -1.427  19.782  0.0964  0.2680 -0.0082
 1407PEP     CB52596  -0.507  -1.605  20.212 -0.1727  0.2211 -0.2171
 1407PEP     CB52597  -0.318  -1.822  20.573  0.0153  0.0751 -0.2917
 1407PEP     CB52598  -0.204  -2.061  20.890  0.3840  0.0298 -0.3870
 1407PEP     CB52599  -0.167  -2.136  21.327  0.0594  0.4155  0.2224
 1407PEP     CB52600  -0.245  -2.080  21.815  0.2071  0.0046  0.0018
 1408PEP     CB52601   9.598  12.011   8.394 -0.0771 -0.0833  0.1812
 1408PEP     CB52602   9.431  12.430   8.624  0.0748  0.2675 -0.5038
 1408PEP     CB52603   9.349  12.834   8.698  0.3583 -0.1401  0.1179
 1408PEP     CB52604   9.313  13.270   8.930  0.1005 -0.2920 -0.7470
 1408PEP     CB52605   9.422  13.780   8.978 -0.1964  0.0845  0.3123
 1408PEP     CB52606   9.618  14.188   9.066 -0.5523 -0.2238 -0.0609
 1408PEP     CB52607   9.731  14.491   8.775 -0.0288 -0.2923  0.2364
 1408PEP     CB52608   9.696  14.826   8.429 -0.0626  0.0901  0.3315
 1408PEP     CB52609   9.744  14.819   7.994 -0.1180  0.2184 -0.6087
 1408PEP     CB52610   9.871  14.415   7.726 -0.4083  0.3693  0.5104
 1408PEP     CB52611   9.605  14.063   7.557  0.2037 -0.0972 -0.4440
 1408PEP     CB52612   9.242  13.809   7.398 -0.1892  0.1562  0.0316
 1408PEP     CB52613   9.192  13.555   6.959 -0.3003 -0.1802 -0.0180
 1408PEP     CB52614   9.361  13.503   6.555 -0.0785 -0.1490 -0.1854
 1408PEP     CB52615   9.674  13.738   6.388 -0.3847  0.1607  0.2347
 1408PEP     CB52616   9.796  14.196   6.515  0.0104  0.3072 -0.0770
 1408PEP     CB52617   9.552  14.581   6.458 -0.1241 -0.2400  0.0014
 1408PEP     CB52618   9.242  14.610   6.233 -0.1370  0.2644  0.1560
 1408PEP     CB52619   8.893  14.357   6.066 -0.1621 -0.1221  0.4119
 1408PEP     CB52620   8.737  14.003   5.866 -0.2014 -0.0627 -0.0548
 1408PEP     CB52621   8.426  13.932   5.520  0.0025  0.0808  0.0462
 1408PEP     CB52622   8.101  14.012   5.327  0.2312 -0.0996  0.0204
 1408PEP     CB52623   7.687  14.091   5.300  0.2413  0.1965 -0.3202
 1408PEP     CB52624   7.423  13.975   5.039  0.0773 -0.0257 -0.1173
 1408PEP     CB52625   7.499  13.765   4.671  0.3102 -0.5132  0.2613
 1408PEP     CB52626   7.592  13.458   4.492  0.3751 -0.2114 -0.4716
 1408PEP     CB52627   7.534  13.117   4.261  0.1683 -0.1023 -0.3174
 1408PEP     CB52628   7.223  12.923   4.044 -0.1743  0.2015 -0.2143
 1408PEP     CB52629   6.901  12.739   4.232  0.0567  0.2377  0.2102
 1408PEP     CB52630   6.883  12.401   4.451 -0.5262 -0.1972 -0.5788
 1408PEP     CB52631   6.646  11.998   4.480  0.0823 -0.2070 -0.0517
 1408PEP     CB52632   6.302  11.713   4.443  0.0025 -0.6072  0.2581
 1408PEP     CB52633   6.004  11.431   4.263  0.0941  0.2569 -0.1305
 1408PEP     CB52634   6.049  11.103   3.994 -0.6856  0.1601  0.2945
 1408PEP     CB52635   6.134  10.640   3.853 -0.3174  0.5208  0.1308
 1408PEP     CB52636   5.941  10.241   3.783 -0.0471  0.2052 -0.0133
 1408PEP     CB52637   5.507  10.063   3.634  0.3422  0.4508  0.1357
 1408PEP     CB52638   5.199   9.876   3.767  0.2647 -0.1572 -0.2010
 1408PEP     CB52639   4.969   9.660   4.025  0.0511 -0.1798  0.2946
 1408PEP     CB52640   4.602   9.480   4.023 -0.3446 -0.1648 -0.0267
 1409PEP     CB52641  21.367   4.460   2.676 -0.2737 -0.0534 -0.0970
 1409PEP     CB52642  21.106   4.120   2.499 -0.0452  0.2177  0.2817
 1409PEP     CB52643  21.149   3.683   2.464 -0.2773 -0.0536 -0.0722
 1409PEP     CB52644  21.186   3.394   2.768 -0.0172 -0.0929 -0.3215
 1409PEP     CB52645  21.448   3.061   2.890  0.0319  0.0645  0.4147
 1409PEP     CB52646  21.640   2.854   3.227 -0.2195  0.5344  0.2522
 1409PEP     CB52647  21.769   2.948   3.553  0.0685  0.0872 -0.0674
 1409PEP     CB52648  22.159   3.273   3.517  0.4307 -0.1543  0.1576
 1409PEP     CB52649  22.144   3.705   3.400 -0.3301 -0.2239 -0.0841
 1409PEP     CB52650  22.059   4.152   3.344  0.2787  0.4723 -0.3207
 1409PEP     CB52651  22.069   4.460   3.088  0.1777  0.1414 -0.3920
 1409PEP     CB52652  21.887   4.452   2.692  0.0655 -0.1720  0.3245
 1409PEP     CB52653  21.689   4.132   2.500  0.0034 -0.0993  0.2510
 1409PEP     CB52654  21.694   3.688   2.538 -0.0258  0.0928  0.5555
 1409PEP     CB52655  21.896   3.306   2.592 -0.0644 -0.2721  0.0739
 1409PEP     CB52656  21.851   2.843   2.657  0.0874  0.1274 -0.1146
 1409PEP     CB52657  21.936   2.582   2.929 -0.0319 -0.0327  0.0402
 1409PEP     CB52658  21.964   2.496   3.408  0.2067 -0.1620  0.0412
 1409PEP     CB52659  21.721   2.458   3.763  0.6351 -0.0766 -0.0224
 1409PEP     CB52660  21.412   2.577   3.969 -0.1311 -0.1642  0.1462
 1409PEP     CB52661  20.992   2.374   4.059  0.0671 -0.1749 -0.1046
 1409PEP     CB52662  20.553   2.355   3.967 -0.2816  0.0652  0.2368
 1409PEP     CB52663  20.285   2.708   4.000 -0.0823  0.0184 -0.0975
 1409PEP     CB52664  19.913   2.943   4.237 -0.0273 -0.1822  0.1281
 1409PEP     CB52665  19.739   3.310   4.440  0.2985 -0.0578  0.1800
 1409PEP     CB52666  19.373   3.552   4.599  0.0877 -0.0259  0.5428
 1409PEP     CB52667  18.879   3.662   4.736  0.1240  0.1624  0.1238
 1409PEP     CB52668  18.521   3.576   4.877 -0.2005 -0.3249 -0.1683
 1409PEP     CB52669  18.341   3.326   5.219 -0.2550 -0.1258  0.1108
 1409PEP     CB52670  18.220   3.112   5.495 -0.0031  0.1344 -0.1329
 1409PEP     CB52671  18.210   2.822   5.805  0.3506 -0.0609  0.3805
 1409PEP     CB52672  17.876   2.442   6.089 -0.3905 -0.1599 -0.3336
 1409PEP     CB52673  17.585   2.261   6.284  0.3714 -0.0896 -0.0967
 1409PEP     CB52674  17.516   2.126   6.735 -0.0519  0.3611 -0.1675
 1409PEP     CB52675  17.252   1.853   7.064 -0.2697  0.0886 -0.0248
 1409PEP     CB52676  16.913   1.681   7.267 -0.2296  0.0558  0.3877
 1409PEP     CB52677  16.563   1.605   7.461  0.1570 -0.1144 -0.2740
 1409PEP     CB52678  16.218   1.588   7.829 -0.4533 -0.1008 -0.0983
 1409PEP     CB52679  15.989   1.844   8.087 -0.1631  0.3942 -0.1800
 1409PEP     CB52680  15.724   2.104   8.120  0.0615 -0.2297 -0.5821
 1410PEP     CB52681   4.158  22.041   5.938 -0.2800 -0.2625  0.0695
 1410PEP     CB52682   4.033  22.427   5.963 -0.1709 -0.0910 -0.1047
 1410PEP     CB52683   4.012  22.686   6.213 -0.0997  0.0177 -0.0795
 1410PEP     CB52684   4.237  22.818   6.595 -0.1375 -0.2806  0.2205
 1410PEP     CB52685   4.529  23.004   6.901  0.2065 -0.0737 -0.1261
 1410PEP     CB52686   4.843  22.813   7.079  0.3563 -0.2674 -0.0555
 1410PEP     CB52687   4.721  22.354   7.095  0.3338 -0.0192  0.0104
 1410PEP     CB52688   4.763  21.908   7.053 -0.0604  0.2357  0.1971
 1410PEP     CB52689   4.821  21.431   7.043 -0.1014  0.0526 -0.1851
 1410PEP     CB52690   4.703  21.039   6.860  0.1829  0.4410  0.1039
 1410PEP     CB52691   4.458  20.684   6.949 -0.0371  0.0191  0.0346
 1410PEP     CB52692   4.239  20.258   7.010  0.2944 -0.0567  0.0061
 1410PEP     CB52693   3.930  20.080   7.086  0.1696 -0.0422 -0.2196
 1410PEP     CB52694   3.703  19.691   7.191 -0.2749  0.1111 -0.0074
 1410PEP     CB52695   3.379  19.343   7.269 -0.0667 -0.0133 -0.1012
 1410PEP     CB52696   3.393  18.947   7.101 -0.0627  0.1091 -0.0954
 1410PEP     CB52697   3.391  18.430   7.078  0.0106  0.0396  0.0688
 1410PEP     CB52698   3.303  18.030   6.932 -0.0699  0.3394 -0.2857
 1410PEP     CB52699   3.218  17.965   6.501  0.1588  0.3617  0.1590
 1410PEP     CB52700   3.224  18.067   6.112 -0.0839 -0.1155  0.2789
 1410PEP     CB52701   3.081  18.287   5.757 -0.2028 -0.1136 -0.2169
 1410PEP     CB52702   3.033  18.692   5.464 -0.0305  0.3533 -0.1856
 1410PEP     CB52703   2.874  18.731   4.997  0.1112  0.0834 -0.1996
 1410PEP     CB52704   2.578  18.379   4.795 -0.0227  0.1146  0.0389
 1410PEP     CB52705   2.338  18.099   5.054 -0.2406 -0.0574  0.0654
 1410PEP     CB52706   2.388  17.924   5.533  0.1104  0.0965  0.0270
 1410PEP     CB52707   2.709  17.891   5.862 -0.2162 -0.2531 -0.1236
 1410PEP     CB52708   2.713  17.886   6.268 -0.0535 -0.0272  0.0757
 1410PEP     CB52709   2.594  17.908   6.640  0.2037  0.6212 -0.0918
 1410PEP     CB52710   2.143  17.875   6.910  0.0837 -0.2081  0.0379
 1410PEP     CB52711   1.767  17.656   6.912 -0.0690  0.5421 -0.4078
 1410PEP     CB52712   1.573  17.500   6.583 -0.3641 -0.2815  0.1698
 1410PEP     CB52713   1.742  17.321   6.189 -0.4012 -0.1442  0.1266
 1410PEP     CB52714   1.637  17.323   5.760  0.0775 -0.0084  0.0113
 1410PEP     CB52715   1.545  17.590   5.366  0.1240  0.0290 -0.1772
 1410PEP     CB52716   1.320  17.829   5.176  0.0648 -0.0243 -0.0283
 1410PEP     CB52717   1.026  18.060   5.007  0.2119 -0.0279  0.2203
 1410PEP     CB52718   0.596  18.226   4.883 -0.1704  0.2169  0.3301
 1410PEP     CB52719   0.166  18.292   4.637 -0.1255  0.1733 -0.1030
 1410PEP     CB52720  -0.197  18.543   4.609 -0.1913  0.1659  0.1242
 1411PEP     CB52721   5.682   3.606   6.557 -0.1801  0.3803 -0.2486
 1411PEP     CB52722   5.261   3.612   6.400 -0.1082 -0.1311 -0.2076
 1411PEP     CB52723   4.844   3.619   6.209  0.1109 -0.0330  0.2146
 1411PEP     CB52724   4.741   3.684   5.785  0.6259 -0.0562 -0.1970
 1411PEP     CB52725   4.905   4.062   5.575  0.3037 -0.1049  0.1243
 1411PEP     CB52726   5.050   4.485   5.725  0.3554 -0.3433 -0.0555
 1411PEP     CB52727   5.493   4.545   5.860  0.3968  0.0670 -0.2658
 1411PEP     CB52728   5.816   4.295   5.800  0.0191  0.5186  0.1043
 1411PEP     CB52729   5.821   3.932   5.496  0.1282  0.1130 -0.1018
 1411PEP     CB52730   5.684   3.468   5.370  0.2458 -0.1258  0.1751
 1411PEP     CB52731   5.487   3.175   5.025 -0.1948  0.2485  0.1703
 1411PEP     CB52732   5.441   3.311   4.629  0.1446  0.3167 -0.0734
 1411PEP     CB52733   5.690   3.366   4.305  0.2060 -0.3663 -0.0866
 1411PEP     CB52734   5.932   3.093   4.087  0.1589 -0.0558 -0.3126
 1411PEP     CB52735   5.930   2.695   3.961  0.3690 -0.1052  0.0685
 1411PEP     CB52736   6.003   2.454   3.608  0.1177 -0.1475  0.3300
 1411PEP     CB52737   6.026   2.201   3.218  0.3751  0.1466  0.0883
 1411PEP     CB52738   5.868   1.771   3.157  0.2749  0.0199 -0.1095
 1411PEP     CB52739   5.669   1.453   3.371 -0.0337 -0.1786 -0.1078
 1411PEP     CB52740   5.576   0.953   3.454 -0.0857 -0.0142  0.0158
 1411PEP     CB52741   5.067   0.903   3.347 -0.1060 -0.0631 -0.1099
 1411PEP     CB52742   4.825   1.028   3.600  0.2235 -0.3391 -0.0832
 1411PEP     CB52743   4.817   1.320   3.877  0.0571  0.4116  0.0309
 1411PEP     CB52744   4.733   1.655   4.313  0.3070 -0.3064 -0.2101
 1411PEP     CB52745   4.462   2.030   4.617  0.0461  0.2615  0.0246
 1411PEP     CB52746   4.155   2.481   4.618  0.0433 -0.2993  0.4373
 1411PEP     CB52747   4.104   2.873   4.309 -0.0764  0.2661  0.0398
 1411PEP     CB52748   4.114   3.007   3.959 -0.1826 -0.0235 -0.1596
 1411PEP     CB52749   4.143   3.324   3.745 -0.3466  0.0731  0.0044
 1411PEP     CB52750   4.097   3.671   3.866  0.0066 -0.2887 -0.6586
 1411PEP     CB52751   3.765   3.883   4.087 -0.2218  0.0439  0.0396
 1411PEP     CB52752   3.315   3.860   4.135 -0.0479 -0.1591 -0.0754
 1411PEP     CB52753   2.993   3.796   4.450  0.0949 -0.1935 -0.3765
 1411PEP     CB52754   3.121   3.908   4.888  0.2390 -0.1672 -0.0055
 1411PEP     CB52755   3.477   4.073   5.042  0.3799  0.0630  0.0005
 1411PEP     CB52756   3.665   4.416   4.723  0.0197 -0.2141 -0.1133
 1411PEP     CB52757   3.909   4.763   4.639 -0.6730 -0.2349 -0.2784
 1411PEP     CB52758   4.016   5.169   4.693 -0.1577  0.1329 -0.3591
 1411PEP     CB52759   4.285   5.426   4.402 -0.3282 -0.2335 -0.0398
 1411PEP     CB52760   4.170   5.345   3.928  0.3212  0.0494 -0.1096
 1412PEP     CB52761  19.512   6.345  11.939 -0.3963  0.2478  0.3062
 1412PEP     CB52762  19.148   6.424  11.652 -0.2060  0.3362 -0.3272
 1412PEP     CB52763  19.302   6.409  11.159 -0.2054  0.4272 -0.0850
 1412PEP     CB52764  19.265   6.340  10.763  0.2223 -0.0671 -0.2737
 1412PEP     CB52765  19.215   6.488  10.346 -0.1618 -0.1152  0.0802
 1412PEP     CB52766  19.039   6.754  10.012 -0.5012  0.0374 -0.5258
 1412PEP     CB52767  19.021   6.951   9.628  0.3092 -0.2234 -0.2000
 1412PEP     CB52768  18.819   6.803   9.320  0.3917 -0.1522  0.1641
 1412PEP     CB52769  18.827   6.692   8.890  0.3828  0.2078  0.0898
 1412PEP     CB52770  19.049   6.895   8.459 -0.3258 -0.1304  0.1812
 1412PEP     CB52771  19.331   7.170   8.576 -0.0318 -0.1396  0.1271
 1412PEP     CB52772  19.128   7.342   8.942  0.4960  0.0405 -0.2086
 1412PEP     CB52773  18.677   7.214   9.038  0.3314 -0.2711  0.1832
 1412PEP     CB52774  18.354   6.960   8.763 -0.4337 -0.2333  0.0299
 1412PEP     CB52775  18.179   6.874   8.335 -0.3230  0.0668 -0.0155
 1412PEP     CB52776  17.930   6.494   8.247  0.2544 -0.4490  0.1312
 1412PEP     CB52777  17.643   6.398   7.934  0.2264 -0.0147  0.2243
 1412PEP     CB52778  17.372   6.319   7.599 -0.1795 -0.0984 -0.1150
 1412PEP     CB52779  17.050   6.429   7.411 -0.4243  0.5285 -0.3150
 1412PEP     CB52780  16.747   6.665   7.164 -0.0103  0.1674  0.0296
 1412PEP     CB52781  16.449   6.924   7.032  0.1712 -0.4466  0.0947
 1412PEP     CB52782  16.445   7.219   6.721  0.3214  0.1854  0.0547
 1412PEP     CB52783  16.724   7.560   6.431  0.1771 -0.0501 -0.2458
 1412PEP     CB52784  16.789   7.991   6.406  0.0854  0.3670 -0.1451
 1412PEP     CB52785  17.079   8.323   6.454  0.3338  0.0598  0.0412
 1412PEP     CB52786  17.358   8.462   6.871  0.0912  0.2894 -0.0562
 1412PEP     CB52787  17.536   8.536   7.205  0.1629  0.1950  0.1376
 1412PEP     CB52788  17.680   8.417   7.554 -0.0699  0.0368  0.1308
 1412PEP     CB52789  17.647   8.178   7.944 -0.0189 -0.1814 -0.1434
 1412PEP     CB52790  17.437   8.362   8.279 -0.2898  0.2188  0.2512
 1412PEP     CB52791  17.177   8.650   8.652 -0.1914 -0.0341 -0.1196
 1412PEP     CB52792  16.747   8.883   8.674  0.1816 -0.4016 -0.3252
 1412PEP     CB52793  16.642   9.172   8.372  0.2649 -0.0929 -0.0965
 1412PEP     CB52794  16.874   9.392   8.021 -0.0553 -0.0205 -0.2540
 1412PEP     CB52795  16.972   9.534   7.608  0.3783  0.1354 -0.1826
 1412PEP     CB52796  16.839   9.801   7.293 -0.3766  0.0604  0.0829
 1412PEP     CB52797  16.522   9.959   7.030  0.1836 -0.0947  0.0586
 1412PEP     CB52798  16.314  10.143   6.662 -0.4800 -0.0572 -0.1053
 1412PEP     CB52799  16.084  10.122   6.330 -0.1531  0.3840  0.0126
 1412PEP     CB52800  15.846  10.126   5.951  0.1352 -0.3086 -0.4264
 1413PEP     CB52801  19.819  17.983  13.213  0.1782 -0.0544 -0.1044
 1413PEP     CB52802  19.461  17.997  12.951  0.2721 -0.0681  0.5936
 1413PEP     CB52803  19.000  17.752  12.834  0.3978  0.1891  0.1195
 1413PEP     CB52804  18.542  17.596  12.841  0.2733  0.1023  0.4496
 1413PEP     CB52805  18.141  17.499  12.944 -0.1676  0.1771 -0.3057
 1413PEP     CB52806  17.951  17.628  13.341  0.1803  0.2016 -0.0794
 1413PEP     CB52807  17.954  17.826  13.779 -0.1672  0.3230 -0.6398
 1413PEP     CB52808  18.415  17.927  13.925  0.2812  0.1603  0.0944
 1413PEP     CB52809  18.734  18.128  13.669 -0.0584 -0.1230  0.0276
 1413PEP     CB52810  18.770  18.587  13.612  0.0430  0.0858  0.0711
 1413PEP     CB52811  18.498  18.878  13.610  0.2663  0.1539 -0.2106
 1413PEP     CB52812  18.308  19.201  13.928  0.3516  0.0602  0.4593
 1413PEP     CB52813  18.362  19.430  14.192  0.1139  0.0077 -0.1811
 1413PEP     CB52814  18.462  19.816  14.352 -0.1708  0.1072 -0.0022
 1413PEP     CB52815  18.528  19.894  14.685 -0.0342  0.0355 -0.0800
 1413PEP     CB52816  18.747  19.966  15.046  0.6181 -0.0620 -0.0563
 1413PEP     CB52817  19.019  20.325  15.317 -0.1036 -0.0680  0.5816
 1413PEP     CB52818  19.272  20.610  15.103  0.1405 -0.0474 -0.0697
 1413PEP     CB52819  19.109  20.802  14.777  0.2109  0.1335 -0.0951
 1413PEP     CB52820  18.635  20.831  14.738 -0.1758  0.3941  0.1098
 1413PEP     CB52821  18.244  21.068  14.566  0.2543 -0.3827  0.0577
 1413PEP     CB52822  18.035  21.295  14.294  0.3653  0.1401 -0.1004
 1413PEP     CB52823  17.753  21.269  13.847  0.0168  0.2569  0.0036
 1413PEP     CB52824  17.614  21.453  13.438  0.2602  0.0286  0.1716
 1413PEP     CB52825  17.792  21.754  13.217  0.1450  0.3599 -0.0735
 1413PEP     CB52826  18.008  21.902  12.880  0.2914  0.2947 -0.0328
 1413PEP     CB52827  18.350  22.095  12.666  0.4095 -0.0561  0.2541
 1413PEP     CB52828  18.719  22.278  12.347 -0.1284  0.1776 -0.1168
 1413PEP     CB52829  19.090  22.396  12.214 -0.0067  0.3993  0.1119
 1413PEP     CB52830  19.410  22.736  12.020 -0.1237 -0.0879 -0.0555
 1413PEP     CB52831  19.543  23.072  12.037 -0.0097 -0.0723 -0.2224
 1413PEP     CB52832  19.933  23.406  11.969 -0.1800  0.1225 -0.4081
 1413PEP     CB52833  20.280  23.417  12.296  0.1237 -0.0777 -0.0839
 1413PEP     CB52834  20.700  23.410  12.408  0.2782  0.1897  0.1269
 1413PEP     CB52835  21.061  23.509  12.359 -0.0784  0.1553 -0.4039
 1413PEP     CB52836  21.436  23.596  12.260  0.0252 -0.0849  0.3654
 1413PEP     CB52837  21.862  23.583  12.227  0.0396  0.1202 -0.0991
 1413PEP     CB52838  22.227  23.434  11.975 -0.1802 -0.0308  0.1266
 1413PEP     CB52839  22.216  23.388  11.472  0.0619  0.0060 -0.2419
 1413PEP     CB52840  22.058  23.446  11.066 -0.0386  0.0690  0.2143
 1414PEP     CB52841  13.052  17.259   3.195 -0.0025  0.3488  0.0470
 1414PEP     CB52842  13.376  16.911   3.387  0.3191  0.3583  0.3328
 1414PEP     CB52843  13.269  16.494   3.640 -0.1141  0.2653  0.1675
 1414PEP     CB52844  12.882  16.243   3.611  0.2476 -0.0475 -0.0373
 1414PEP     CB52845  12.845  15.775   3.439  0.0589  0.2110 -0.1767
 1414PEP     CB52846  13.212  15.524   3.358 -0.0949 -0.0178 -0.0312
 1414PEP     CB52847  13.637  15.485   3.345  0.2607  0.1696  0.1429
 1414PEP     CB52848  13.884  15.457   3.679  0.2884 -0.1019 -0.0687
 1414PEP     CB52849  14.222  15.455   3.859  0.0792 -0.0826 -0.2153
 1414PEP     CB52850  14.617  15.348   3.979 -0.1000  0.2594  0.1055
 1414PEP     CB52851  14.811  14.974   3.954  0.4183  0.1904  0.2667
 1414PEP     CB52852  14.546  14.618   4.017  0.2859 -0.0120  0.0485
 1414PEP     CB52853  14.255  14.597   4.342 -0.5890 -0.0287 -0.2669
 1414PEP     CB52854  13.907  14.594   4.477 -0.0194 -0.0740  0.2186
 1414PEP     CB52855  13.552  14.633   4.694 -0.0488  0.2090 -0.1396
 1414PEP     CB52856  13.099  14.775   4.554  0.0859  0.3905  0.1047
 1414PEP     CB52857  12.989  15.169   4.492  0.1862  0.1934 -0.1149
 1414PEP     CB52858  12.966  15.492   4.205 -0.3381 -0.1070  0.3459
 1414PEP     CB52859  12.898  16.006   4.100 -0.0384 -0.1609  0.0515
 1414PEP     CB52860  13.012  16.446   4.097 -0.4241  0.2741  0.0424
 1414PEP     CB52861  12.962  16.869   4.030 -0.0497  0.2199 -0.3802
 1414PEP     CB52862  12.719  17.234   3.948  0.1972 -0.4912  0.1338
 1414PEP     CB52863  12.553  17.471   3.615 -0.1730  0.3583 -0.4467
 1414PEP     CB52864  12.125  17.438   3.405 -0.3632 -0.4247  0.3642
 1414PEP     CB52865  11.761  17.202   3.416  0.1789  0.0994 -0.6069
 1414PEP     CB52866  11.703  16.796   3.637  0.1119  0.0024 -0.1725
 1414PEP     CB52867  11.967  16.595   3.887  0.2615  0.1901 -0.2946
 1414PEP     CB52868  12.260  16.664   4.227 -0.1827  0.1870 -0.1494
 1414PEP     CB52869  12.653  16.638   4.422 -0.1169  0.4832  0.1045
 1414PEP     CB52870  12.712  16.538   4.872  0.0219  0.2169  0.1857
 1414PEP     CB52871  12.916  16.692   5.196  0.0348  0.0742 -0.1049
 1414PEP     CB52872  13.103  16.997   5.483  0.2325  0.2008  0.0050
 1414PEP     CB52873  13.429  16.856   5.772 -0.2507  0.2173 -0.2747
 1414PEP     CB52874  13.858  17.129   5.802  0.2735 -0.4569 -0.0040
 1414PEP     CB52875  13.951  17.494   5.531 -0.0200  0.1005  0.0379
 1414PEP     CB52876  14.112  17.830   5.482  0.0109 -0.0701  0.3921
 1414PEP     CB52877  14.476  18.145   5.491 -0.0506 -0.0828  0.1504
 1414PEP     CB52878  14.829  18.330   5.378  0.1041 -0.0302 -0.1264
 1414PEP     CB52879  15.237  18.356   5.307 -0.0275  0.2967  0.1364
 1414PEP     CB52880  15.651  18.485   5.139  0.4247 -0.0037 -0.0062
 1415PEP     CB52881   4.822   6.652  15.542  0.2814  0.0195 -0.0978
 1415PEP     CB52882   5.166   6.794  15.695  0.4319 -0.1326  0.1639
 1415PEP     CB52883   5.599   6.719  15.837 -0.4081  0.1234  0.1212
 1415PEP     CB52884   5.740   6.292  15.965  0.1541 -0.2710  0.2027
 1415PEP     CB52885   5.540   6.048  16.274 -0.2057 -0.3078  0.2494
 1415PEP     CB52886   5.296   6.189  16.682 -0.0194  0.0340 -0.2216
 1415PEP     CB52887   5.108   6.117  17.115 -0.1706  0.1327 -0.0874
 1415PEP     CB52888   5.127   5.952  17.571 -0.2396 -0.0847 -0.2853
 1415PEP     CB52889   4.950   5.991  17.980  0.1912  0.2541  0.1224
 1415PEP     CB52890   4.741   6.062  18.336  0.1240  0.0909  0.4746
 1415PEP     CB52891   4.373   6.025  18.577  0.1810  0.0146  0.2866
 1415PEP     CB52892   4.326   6.243  18.962  0.0175 -0.0879  0.0169
 1415PEP     CB52893   4.525   6.636  19.127 -0.3173  0.1101 -0.2136
 1415PEP     CB52894   4.910   6.766  18.927  0.1608 -0.1744 -0.2571
 1415PEP     CB52895   5.350   6.902  18.762  0.2364 -0.2908 -0.0135
 1415PEP     CB52896   5.503   7.112  18.470 -0.2403 -0.3384 -0.1828
 1415PEP     CB52897   5.731   7.210  18.210 -0.4871 -0.3296 -0.0576
 1415PEP     CB52898   5.861   7.308  17.865 -0.1086  0.3722 -0.2829
 1415PEP     CB52899   6.171   7.385  17.541 -0.0153  0.4955  0.3410
 1415PEP     CB52900   6.583   7.166  17.452 -0.0705 -0.4507 -0.1397
 1415PEP     CB52901   6.547   6.760  17.546 -0.4670 -0.2032 -0.2733
 1415PEP     CB52902   6.345   6.353  17.445 -0.0464  0.1667  0.0518
 1415PEP     CB52903   6.208   6.161  17.131 -0.1275 -0.2850 -0.1365
 1415PEP     CB52904   6.495   6.062  16.766  0.0643 -0.2148 -0.3883
 1415PEP     CB52905   6.889   6.331  16.686  0.1451  0.0941 -0.1594
 1415PEP     CB52906   7.195   6.422  16.975  0.0426 -0.1137  0.1766
 1415PEP     CB52907   7.329   6.252  17.360  0.3071  0.0460  0.2148
 1415PEP     CB52908   7.218   6.240  17.723  0.3759  0.1107  0.1628
 1415PEP     CB52909   7.032   6.052  18.079  0.2283 -0.0841  0.5453
 1415PEP     CB52910   6.683   5.695  18.143  0.5075  0.3534  0.3050
 1415PEP     CB52911   6.779   5.197  18.355 -0.0293  0.2340  0.2409
 1415PEP     CB52912   7.009   4.991  18.645 -0.0835 -0.3945  0.1071
 1415PEP     CB52913   6.964   4.566  18.599 -0.0129  0.1657 -0.0183
 1415PEP     CB52914   7.017   4.161  18.412 -0.2101  0.3953  0.2314
 1415PEP     CB52915   7.122   3.680  18.567 -0.0673 -0.0118 -0.1439
 1415PEP     CB52916   7.152   3.257  18.735 -0.2651  0.0057 -0.2162
 1415PEP     CB52917   7.035   2.824  18.686 -0.0346  0.0399  0.2502
 1415PEP     CB52918   7.001   2.526  18.498  0.0983  0.0792  0.0251
 1415PEP     CB52919   7.036   2.250  18.250  0.0181  0.2349  0.1768
 1415PEP     CB52920   7.085   2.085  17.842 -0.2280  0.0716  0.3886
 1416PEP     CB52921  15.297  15.493   3.522  0.2293 -0.3733 -0.1371
 1416PEP     CB52922  15.110  15.090   3.522 -0.1624 -0.0153  0.0694
 1416PEP     CB52923  15.377  14.752   3.290 -0.2827  0.0735 -0.0688
 1416PEP     CB52924  15.864  14.564   3.382  0.3151 -0.1766 -0.2885
 1416PEP     CB52925  16.149  14.241   3.704  0.1879 -0.3419 -0.2325
 1416PEP     CB52926  16.248  13.842   3.831  0.3380 -0.4055 -0.0818
 1416PEP     CB52927  16.612  13.580   3.776  0.5221  0.0872 -0.2004
 1416PEP     CB52928  16.936  13.360   3.846  0.2161  0.1816 -0.3427
 1416PEP     CB52929  17.227  13.105   3.866 -0.0885  0.0652  0.0039
 1416PEP     CB52930  17.230  12.701   3.728 -0.3178  0.0382  0.0595
 1416PEP     CB52931  16.902  12.587   3.401  0.2443 -0.2039 -0.3215
 1416PEP     CB52932  16.665  12.742   3.070  0.2409 -0.1038 -0.2356
 1416PEP     CB52933  16.440  12.609   2.810  0.3449  0.2590  0.1587
 1416PEP     CB52934  16.284  12.497   2.309 -0.0698 -0.0255 -0.2382
 1416PEP     CB52935  16.328  12.171   2.040  0.0353 -0.1232 -0.1001
 1416PEP     CB52936  16.221  11.693   2.112  0.0118 -0.3484 -0.0897
 1416PEP     CB52937  15.758  11.412   2.133  0.0040  0.3383 -0.2917
 1416PEP     CB52938  15.368  11.544   2.030  0.2098 -0.5109  0.2388
 1416PEP     CB52939  15.078  11.655   1.626  0.1224  0.2572  0.1633
 1416PEP     CB52940  14.846  11.728   1.267  0.0534 -0.0118 -0.0603
 1416PEP     CB52941  14.580  11.637   0.934  0.1862 -0.0712  0.0685
 1416PEP     CB52942  14.491  11.464   0.657  0.4126  0.2368 -0.0194
 1416PEP     CB52943  14.314  11.139   0.458 -0.3521 -0.0497 -0.3312
 1416PEP     CB52944  14.052  10.915   0.245  0.2615  0.0303  0.0568
 1416PEP     CB52945  13.846  10.466   0.185  0.1781 -0.1341 -0.2516
 1416PEP     CB52946  13.464  10.194   0.151 -0.2682 -0.0166 -0.1777
 1416PEP     CB52947  13.247   9.910  -0.145 -0.0864  0.1600  0.5406
 1416PEP     CB52948  12.908   9.571  -0.027  0.0692 -0.1483 -0.0775
 1416PEP     CB52949  12.729   9.281   0.250 -0.0222  0.1891  0.1415
 1416PEP     CB52950  12.587   8.862   0.484 -0.0052  0.1292  0.2328
 1416PEP     CB52951  12.376   8.505   0.715  0.3156  0.0641 -0.2522
 1416PEP     CB52952  12.006   8.480   0.929 -0.1743  0.2585  0.0412
 1416PEP     CB52953  11.798   8.684   1.167 -0.1720 -0.3213  0.2123
 1416PEP     CB52954  11.941   8.963   1.518  0.0368  0.0015 -0.4167
 1416PEP     CB52955  12.133   9.436   1.699  0.1938 -0.2611 -0.1095
 1416PEP     CB52956  12.185   9.811   1.675 -0.1488 -0.0497  0.0897
 1416PEP     CB52957  12.409  10.229   1.652  0.0529  0.0303  0.1979
 1416PEP     CB52958  12.704  10.480   1.543 -0.1849  0.3106 -0.0522
 1416PEP     CB52959  13.042  10.663   1.461  0.0268 -0.0506 -0.1514
 1416PEP     CB52960  13.217  11.137   1.371  0.2819  0.1060  0.1533
 1417PEP     CB52961   9.841  12.302   0.344 -0.1237 -0.2231 -0.0500
 1417PEP     CB52962   9.686  12.627   0.659  0.0211 -0.1934  0.2508
 1417PEP     CB52963  10.004  12.961   0.913  0.3630  0.2527  0.0218
 1417PEP     CB52964  10.399  13.144   0.790  0.1366 -0.2398 -0.0966
 1417PEP     CB52965  10.799  13.198   0.781  0.1672  0.0739 -0.0071
 1417PEP     CB52966  11.223  13.001   0.741 -0.0603 -0.0389  0.0953
 1417PEP     CB52967  11.570  12.788   0.559 -0.4009  0.1521 -0.4917
 1417PEP     CB52968  11.913  12.672   0.352 -0.3307  0.1159 -0.3442
 1417PEP     CB52969  12.201  12.446   0.200  0.3158 -0.3747 -0.3833
 1417PEP     CB52970  12.342  12.001   0.059  0.0513 -0.2670  0.3908
 1417PEP     CB52971  12.633  11.697   0.104 -0.0273  0.3455 -0.2822
 1417PEP     CB52972  12.673  11.315   0.061 -0.0622  0.2628  0.4487
 1417PEP     CB52973  12.709  11.007  -0.223 -0.0491 -0.1032  0.4947
 1417PEP     CB52974  12.669  10.944  -0.684  0.0601 -0.0057 -0.0087
 1417PEP     CB52975  12.598  11.274  -1.071  0.1612 -0.0508 -0.0136
 1417PEP     CB52976  12.786  11.485  -1.414  0.5180 -0.0572  0.1358
 1417PEP     CB52977  12.679  11.714  -1.916  0.1845 -0.0143 -0.1936
 1417PEP     CB52978  12.346  11.654  -2.129 -0.0602 -0.1788  0.0159
 1417PEP     CB52979  12.059  11.354  -2.197  0.2710  0.0903  0.4866
 1417PEP     CB52980  11.670  11.247  -1.968  0.0498 -0.1980  0.0074
 1417PEP     CB52981  11.683  11.216  -1.468  0.3582 -0.3067  0.1253
 1417PEP     CB52982  12.051  11.182  -1.379 -0.2975  0.1934  0.2974
 1417PEP     CB52983  12.369  11.312  -1.702  0.0436  0.2263 -0.1036
 1417PEP     CB52984  12.567  11.207  -2.113  0.1402 -0.0751  0.0237
 1417PEP     CB52985  12.685  10.883  -2.427 -0.1081  0.0106  0.2470
 1417PEP     CB52986  12.625  10.678  -2.890 -0.0286  0.1059  0.0707
 1417PEP     CB52987  12.824  10.287  -3.030 -0.2884  0.2204  0.1144
 1417PEP     CB52988  13.113  10.025  -2.918 -0.2868  0.1254 -0.2724
 1417PEP     CB52989  13.523   9.817  -3.036  0.2158 -0.1534 -0.2035
 1417PEP     CB52990  13.924   9.661  -3.247  0.3182 -0.1985 -0.1596
 1417PEP     CB52991  13.956   9.275  -3.394  0.2185  0.4994 -0.1338
 1417PEP     CB52992  13.708   8.928  -3.200 -0.0239  0.0944 -0.1936
 1417PEP     CB52993  13.797   8.678  -2.812  0.0025  0.5013  0.1050
 1417PEP     CB52994  13.807   8.496  -2.409 -0.2812  0.1325  0.3015
 1417PEP     CB52995  13.851   8.122  -2.263 -0.0346  0.1277 -0.1412
 1417PEP     CB52996  13.934   7.762  -2.456 -0.7236 -0.1584  0.2183
 1417PEP     CB52997  13.775   7.542  -2.832  0.1307 -0.1897  0.1614
 1417PEP     CB52998  13.821   7.036  -2.849  0.0182 -0.0450 -0.8495
 1417PEP     CB52999  13.973   6.868  -2.442  0.0484  0.1126 -0.1136
 1417PEP     CB53000  13.930   6.869  -2.060 -0.2443  0.1467  0.3232
 1418PEP     CB53001  12.489   3.119   1.886 -0.2097 -0.0250 -0.2160
 1418PEP     CB53002  12.843   3.257   2.059  0.3157  0.0290  0.0561
 1418PEP     CB53003  13.102   3.519   2.268  0.0631 -0.0882 -0.0430
 1418PEP     CB53004  13.297   3.796   1.982  0.2910 -0.0796  0.1264
 1418PEP     CB53005  13.211   3.845   1.483  0.0514  0.3947 -0.1082
 1418PEP     CB53006  13.339   3.965   1.077  0.3569 -0.0237 -0.3638
 1418PEP     CB53007  13.522   3.794   0.771  0.3714  0.3185 -0.2950
 1418PEP     CB53008  13.367   3.515   0.440  0.4913 -0.0765  0.0678
 1418PEP     CB53009  12.919   3.338   0.355  0.0902 -0.1041 -0.0543
 1418PEP     CB53010  12.431   3.256   0.256 -0.0009 -0.1711  0.0955
 1418PEP     CB53011  12.068   3.272  -0.020  0.3117 -0.1553  0.1021
 1418PEP     CB53012  11.769   2.872   0.041  0.1074  0.0347 -0.1301
 1418PEP     CB53013  12.045   2.472  -0.010  0.2055  0.0243 -0.0383
 1418PEP     CB53014  12.447   2.508  -0.142 -0.1355 -0.1483 -0.2588
 1418PEP     CB53015  12.861   2.687   0.010 -0.0205  0.2533 -0.0403
 1418PEP     CB53016  13.240   2.647   0.230 -0.4666 -0.3590  0.0083
 1418PEP     CB53017  13.296   2.443   0.642 -0.1606  0.2063  0.0510
 1418PEP     CB53018  13.317   2.473   1.079 -0.3870  0.2192  0.1815
 1418PEP     CB53019  13.486   2.734   1.492  0.1948  0.0618  0.0471
 1418PEP     CB53020  13.523   2.976   1.858  0.0676 -0.0775  0.2252
 1418PEP     CB53021  13.623   3.357   2.018  0.0938  0.2354 -0.2004
 1418PEP     CB53022  13.609   3.757   2.356 -0.1767  0.2633 -0.0064
 1418PEP     CB53023  13.967   3.884   2.639 -0.1764  0.4940 -0.1539
 1418PEP     CB53024  13.949   3.647   3.066  0.1112  0.1242 -0.2923
 1418PEP     CB53025  13.675   3.417   3.323 -0.2582  0.3010 -0.4627
 1418PEP     CB53026  13.272   3.580   3.378  0.1733 -0.0031 -0.0911
 1418PEP     CB53027  12.899   3.843   3.664  0.0872  0.0176 -0.1206
 1418PEP     CB53028  13.114   4.126   3.957  0.0859 -0.0261 -0.8078
 1418PEP     CB53029  13.484   4.026   3.989 -0.1740  0.0522  0.2307
 1418PEP     CB53030  13.471   3.540   3.940 -0.1612 -0.0049  0.0289
 1418PEP     CB53031  13.058   3.371   3.909 -0.1756  0.2262 -0.1811
 1418PEP     CB53032  12.602   3.498   3.821 -0.1671 -0.0875  0.0663
 1418PEP     CB53033  12.387   3.648   3.485 -0.4249  0.0122 -0.0208
 1418PEP     CB53034  12.266   3.380   3.104 -0.2592 -0.1994 -0.1638
 1418PEP     CB53035  12.156   2.977   3.020  0.2791  0.3567 -0.0406
 1418PEP     CB53036  12.428   2.649   2.833 -0.0020 -0.3037 -0.4898
 1418PEP     CB53037  12.754   2.891   2.630 -0.2109  0.1246 -0.0615
 1418PEP     CB53038  13.076   3.122   2.798 -0.1926  0.0197 -0.1859
 1418PEP     CB53039  13.409   3.115   3.009 -0.0834 -0.0593 -0.0640
 1418PEP     CB53040  13.804   2.946   3.102 -0.2497  0.1517  0.0713
 1419PEP     CB53041  16.568  19.815   0.500 -0.0294  0.2478 -0.0357
 1419PEP     CB53042  16.738  19.986   0.123 -0.4884 -0.0159  0.0782
 1419PEP     CB53043  16.916  20.343   0.004  0.2178  0.0929 -0.2508
 1419PEP     CB53044  17.234  20.642   0.266  0.1252 -0.3590 -0.0313
 1419PEP     CB53045  17.213  20.899   0.626 -0.2177  0.2002 -0.1067
 1419PEP     CB53046  16.825  21.156   0.779 -0.0332 -0.1202 -0.1328
 1419PEP     CB53047  16.383  21.109   0.639 -0.3801  0.1361 -0.2639
 1419PEP     CB53048  16.266  20.950   0.310  0.0405  0.0971 -0.1919
 1419PEP     CB53049  16.505  20.681   0.215 -0.0473 -0.2089 -0.2768
 1419PEP     CB53050  16.806  20.631   0.597  0.1910  0.1782 -0.0558
 1419PEP     CB53051  16.513  20.696   0.979 -0.1765 -0.2243 -0.3235
 1419PEP     CB53052  16.115  20.601   1.084  0.1914  0.0319 -0.0308
 1419PEP     CB53053  15.775  20.372   1.288  0.0731  0.0569  0.2420
 1419PEP     CB53054  15.655  19.966   1.295  0.4989  0.0801 -0.0498
 1419PEP     CB53055  15.639  19.655   0.934  0.3413 -0.1153 -0.0004
 1419PEP     CB53056  15.757  19.760   0.522 -0.1146 -0.0371 -0.3378
 1419PEP     CB53057  16.015  19.994   0.407 -0.0244  0.1554  0.1914
 1419PEP     CB53058  16.262  20.193   0.067  0.1910  0.4647  0.2765
 1419PEP     CB53059  16.479  20.465  -0.213 -0.2314 -0.0729  0.2120
 1419PEP     CB53060  16.380  20.811  -0.377  0.4311 -0.3132 -0.0315
 1419PEP     CB53061  16.593  21.250  -0.538  0.3215 -0.1247  0.2213
 1419PEP     CB53062  17.000  21.450  -0.644 -0.1889  0.2147 -0.1531
 1419PEP     CB53063  17.384  21.502  -0.577 -0.0524  0.0114 -0.1498
 1419PEP     CB53064  17.730  21.245  -0.744  0.1985  0.4388 -0.1204
 1419PEP     CB53065  18.157  21.110  -0.881 -0.2538  0.1198  0.2788
 1419PEP     CB53066  18.491  21.069  -0.972 -0.2267 -0.3239 -0.4070
 1419PEP     CB53067  18.852  20.898  -0.753 -0.2125  0.0787 -0.0870
 1419PEP     CB53068  19.205  20.951  -0.423 -0.1977 -0.1979 -0.2726
 1419PEP     CB53069  19.103  21.161  -0.082  0.3854 -0.2773  0.0052
 1419PEP     CB53070  19.008  21.527   0.100 -0.2200  0.0007 -0.1839
 1419PEP     CB53071  18.661  21.763   0.111 -0.0247  0.1273  0.3443
 1419PEP     CB53072  18.209  21.779   0.055 -0.0609 -0.1499  0.0778
 1419PEP     CB53073  17.748  21.779   0.269 -0.1879  0.5282  0.2100
 1419PEP     CB53074  17.365  21.765   0.507  0.2864 -0.1002 -0.2169
 1419PEP     CB53075  16.889  21.887   0.700  0.0755  0.6906 -0.0744
 1419PEP     CB53076  16.728  21.954   1.117 -0.0280  0.0150 -0.0652
 1419PEP     CB53077  16.488  21.705   1.389 -0.0956 -0.2576  0.3124
 1419PEP     CB53078  16.268  21.620   1.784  0.2004 -0.2444 -0.2332
 1419PEP     CB53079  15.902  21.531   2.111 -0.0530  0.2452  0.0073
 1419PEP     CB53080  15.690  21.295   2.397 -0.0133  0.3153 -0.3981
 1420PEP     CB53081   2.168  15.567  11.537  0.0511 -0.0225 -0.1366
 1420PEP     CB53082   2.239  15.139  11.288  0.2191  0.2549  0.2195
 1420PEP     CB53083   2.145  14.743  11.157  0.1005  0.2848  0.0621
 1420PEP     CB53084   1.845  14.448  11.059 -0.2573 -0.1543  0.2086
 1420PEP     CB53085   1.797  14.044  11.032  0.2405 -0.2751 -0.0324
 1420PEP     CB53086   1.454  13.735  10.934 -0.2578  0.2303  0.2090
 1420PEP     CB53087   1.172  13.552  10.502 -0.1944 -0.0627 -0.0660
 1420PEP     CB53088   1.194  13.276  10.104  0.2384 -0.4157 -0.0416
 1420PEP     CB53089   1.191  13.010   9.729  0.4155  0.2303 -0.4992
 1420PEP     CB53090   1.179  13.000   9.315 -0.2270  0.1563 -0.3406
 1420PEP     CB53091   1.050  13.155   8.935 -0.1855  0.2285 -0.1744
 1420PEP     CB53092   0.887  13.495   8.755  0.0324  0.3466  0.1694
 1420PEP     CB53093   1.092  13.869   8.885 -0.1420 -0.0255  0.2091
 1420PEP     CB53094   1.017  14.299   9.003  0.1603  0.3125  0.4579
 1420PEP     CB53095   0.814  14.626   9.171 -0.0603 -0.3895  0.0655
 1420PEP     CB53096   0.702  15.005   9.215 -0.0745 -0.0937  0.1796
 1420PEP     CB53097   0.887  15.398   8.997  0.1939  0.0399  0.0762
 1420PEP     CB53098   1.176  15.524   8.651 -0.5724 -0.2606 -0.0700
 1420PEP     CB53099   1.620  15.428   8.490 -0.1968 -0.2766  0.5123
 1420PEP     CB53100   2.044  15.477   8.361 -0.3534  0.1074 -0.1100
 1420PEP     CB53101   2.445  15.595   8.173  0.2263  0.1208  0.2023
 1420PEP     CB53102   2.798  15.712   7.857 -0.2069 -0.3490  0.1851
 1420PEP     CB53103   3.068  15.894   7.553 -0.0911 -0.0947 -0.2254
 1420PEP     CB53104   3.249  16.243   7.291 -0.0294 -0.6138  0.1785
 1420PEP     CB53105   3.308  16.626   7.118  0.1496 -0.0121  0.1127
 1420PEP     CB53106   3.419  16.985   6.844 -0.7625  0.0080 -0.1483
 1420PEP     CB53107   3.665  17.416   6.626 -0.0935  0.2928  0.0907
 1420PEP     CB53108   3.927  17.384   6.224 -0.3913 -0.1667 -0.1888
 1420PEP     CB53109   4.127  17.054   6.084  0.0147 -0.0195  0.1205
 1420PEP     CB53110   4.141  16.636   6.314 -0.0723  0.0795  0.0796
 1420PEP     CB53111   4.300  16.678   6.617  0.0178  0.1870  0.1687
 1420PEP     CB53112   4.441  17.021   6.688 -0.1202  0.1028 -0.1305
 1420PEP     CB53113   4.524  17.291   6.279 -0.2568 -0.1610 -0.2686
 1420PEP     CB53114   4.970  17.308   6.201 -0.1092  0.0524 -0.2813
 1420PEP     CB53115   5.217  16.993   6.283  0.1544 -0.4246  0.0815
 1420PEP     CB53116   5.418  16.853   6.580  0.1465 -0.1906  0.3996
 1420PEP     CB53117   5.572  16.412   6.628  0.0566 -0.1453  0.1256
 1420PEP     CB53118   5.874  16.301   6.278  0.0548 -0.3385  0.2004
 1420PEP     CB53119   6.114  16.604   5.990 -0.2142 -0.0553  0.1615
 1420PEP     CB53120   6.229  16.993   6.160 -0.1861  0.0226  0.1085
 1421PEP     CB53121   8.849  20.949   9.705  0.5314  0.1953  0.0508
 1421PEP     CB53122   8.673  21.228  10.050 -0.2465  0.2818 -0.0394
 1421PEP     CB53123   8.848  21.430  10.477  0.6408 -0.0175 -0.1103
 1421PEP     CB53124   9.067  21.839  10.666 -0.1882 -0.1319  0.0633
 1421PEP     CB53125   9.141  22.168  10.746 -0.1201 -0.0629 -0.1455
 1421PEP     CB53126   9.488  22.488  10.714 -0.0747  0.0472  0.0304
 1421PEP     CB53127   9.818  22.880  10.878  0.0927  0.2293  0.0098
 1421PEP     CB53128   9.908  23.228  10.624 -0.1415 -0.1340  0.1769
 1421PEP     CB53129  10.002  23.215  10.137  0.0293 -0.1287 -0.2812
 1421PEP     CB53130   9.728  22.990   9.858 -0.0479 -0.0340 -0.1221
 1421PEP     CB53131   9.358  22.739   9.971  0.1101 -0.2371 -0.3118
 1421PEP     CB53132   9.387  22.239  10.153  0.1180 -0.1300  0.0306
 1421PEP     CB53133   9.662  21.930  10.035  0.0753 -0.1517  0.0720
 1421PEP     CB53134   9.739  21.753   9.691  0.2832  0.3468  0.0121
 1421PEP     CB53135   9.591  21.700   9.260 -0.2692 -0.0688 -0.0124
 1421PEP     CB53136   9.219  21.531   9.032  0.0523 -0.1493 -0.0084
 1421PEP     CB53137   9.052  21.171   9.213  0.3246 -0.6238 -0.1525
 1421PEP     CB53138   9.298  20.961   9.512 -0.1802  0.3483  0.0803
 1421PEP     CB53139   9.575  21.036   9.809  0.1090  0.1088 -0.3036
 1421PEP     CB53140   9.792  20.783  10.156  0.0848 -0.4063  0.2022
 1421PEP     CB53141  10.207  20.596  10.145  0.1088  0.0476  0.1259
 1421PEP     CB53142  10.577  20.388   9.910  0.0899  0.0696  0.0781
 1421PEP     CB53143  10.957  20.373   9.755  0.2213 -0.1589 -0.0283
 1421PEP     CB53144  11.361  20.435   9.758  0.2814 -0.0540  0.1158
 1421PEP     CB53145  11.674  20.626   9.509  0.0602 -0.0549 -0.4575
 1421PEP     CB53146  12.157  20.709   9.428 -0.0435  0.2489  0.1982
 1421PEP     CB53147  12.504  20.674   9.371 -0.2054 -0.0424  0.0980
 1421PEP     CB53148  12.841  20.806   9.034  0.1407 -0.2018 -0.0403
 1421PEP     CB53149  12.969  20.852   8.516  0.2856 -0.2319  0.0650
 1421PEP     CB53150  13.311  20.908   8.245 -0.3887 -0.2275  0.0783
 1421PEP     CB53151  13.531  21.123   7.981  0.1176 -0.0489 -0.1225
 1421PEP     CB53152  13.327  21.510   7.761  0.3169 -0.2960  0.0145
 1421PEP     CB53153  12.871  21.481   7.648 -0.0918  0.2260  0.4400
 1421PEP     CB53154  12.555  21.397   7.995  0.2496 -0.3666  0.4938
 1421PEP     CB53155  12.566  21.166   8.364  0.0887 -0.3251  0.3327
 1421PEP     CB53156  12.415  20.850   8.627  0.1471  0.1289  0.1074
 1421PEP     CB53157  12.342  20.416   8.671 -0.0201  0.0518 -0.2227
 1421PEP     CB53158  12.146  20.107   8.599 -0.3267  0.0907  0.3642
 1421PEP     CB53159  11.769  19.962   8.381  0.1443  0.0106  0.0915
 1421PEP     CB53160  11.345  19.904   8.247 -0.3705 -0.1392 -0.2019
 1422PEP     CB53161  17.270   2.919  22.020  0.0484 -0.0599  0.2793
 1422PEP     CB53162  17.556   2.738  21.694  0.0579  0.1757  0.4445
 1422PEP     CB53163  17.776   2.414  21.505 -0.3364  0.0168 -0.0529
 1422PEP     CB53164  17.739   2.044  21.330 -0.1364 -0.1404 -0.2374
 1422PEP     CB53165  17.849   1.616  21.250  0.1449  0.1265 -0.1517
 1422PEP     CB53166  17.708   1.228  21.427 -0.1532 -0.1341 -0.2176
 1422PEP     CB53167  17.455   0.975  21.676  0.1938  0.1896 -0.0085
 1422PEP     CB53168  17.354   0.912  22.020 -0.1555 -0.0212 -0.3083
 1422PEP     CB53169  17.215   0.816  22.443  0.0643 -0.1028  0.0182
 1422PEP     CB53170  16.860   0.605  22.490  0.4236 -0.3419 -0.1660
 1422PEP     CB53171  16.574   0.359  22.631 -0.0512 -0.3273 -0.1067
 1422PEP     CB53172  16.419   0.134  22.852 -0.0043 -0.1373 -0.0679
 1422PEP     CB53173  16.251   0.173  23.216  0.0836 -0.4306  0.3082
 1422PEP     CB53174  16.480   0.259  23.637  0.2383  0.0012  0.1065
 1422PEP     CB53175  16.616   0.159  24.128 -0.1477 -0.0750 -0.0449
 1422PEP     CB53176  16.622  -0.019  24.572 -0.1064  0.1171  0.4552
 1422PEP     CB53177  16.747   0.049  25.044  0.2442 -0.1263  0.1274
 1422PEP     CB53178  16.852   0.342  25.359  0.0086  0.3095 -0.1888
 1422PEP     CB53179  17.037   0.447  25.787  0.0908  0.1014  0.2473
 1422PEP     CB53180  17.147   0.599  26.225 -0.2785 -0.3279 -0.2327
 1422PEP     CB53181  17.467   0.421  26.571 -0.1132  0.1346  0.0547
 1422PEP     CB53182  17.763   0.040  26.696  0.0795 -0.0560 -0.1399
 1422PEP     CB53183  17.874  -0.325  26.453  0.3692 -0.2344 -0.3519
 1422PEP     CB53184  18.067  -0.537  26.055 -0.0477 -0.2672 -0.1862
 1422PEP     CB53185  17.999  -0.723  25.674  0.3145 -0.0547  0.1966
 1422PEP     CB53186  18.050  -1.023  25.356  0.2241  0.0540 -0.0988
 1422PEP     CB53187  18.244  -1.321  25.291  0.2518  0.4124 -0.5036
 1422PEP     CB53188  18.613  -1.453  25.148  0.0308  0.1482 -0.2244
 1422PEP     CB53189  19.101  -1.294  25.150 -0.0869 -0.0589 -0.3137
 1422PEP     CB53190  19.310  -1.057  25.393 -0.2576  0.0372 -0.0031
 1422PEP     CB53191  19.406  -1.168  25.782  0.4716  0.2553  0.1045
 1422PEP     CB53192  18.976  -1.236  26.109  0.0257  0.0402  0.0656
 1422PEP     CB53193  18.616  -1.370  26.278  0.1273 -0.1622  0.4688
 1422PEP     CB53194  18.339  -1.673  26.278  0.0782 -0.0738 -0.1911
 1422PEP     CB53195  17.963  -1.850  26.411 -0.0543 -0.0641  0.2758
 1422PEP     CB53196  17.555  -1.845  26.183  0.1113  0.1096 -0.2896
 1422PEP     CB53197  17.265  -1.702  25.963  0.0271 -0.4075  0.1547
 1422PEP     CB53198  17.066  -1.466  25.685 -0.7196  0.1505 -0.1545
 1422PEP     CB53199  16.843  -1.219  25.502  0.0857  0.3593 -0.0087
 1422PEP     CB53200  16.665  -0.932  25.397 -0.2515  0.5596  0.1213
 1423PEP     CB53201  13.771  11.976   3.102  0.0210 -0.1160  0.0650
 1423PEP     CB53202  13.645  12.400   3.285 -0.2645 -0.0443  0.1820
 1423PEP     CB53203  13.656  12.905   3.161 -0.5057  0.2221  0.0531
 1423PEP     CB53204  13.378  13.250   3.198  0.2925  0.1185  0.0844
 1423PEP     CB53205  13.153  13.393   3.599 -0.1191 -0.2033  0.1683
 1423PEP     CB53206  13.036  13.505   4.003  0.0525  0.2120  0.3372
 1423PEP     CB53207  13.210  13.661   4.434  0.3780  0.0682  0.0143
 1423PEP     CB53208  13.079  13.917   4.884 -0.3931 -0.5147  0.3626
 1423PEP     CB53209  12.868  14.146   5.261 -0.0420 -0.0560  0.0172
 1423PEP     CB53210  12.477  14.076   5.498 -0.2054 -0.1463 -0.0218
 1423PEP     CB53211  12.116  13.960   5.387 -0.0374  0.3241 -0.1311
 1423PEP     CB53212  11.777  13.689   5.527  0.0799 -0.5300  0.2016
 1423PEP     CB53213  11.647  13.227   5.558  0.3028 -0.3140 -0.0095
 1423PEP     CB53214  11.571  12.841   5.392 -0.1223 -0.1212 -0.2756
 1423PEP     CB53215  11.571  12.461   5.149 -0.1431  0.2007 -0.0456
 1423PEP     CB53216  11.743  12.308   4.735  0.0107 -0.1031  0.0333
 1423PEP     CB53217  11.944  12.594   4.508  0.1309  0.1764  0.2315
 1423PEP     CB53218  12.190  12.914   4.692  0.2398 -0.3659 -0.1220
 1423PEP     CB53219  12.492  12.798   5.105 -0.0393  0.2267  0.3011
 1423PEP     CB53220  12.510  12.428   5.367  0.5613 -0.2746  0.0055
 1423PEP     CB53221  12.413  12.512   5.785  0.3371 -0.4337  0.0729
 1423PEP     CB53222  12.057  12.479   6.053  0.0490  0.0507  0.1827
 1423PEP     CB53223  11.572  12.447   6.093 -0.2507 -0.7502 -0.1352
 1423PEP     CB53224  11.373  12.072   6.140  0.0966  0.4364 -0.1300
 1423PEP     CB53225  11.271  11.700   5.865 -0.1650 -0.1339  0.0994
 1423PEP     CB53226  10.923  11.619   5.638  0.1828 -0.1608 -0.1190
 1423PEP     CB53227  10.632  11.851   5.573  0.0565  0.1519  0.5016
 1423PEP     CB53228  10.328  12.213   5.799  0.1848 -0.1299  0.2813
 1423PEP     CB53229  10.436  12.655   5.789  0.1559 -0.1609  0.0582
 1423PEP     CB53230  10.844  12.822   5.860  0.2563  0.3734  0.0692
 1423PEP     CB53231  11.026  12.761   6.243 -0.0793  0.1584 -0.0166
 1423PEP     CB53232  10.840  12.347   6.508  0.0328 -0.1177 -0.1014
 1423PEP     CB53233  10.424  12.222   6.319  0.1450  0.1211  0.0198
 1423PEP     CB53234  10.196  12.544   6.197  0.1861  0.0480 -0.0343
 1423PEP     CB53235   9.967  12.824   6.416  0.1444 -0.0370  0.2118
 1423PEP     CB53236   9.825  13.216   6.626  0.0738  0.1270 -0.1503
 1423PEP     CB53237  10.004  13.633   6.754  0.0203 -0.1879 -0.4500
 1423PEP     CB53238  10.422  13.740   6.719 -0.3523 -0.3409 -0.1587
 1423PEP     CB53239  10.748  13.544   6.812 -0.1219 -0.5318  0.1243
 1423PEP     CB53240  10.947  13.135   6.895  0.0531  0.2533  0.2071
 1424PEP     CB53241   2.458  20.177   4.195  0.1842 -0.5192  0.0777
 1424PEP     CB53242   2.525  20.036   3.795 -0.0814  0.1509 -0.0845
 1424PEP     CB53243   2.531  20.138   3.419  0.0047 -0.0133  0.2785
 1424PEP     CB53244   2.544  20.191   3.007 -0.1611 -0.0976 -0.0326
 1424PEP     CB53245   2.679  19.984   2.648 -0.1907  0.0078  0.2677
 1424PEP     CB53246   2.727  20.002   2.144 -0.0980  0.0729  0.1297
 1424PEP     CB53247   2.849  20.115   1.709 -0.2645  0.1212 -0.0185
 1424PEP     CB53248   2.811  20.275   1.243 -0.4039  0.1591  0.1865
 1424PEP     CB53249   2.762  20.233   0.816  0.2479  0.1457  0.0936
 1424PEP     CB53250   2.563  19.925   0.515  0.1000 -0.1972  0.1394
 1424PEP     CB53251   2.574  19.484   0.422  0.1937 -0.2950 -0.0220
 1424PEP     CB53252   2.883  19.146   0.597 -0.0039 -0.2694  0.0134
 1424PEP     CB53253   3.200  19.164   0.918 -0.1739  0.1782 -0.1545
 1424PEP     CB53254   3.201  18.995   1.284  0.3907  0.1698 -0.3571
 1424PEP     CB53255   3.121  18.718   1.665 -0.2558 -0.4142  0.1749
 1424PEP     CB53256   2.871  18.422   1.916  0.1133 -0.2671  0.2803
 1424PEP     CB53257   2.804  17.997   2.143  0.0126 -0.2260  0.0010
 1424PEP     CB53258   2.575  17.703   2.402 -0.2085 -0.1929  0.0422
 1424PEP     CB53259   2.082  17.692   2.492 -0.0625 -0.0747 -0.2485
 1424PEP     CB53260   1.859  17.582   2.784 -0.0140 -0.2646 -0.0758
 1424PEP     CB53261   1.572  17.602   3.117  0.0744  0.3475 -0.3169
 1424PEP     CB53262   1.609  17.518   3.545  0.0539  0.0304 -0.3440
 1424PEP     CB53263   1.640  17.149   3.848 -0.3207 -0.1464  0.0639
 1424PEP     CB53264   2.004  16.818   3.841 -0.3100 -0.0355 -0.0699
 1424PEP     CB53265   2.432  16.873   4.018 -0.3145  0.3624 -0.4562
 1424PEP     CB53266   2.673  17.152   4.286 -0.2222  0.1749  0.1100
 1424PEP     CB53267   2.421  17.516   4.520  0.1072  0.3325 -0.2533
 1424PEP     CB53268   2.068  17.723   4.651  0.2451  0.0048  0.2438
 1424PEP     CB53269   1.731  17.556   4.849  0.2258 -0.1847  0.2111
 1424PEP     CB53270   1.324  17.404   4.812 -0.0857  0.1021  0.0150
 1424PEP     CB53271   0.930  17.511   4.951 -0.0483 -0.0757  0.0488
 1424PEP     CB53272   0.538  17.763   4.877  0.0514  0.0028 -0.4418
 1424PEP     CB53273   0.109  18.019   5.054 -0.3409  0.2761  0.2545
 1424PEP     CB53274  -0.284  18.117   5.101  0.4409  0.0936  0.3269
 1424PEP     CB53275  -0.482  18.477   5.333 -0.0280 -0.1593 -0.1638
 1424PEP     CB53276  -0.434  18.786   5.684 -0.0001 -0.3091  0.0277
 1424PEP     CB53277  -0.205  18.841   6.039  0.4036 -0.4115  0.0619
 1424PEP     CB53278  -0.011  18.771   6.282 -0.0830  0.0085 -0.6058
 1424PEP     CB53279   0.203  18.767   6.672 -0.1449  0.1464  0.1060
 1424PEP     CB53280   0.282  18.981   7.197 -0.1573 -0.0951  0.1361
 1425PEP     CB53281   3.457  20.938   4.348  0.1431 -0.0727  0.2158
 1425PEP     CB53282   3.186  20.914   4.700  0.0010  0.0213 -0.3731
 1425PEP     CB53283   2.741  20.906   4.828  0.0319 -0.0073 -0.3960
 1425PEP     CB53284   2.482  21.194   4.966  0.1340  0.0574 -0.0134
 1425PEP     CB53285   2.507  21.472   5.316  0.4003  0.2687 -0.4829
 1425PEP     CB53286   2.741  21.536   5.666 -0.0073  0.3432  0.1244
 1425PEP     CB53287   3.183  21.629   5.748  0.2570  0.0339 -0.1589
 1425PEP     CB53288   3.621  21.660   5.654  0.3167  0.2179 -0.1134
 1425PEP     CB53289   3.921  21.918   5.480  0.1814 -0.1281  0.0059
 1425PEP     CB53290   4.059  22.140   5.191  0.4052  0.0215  0.2290
 1425PEP     CB53291   4.100  22.050   4.806 -0.0587 -0.0029  0.0378
 1425PEP     CB53292   3.945  22.027   4.372 -0.2739  0.1351 -0.4320
 1425PEP     CB53293   3.938  21.876   3.942  0.3427 -0.1355  0.0375
 1425PEP     CB53294   3.782  21.629   3.646  0.2521  0.0005 -0.4266
 1425PEP     CB53295   4.003  21.160   3.692  0.2061 -0.3141  0.1938
 1425PEP     CB53296   4.379  21.239   3.914 -0.2851 -0.0402  0.1375
 1425PEP     CB53297   4.571  21.598   3.997 -0.2642  0.0189 -0.0496
 1425PEP     CB53298   4.452  21.977   3.865  0.1533 -0.0997  0.0831
 1425PEP     CB53299   4.160  22.113   3.448  0.2533 -0.2807  0.1429
 1425PEP     CB53300   3.858  21.786   3.159 -0.3426 -0.1105  0.0858
 1425PEP     CB53301   3.992  21.577   2.797 -0.3276  0.0353  0.1759
 1425PEP     CB53302   3.915  21.430   2.422 -0.1690 -0.2415  0.1973
 1425PEP     CB53303   3.711  21.332   2.044  0.1957 -0.2948 -0.1624
 1425PEP     CB53304   3.348  21.600   1.852 -0.2377 -0.2501  0.1902
 1425PEP     CB53305   3.128  22.061   1.966 -0.0597 -0.3360  0.0446
 1425PEP     CB53306   2.976  22.563   2.208  0.0202 -0.1294  0.0599
 1425PEP     CB53307   2.846  22.904   2.463 -0.1835  0.0967  0.0172
 1425PEP     CB53308   2.876  23.090   2.742  0.1773  0.3036 -0.2287
 1425PEP     CB53309   2.882  23.509   2.948  0.1243  0.2616  0.3988
 1425PEP     CB53310   2.642  23.802   3.205  0.1927  0.1018  0.0136
 1425PEP     CB53311   2.620  23.988   3.604  0.2104  0.1213  0.4408
 1425PEP     CB53312   2.677  24.427   3.645  0.1073  0.0712 -0.1096
 1425PEP     CB53313   2.671  24.737   3.316 -0.2331 -0.1653 -0.5657
 1425PEP     CB53314   2.529  25.028   3.028  0.2964 -0.1214 -0.0070
 1425PEP     CB53315   2.242  25.114   2.826 -0.0571 -0.6798 -0.1759
 1425PEP     CB53316   2.024  25.273   2.464 -0.5200 -0.4604  0.3618
 1425PEP     CB53317   1.905  25.632   2.193 -0.1325  0.0442 -0.1795
 1425PEP     CB53318   1.859  26.184   2.081  0.2012 -0.0891 -0.0272
 1425PEP     CB53319   1.673  26.488   1.890 -0.2704  0.3156  0.3774
 1425PEP     CB53320   1.848  26.893   1.967 -0.4206 -0.6464 -0.3779
 1426PEP     CB53321   6.163   1.472   4.094 -0.0324  0.4699 -0.1888
 1426PEP     CB53322   5.734   1.509   4.001  0.5487  0.4311 -0.2170
 1426PEP     CB53323   5.334   1.720   4.109  0.1006 -0.1328 -0.3699
 1426PEP     CB53324   5.156   2.151   4.151 -0.0407 -0.1928 -0.0881
 1426PEP     CB53325   5.259   2.535   4.363  0.0828 -0.2146  0.3427
 1426PEP     CB53326   5.470   2.891   4.185 -0.3254  0.1909  0.2105
 1426PEP     CB53327   5.262   3.245   3.937  0.0499  0.0896  0.2903
 1426PEP     CB53328   4.814   3.228   3.875  0.3084 -0.0564 -0.0124
 1426PEP     CB53329   4.456   3.353   4.247  0.0521 -0.2572  0.1822
 1426PEP     CB53330   4.484   3.318   4.766  0.0868 -0.7007 -0.0556
 1426PEP     CB53331   4.647   3.368   5.224 -0.0038 -0.1441 -0.0305
 1426PEP     CB53332   4.557   3.255   5.670 -0.0967 -0.3876  0.1708
 1426PEP     CB53333   4.743   3.117   6.076 -0.3170 -0.0190  0.0713
 1426PEP     CB53334   5.019   2.970   6.426 -0.2664 -0.0861  0.1542
 1426PEP     CB53335   5.090   2.905   6.896 -0.2192  0.4031  0.1818
 1426PEP     CB53336   4.893   2.691   7.250 -0.1126 -0.0032 -0.4032
 1426PEP     CB53337   4.674   2.277   7.370 -0.0016 -0.4424  0.1583
 1426PEP     CB53338   4.301   2.052   7.245 -0.4732  0.0913 -0.0626
 1426PEP     CB53339   3.824   2.110   7.168 -0.0726 -0.0387 -0.3410
 1426PEP     CB53340   3.425   2.207   7.259  0.0534 -0.0442 -0.0973
 1426PEP     CB53341   3.139   2.359   7.598  0.2043  0.1038 -0.0887
 1426PEP     CB53342   3.298   2.620   7.907  0.0920  0.0263 -0.3315
 1426PEP     CB53343   3.716   2.602   8.046  0.5772 -0.0825  0.2443
 1426PEP     CB53344   4.056   2.676   8.264  0.1696 -0.2382  0.0498
 1426PEP     CB53345   4.514   2.673   8.360  0.2585  0.0686 -0.1824
 1426PEP     CB53346   4.861   2.420   8.518 -0.1562 -0.0906 -0.2478
 1426PEP     CB53347   4.995   2.183   8.884 -0.3656 -0.4955  0.4680
 1426PEP     CB53348   5.301   1.878   9.175 -0.2199  0.3281  0.5611
 1426PEP     CB53349   5.399   1.529   9.394  0.1878 -0.0827  0.0088
 1426PEP     CB53350   5.413   1.069   9.278 -0.4399  0.3415 -0.2930
 1426PEP     CB53351   5.474   0.773   8.992  0.1966 -0.3130  0.2274
 1426PEP     CB53352   5.245   0.641   8.670  0.5387 -0.1225 -0.2299
 1426PEP     CB53353   4.855   0.739   8.478 -0.2067 -0.0414  0.0316
 1426PEP     CB53354   4.668   0.710   8.053  0.1020 -0.0837 -0.0675
 1426PEP     CB53355   4.374   0.432   8.046  0.2284  0.1806  0.1167
 1426PEP     CB53356   4.267  -0.001   8.217  0.1524 -0.0941  0.1101
 1426PEP     CB53357   4.324  -0.178   8.646  0.5331  0.3031  0.1011
 1426PEP     CB53358   4.524  -0.185   9.048  0.1976 -0.2126 -0.0343
 1426PEP     CB53359   4.985  -0.167   9.231  0.0327 -0.6938  0.3032
 1426PEP     CB53360   5.364  -0.301   8.943  0.0011  0.0227  0.1198
 1427PEP     CB53361   5.691  21.621  14.770  0.3371  0.5276  0.2887
 1427PEP     CB53362   6.035  21.811  14.594  0.1088  0.0005  0.4045
 1427PEP     CB53363   6.258  21.967  14.278 -0.1312  0.2168 -0.0279
 1427PEP     CB53364   6.487  22.043  13.924 -0.1275  0.0199  0.1420
 1427PEP     CB53365   6.562  22.108  13.504  0.0670 -0.0432  0.2364
 1427PEP     CB53366   6.840  22.078  13.146 -0.0423  0.2059 -0.0337
 1427PEP     CB53367   7.230  21.881  13.092 -0.2677 -0.1699  0.3033
 1427PEP     CB53368   7.392  21.560  12.915 -0.0199 -0.0632  0.2423
 1427PEP     CB53369   7.429  21.376  12.603 -0.0387 -0.0461  0.1865
 1427PEP     CB53370   7.537  21.353  12.113  0.3041  0.2063 -0.2506
 1427PEP     CB53371   7.401  20.898  11.980 -0.0916 -0.3007 -0.2640
 1427PEP     CB53372   7.350  20.602  12.378 -0.0819 -0.2518 -0.2210
 1427PEP     CB53373   7.557  20.597  12.774  0.1049 -0.4410 -0.4989
 1427PEP     CB53374   7.346  20.936  13.027 -0.0409 -0.0540 -0.2211
 1427PEP     CB53375   7.022  21.221  12.972 -0.3893 -0.2659 -0.1472
 1427PEP     CB53376   6.916  21.610  12.823  0.1472 -0.4443 -0.0761
 1427PEP     CB53377   6.875  21.795  12.368  0.0794 -0.0503  0.0331
 1427PEP     CB53378   6.734  22.172  12.062 -0.0479  0.0308 -0.0834
 1427PEP     CB53379   6.672  22.627  11.776 -0.0433  0.2659 -0.0105
 1427PEP     CB53380   6.604  22.875  11.381 -0.1322  0.2310 -0.0485
 1427PEP     CB53381   6.389  23.046  11.015 -0.0318  0.1641 -0.1880
 1427PEP     CB53382   6.222  22.920  10.656  0.1326 -0.0180 -0.0561
 1427PEP     CB53383   5.821  22.860  10.412  0.0012 -0.4547 -0.0397
 1427PEP     CB53384   5.390  22.573  10.465  0.3902 -0.0508  0.3460
 1427PEP     CB53385   5.491  22.079  10.436  0.0068  0.1712  0.0061
 1427PEP     CB53386   5.917  21.857  10.504  0.1753  0.2740 -0.4325
 1427PEP     CB53387   6.241  22.014  10.407 -0.1607 -0.4023  0.1117
 1427PEP     CB53388   6.261  22.340  10.081  0.1228 -0.1540  0.3076
 1427PEP     CB53389   6.051  22.354   9.702  0.1932  0.0770  0.0402
 1427PEP     CB53390   5.653  22.353   9.514  0.0400  0.5258 -0.1937
 1427PEP     CB53391   5.344  22.076   9.604 -0.1734 -0.3647 -0.1682
 1427PEP     CB53392   5.197  21.715   9.782 -0.1390  0.0333 -0.0097
 1427PEP     CB53393   5.406  21.363   9.931  0.1757  0.5857 -0.3288
 1427PEP     CB53394   5.798  21.252   9.854  0.4263 -0.3717  0.1445
 1427PEP     CB53395   5.997  21.024   9.676  0.0628 -0.3511  0.0371
 1427PEP     CB53396   6.001  20.637   9.392  0.0448 -0.0983 -0.1532
 1427PEP     CB53397   5.951  20.286   9.296 -0.4424  0.5357  0.1993
 1427PEP     CB53398   6.151  19.851   9.292 -0.1396 -0.2997 -0.1086
 1427PEP     CB53399   6.513  19.697   9.099 -0.0196  0.2273  0.3197
 1427PEP     CB53400   6.704  19.550   8.748 -0.0798  0.2231 -0.0406
 1428PEP     CB53401  15.015   4.703   2.201  0.1814 -0.3233 -0.1363
 1428PEP     CB53402  15.081   4.846   2.647 -0.2832  0.3291  0.0651
 1428PEP     CB53403  14.985   4.933   3.112  0.1820  0.5460  0.4280
 1428PEP     CB53404  15.196   4.963   3.545 -0.1283  0.5476 -0.0800
 1428PEP     CB53405  15.562   4.840   3.729 -0.5052 -0.1122 -0.2490
 1428PEP     CB53406  15.998   4.681   3.802  0.2089 -0.3601 -0.1846
 1428PEP     CB53407  16.388   4.490   3.505 -0.0207 -0.2946 -0.0264
 1428PEP     CB53408  16.737   4.574   3.299 -0.0212  0.1002 -0.2123
 1428PEP     CB53409  17.060   4.816   3.247  0.2676  0.1535 -0.0517
 1428PEP     CB53410  17.125   5.133   2.956  0.2674 -0.1123  0.2568
 1428PEP     CB53411  16.814   5.274   2.647  0.6304 -0.2191 -0.1263
 1428PEP     CB53412  16.727   4.928   2.301 -0.2073 -0.4066  0.0282
 1428PEP     CB53413  17.017   4.592   2.265  0.0227  0.0536 -0.5297
 1428PEP     CB53414  17.457   4.575   2.365  0.0629  0.1052 -0.0423
 1428PEP     CB53415  17.803   4.937   2.227 -0.0001 -0.3461 -0.1090
 1428PEP     CB53416  18.163   5.382   2.169 -0.0778 -0.3085 -0.1402
 1428PEP     CB53417  18.275   5.672   2.435  0.5999 -0.3932  0.1184
 1428PEP     CB53418  18.399   5.972   2.845 -0.3760 -0.2197  0.3186
 1428PEP     CB53419  18.808   6.002   3.050 -0.0212  0.0050 -0.1588
 1428PEP     CB53420  19.213   5.781   2.990  0.1561  0.0569  0.0428
 1428PEP     CB53421  19.654   5.865   2.829  0.3192 -0.0351  0.0161
 1428PEP     CB53422  19.935   6.118   2.596  0.3435 -0.2356  0.2314
 1428PEP     CB53423  20.046   6.375   2.275  0.1376  0.1304  0.1522
 1428PEP     CB53424  20.009   6.530   1.878 -0.0776 -0.0179 -0.1208
 1428PEP     CB53425  20.001   6.458   1.443  0.0602 -0.0567 -0.0500
 1428PEP     CB53426  19.970   6.462   1.044  0.1181 -0.2103  0.1048
 1428PEP     CB53427  19.670   6.258   0.763  0.4576 -0.4090 -0.1744
 1428PEP     CB53428  19.342   6.279   0.712 -0.1247  0.1358  0.3660
 1428PEP     CB53429  19.034   6.064   0.943 -0.2226  0.1034  0.3532
 1428PEP     CB53430  19.087   5.978   1.349  0.2424 -0.0453  0.4083
 1428PEP     CB53431  18.968   6.153   1.731 -0.1203  0.1720  0.1079
 1428PEP     CB53432  18.807   6.321   2.000 -0.2806  0.2510  0.4305
 1428PEP     CB53433  18.406   6.391   2.202 -0.3197 -0.1371 -0.0559
 1428PEP     CB53434  18.124   6.064   2.118  0.1637  0.1149  0.1687
 1428PEP     CB53435  18.007   5.795   1.825  0.0867 -0.1352 -0.0244
 1428PEP     CB53436  17.901   5.639   1.443 -0.1963 -0.3643  0.0767
 1428PEP     CB53437  17.613   5.573   1.091 -0.0668  0.1987  0.1033
 1428PEP     CB53438  17.483   5.149   0.894 -0.3611  0.1489 -0.0396
 1428PEP     CB53439  17.584   4.890   0.392 -0.2540  0.1137 -0.1711
 1428PEP     CB53440  17.544   4.664   0.042  0.1826  0.0400  0.1943
 1429PEP     CB53441   7.874  17.226   6.719 -0.0948 -0.1699 -0.1248
 1429PEP     CB53442   7.686  17.085   6.360  0.0378 -0.4988 -0.2045
 1429PEP     CB53443   7.420  16.863   6.227 -0.1381  0.0015 -0.0650
 1429PEP     CB53444   7.150  16.537   6.271  0.0783  0.2109  0.1158
 1429PEP     CB53445   6.961  16.205   6.530  0.0670  0.4314 -0.0653
 1429PEP     CB53446   6.939  16.040   6.925  0.3649  0.1729  0.3913
 1429PEP     CB53447   7.136  15.732   7.241  0.2363  0.6222 -0.0720
 1429PEP     CB53448   7.166  15.306   7.440 -0.1720 -0.2211 -0.1362
 1429PEP     CB53449   7.283  14.897   7.478 -0.1271 -0.1304  0.3253
 1429PEP     CB53450   7.133  14.658   7.183 -0.1854 -0.1928 -0.3041
 1429PEP     CB53451   6.865  14.750   6.878  0.3273 -0.1095  0.1544
 1429PEP     CB53452   6.501  14.602   6.738  0.0701 -0.0227  0.3011
 1429PEP     CB53453   6.085  14.700   6.565  0.0343 -0.0582  0.2923
 1429PEP     CB53454   5.675  14.583   6.488 -0.2338  0.0067 -0.0960
 1429PEP     CB53455   5.402  14.267   6.530 -0.1088  0.2288 -0.1188
 1429PEP     CB53456   5.359  13.886   6.713 -0.2570 -0.2993 -0.3599
 1429PEP     CB53457   5.592  13.582   6.573 -0.2658 -0.0226  0.2101
 1429PEP     CB53458   5.767  13.474   6.046  0.1708  0.3207  0.3245
 1429PEP     CB53459   5.685  13.661   5.621  0.1179 -0.1943  0.1554
 1429PEP     CB53460   5.498  13.631   5.249 -0.3780 -0.1734 -0.0730
 1429PEP     CB53461   5.611  13.252   4.858  0.2871  0.0678  0.1935
 1429PEP     CB53462   5.571  12.804   4.999 -0.0017 -0.0782  0.0802
 1429PEP     CB53463   5.183  12.637   5.098 -0.3717 -0.4880 -0.0648
 1429PEP     CB53464   4.776  12.842   5.108 -0.2407 -0.2596 -0.1341
 1429PEP     CB53465   4.502  13.220   5.281  0.4307  0.2572 -0.2204
 1429PEP     CB53466   4.116  13.450   5.280 -0.3102 -0.3890  0.1532
 1429PEP     CB53467   3.737  13.522   5.126 -0.0882 -0.1053 -0.2342
 1429PEP     CB53468   3.408  13.476   4.919  0.0670  0.1532 -0.0936
 1429PEP     CB53469   3.245  13.541   4.503  0.0698 -0.0674 -0.1570
 1429PEP     CB53470   3.229  13.709   4.052 -0.2406 -0.2058 -0.0682
 1429PEP     CB53471   3.097  13.661   3.630 -0.1149  0.1989  0.1563
 1429PEP     CB53472   2.733  13.683   3.427  0.0919 -0.0888  0.2378
 1429PEP     CB53473   2.363  13.361   3.411 -0.5527 -0.3820 -0.1401
 1429PEP     CB53474   2.039  13.037   3.203 -0.0953  0.3332 -0.3379
 1429PEP     CB53475   1.652  12.819   3.201  0.0593  0.0531  0.3172
 1429PEP     CB53476   1.589  12.376   2.991 -0.0078 -0.1807  0.2319
 1429PEP     CB53477   1.654  11.992   2.956  0.1973 -0.2538 -0.1488
 1429PEP     CB53478   1.844  11.531   2.828 -0.2031  0.1822 -0.0478
 1429PEP     CB53479   2.245  11.315   2.848  0.1698  0.1344 -0.1656
 1429PEP     CB53480   2.711  11.313   2.912 -0.1988 -0.4549 -0.1756
 1430PEP     CB53481  11.328   1.996  10.294 -0.2757 -0.1581  0.1719
 1430PEP     CB53482  11.187   2.079   9.826 -0.2760 -0.0790  0.2885
 1430PEP     CB53483  11.095   2.352   9.488 -0.1496  0.3184 -0.2043
 1430PEP     CB53484  10.798   2.480   9.210  0.1257 -0.0921 -0.0823
 1430PEP     CB53485  10.570   2.336   8.861 -0.1155  0.1809 -0.1998
 1430PEP     CB53486  10.663   2.173   8.321  0.1213  0.2078  0.1805
 1430PEP     CB53487  10.924   2.223   7.989  0.3554  0.2439 -0.2091
 1430PEP     CB53488  11.100   1.972   7.645 -0.4396  0.2316 -0.3947
 1430PEP     CB53489  11.329   2.079   7.189 -0.2336 -0.1220 -0.1831
 1430PEP     CB53490  11.694   2.292   7.023 -0.2492  0.1638 -0.0753
 1430PEP     CB53491  11.856   2.682   7.135  0.2053  0.1003  0.1214
 1430PEP     CB53492  11.882   3.057   7.237  0.2032  0.2437  0.2036
 1430PEP     CB53493  11.773   3.416   7.006 -0.0786 -0.0538  0.2173
 1430PEP     CB53494  12.022   3.758   6.826 -0.0886  0.1588  0.0123
 1430PEP     CB53495  12.439   3.658   6.664 -0.1290 -0.1565  0.0208
 1430PEP     CB53496  12.785   3.325   6.411 -0.0126 -0.2392  0.3169
 1430PEP     CB53497  13.039   3.287   6.063 -0.0784  0.1206  0.2376
 1430PEP     CB53498  13.322   3.161   5.764  0.2718  0.0445  0.0087
 1430PEP     CB53499  13.314   2.955   5.443 -0.0475  0.2857 -0.2713
 1430PEP     CB53500  12.971   2.901   5.144  0.0210  0.1415  0.3624
 1430PEP     CB53501  12.772   3.229   5.016 -0.1422  0.1703  0.1245
 1430PEP     CB53502  12.930   3.738   5.045 -0.4323 -0.2287  0.4856
 1430PEP     CB53503  13.348   3.973   5.088 -0.4070  0.2211  0.6066
 1430PEP     CB53504  13.644   4.063   5.294  0.1361 -0.1949 -0.1247
 1430PEP     CB53505  13.857   4.313   5.613 -0.2419  0.0120 -0.3478
 1430PEP     CB53506  14.119   4.655   5.818 -0.2556 -0.0728  0.1786
 1430PEP     CB53507  14.263   5.002   6.033  0.0035  0.1210 -0.1005
 1430PEP     CB53508  14.317   5.229   6.414 -0.1373  0.0160 -0.0986
 1430PEP     CB53509  14.234   5.250   6.779 -0.1365  0.2815 -0.1536
 1430PEP     CB53510  14.146   5.009   7.143 -0.1060  0.0428  0.2759
 1430PEP     CB53511  13.919   4.895   7.554  0.0159 -0.1613 -0.1683
 1430PEP     CB53512  14.028   4.728   7.972  0.1468 -0.1563 -0.1056
 1430PEP     CB53513  13.966   4.545   8.420  0.0569 -0.4049 -0.0233
 1430PEP     CB53514  14.306   4.382   8.707  0.2093 -0.0555 -0.0236
 1430PEP     CB53515  14.649   4.052   8.842  0.0557  0.0732  0.2493
 1430PEP     CB53516  14.752   3.669   8.720  0.1251 -0.2557  0.1786
 1430PEP     CB53517  14.761   3.214   8.600  0.2291  0.1624  0.2151
 1430PEP     CB53518  14.508   2.904   8.794 -0.5523 -0.1121  0.3778
 1430PEP     CB53519  14.050   2.977   8.965  0.1362 -0.5961 -0.0255
 1430PEP     CB53520  14.015   3.423   9.187  0.4136  0.1644 -0.2865
 1431PEP     CB53521   5.473  11.474  17.739  0.2076 -0.3794  0.1653
 1431PEP     CB53522   5.569  11.735  17.396 -0.2224  0.0377  0.0326
 1431PEP     CB53523   5.570  11.669  16.972  0.2629 -0.3284 -0.0056
 1431PEP     CB53524   5.386  11.805  16.662 -0.1289  0.1903  0.0241
 1431PEP     CB53525   5.299  11.951  16.194 -0.2001  0.2622  0.1931
 1431PEP     CB53526   5.256  12.367  15.822 -0.0185  0.1393  0.1237
 1431PEP     CB53527   5.600  12.670  15.788  0.0373 -0.0491 -0.0166
 1431PEP     CB53528   5.912  12.653  16.166  0.3003  0.1781 -0.0270
 1431PEP     CB53529   6.171  12.286  16.445  0.2158 -0.0138 -0.2231
 1431PEP     CB53530   6.171  11.890  16.728 -0.1225 -0.3206 -0.0055
 1431PEP     CB53531   6.205  11.561  17.000  0.0498  0.2030  0.0902
 1431PEP     CB53532   6.039  11.092  16.950 -0.3574  0.0558  0.0320
 1431PEP     CB53533   6.093  10.646  16.844 -0.2180  0.1055 -0.2037
 1431PEP     CB53534   5.827  10.353  16.492  0.0658 -0.1943  0.1835
 1431PEP     CB53535   5.521  10.449  16.166 -0.0817 -0.3320  0.3422
 1431PEP     CB53536   5.247  10.864  16.172 -0.0488 -0.0993 -0.2844
 1431PEP     CB53537   5.074  11.084  16.410  0.0291  0.1035  0.3558
 1431PEP     CB53538   4.994  11.482  16.640  0.0358  0.3818 -0.2471
 1431PEP     CB53539   5.041  11.642  17.143 -0.5220 -0.0541  0.1938
 1431PEP     CB53540   5.065  11.767  17.502  0.2191  0.2220 -0.2734
 1431PEP     CB53541   5.082  11.809  17.887  0.2558 -0.3177 -0.0165
 1431PEP     CB53542   5.039  11.784  18.357 -0.0418 -0.0687 -0.1890
 1431PEP     CB53543   5.152  11.421  18.586  0.2988 -0.0306 -0.1658
 1431PEP     CB53544   5.507  11.245  18.727  0.1894  0.1580  0.0922
 1431PEP     CB53545   5.905  11.486  18.690  0.0439 -0.2489  0.0552
 1431PEP     CB53546   5.943  11.854  18.536 -0.2006 -0.1995  0.2249
 1431PEP     CB53547   6.212  12.246  18.522 -0.1112  0.0025  0.0693
 1431PEP     CB53548   6.570  12.406  18.680 -0.0044  0.1486  0.3653
 1431PEP     CB53549   6.731  12.604  19.036 -0.1194  0.1967 -0.3949
 1431PEP     CB53550   7.042  12.849  19.228  0.0667 -0.1630 -0.3316
 1431PEP     CB53551   7.268  13.221  19.357  0.1250 -0.0906 -0.2288
 1431PEP     CB53552   7.577  13.452  19.419 -0.1989 -0.3402  0.3959
 1431PEP     CB53553   7.892  13.532  19.584 -0.2260  0.5310  0.1042
 1431PEP     CB53554   7.969  13.715  19.963 -0.4116  0.1429  0.1907
 1431PEP     CB53555   7.813  13.934  20.219 -0.4315  0.2126 -0.2846
 1431PEP     CB53556   7.919  14.344  20.335 -0.2105 -0.2126 -0.5301
 1431PEP     CB53557   8.116  14.706  20.022  0.2165  0.1507  0.0792
 1431PEP     CB53558   8.135  15.148  19.773  0.0728 -0.3853 -0.0599
 1431PEP     CB53559   8.431  15.462  19.761  0.2779  0.0166 -0.0455
 1431PEP     CB53560   8.674  15.626  19.991 -0.2752  0.1613 -0.2236
 1432PEP     CB53561   5.740  11.098   7.083  0.0794  0.1241 -0.1470
 1432PEP     CB53562   5.359  11.232   7.216  0.4604 -0.3986  0.0786
 1432PEP     CB53563   4.959  11.491   7.335 -0.0926  0.4038 -0.5205
 1432PEP     CB53564   4.807  11.965   7.169  0.1903 -0.1122  0.0186
 1432PEP     CB53565   4.936  12.416   7.086  0.3177  0.3516  0.3313
 1432PEP     CB53566   5.195  12.766   7.163 -0.2997  0.2593 -0.0485
 1432PEP     CB53567   5.532  12.787   7.313 -0.0407 -0.1168 -0.0743
 1432PEP     CB53568   5.851  12.431   7.280  0.1076  0.0158 -0.0973
 1432PEP     CB53569   5.806  12.045   6.965 -0.1263 -0.5073  0.0589
 1432PEP     CB53570   5.855  11.793   6.530  0.1858  0.0264 -0.1060
 1432PEP     CB53571   5.941  11.829   6.124 -0.0129 -0.2103  0.2294
 1432PEP     CB53572   5.949  11.956   5.655  0.1724 -0.1991  0.4221
 1432PEP     CB53573   6.089  11.828   5.230  0.4427  0.0847 -0.2070
 1432PEP     CB53574   5.986  11.614   4.855 -0.1784 -0.0655  0.2152
 1432PEP     CB53575   5.591  11.478   4.653 -0.0188  0.1822  0.1017
 1432PEP     CB53576   5.196  11.365   4.837  0.1603 -0.1650  0.0564
 1432PEP     CB53577   5.293  11.205   5.101  0.2344 -0.0356 -0.0140
 1432PEP     CB53578   5.740  11.027   5.117 -0.3447 -0.4474 -0.2216
 1432PEP     CB53579   6.080  11.235   5.259 -0.0213  0.0247  0.1835
 1432PEP     CB53580   6.393  11.043   5.532  0.1584 -0.0032  0.2604
 1432PEP     CB53581   6.273  11.051   6.005  0.0554  0.2138  0.1662
 1432PEP     CB53582   5.962  10.828   6.267  0.0057  0.0728  0.2863
 1432PEP     CB53583   5.617  10.832   6.564  0.3400 -0.2130 -0.3552
 1432PEP     CB53584   5.356  10.744   6.897 -0.4213  0.1211 -0.1478
 1432PEP     CB53585   4.944  10.893   7.176  0.4265 -0.0713 -0.3545
 1432PEP     CB53586   4.615  11.152   7.389 -0.2156  0.3215  0.5694
 1432PEP     CB53587   4.499  11.463   7.732  0.3063  0.1183 -0.1404
 1432PEP     CB53588   4.794  11.751   7.891 -0.1317 -0.0778  0.2268
 1432PEP     CB53589   5.090  11.982   7.581  0.1908  0.1075 -0.3134
 1432PEP     CB53590   5.275  11.866   7.210  0.0647  0.0708  0.0104
 1432PEP     CB53591   5.302  12.142   6.837 -0.0133 -0.0502 -0.0375
 1432PEP     CB53592   4.895  12.243   6.646 -0.0327  0.0193  0.2304
 1432PEP     CB53593   4.560  11.971   6.711 -0.1383  0.1230 -0.2697
 1432PEP     CB53594   4.376  11.709   6.990  0.1830 -0.2994 -0.3511
 1432PEP     CB53595   4.172  11.329   7.193 -0.0332  0.2197  0.0102
 1432PEP     CB53596   4.142  11.123   7.530 -0.1753  0.4622  0.1408
 1432PEP     CB53597   4.121  10.976   7.955  0.1889  0.0779 -0.0472
 1432PEP     CB53598   4.190  10.803   8.319  0.6217  0.1602  0.2333
 1432PEP     CB53599   4.119  11.020   8.708  0.0461 -0.0683  0.1004
 1432PEP     CB53600   4.042  11.447   8.850  0.2865  0.4498 -0.1370
 1433PEP     CB53601   9.502  16.809  13.528 -0.3248  0.0523 -0.4032
 1433PEP     CB53602   9.209  17.006  13.829 -0.1366  0.1067 -0.1483
 1433PEP     CB53603   9.269  17.413  14.076  0.4605  0.1099  0.3242
 1433PEP     CB53604   9.501  17.652  13.920 -0.2717 -0.0493  0.1399
 1433PEP     CB53605   9.868  17.680  13.655  0.0001 -0.0042 -0.0502
 1433PEP     CB53606   9.906  17.857  13.254  0.0815  0.3590  0.0025
 1433PEP     CB53607   9.847  18.175  13.091 -0.1859  0.0791 -0.1084
 1433PEP     CB53608   9.730  18.550  12.992  0.2991 -0.2602 -0.0270
 1433PEP     CB53609   9.422  18.766  12.701 -0.6232  0.1991  0.1413
 1433PEP     CB53610   9.057  18.580  12.572  0.0740 -0.0612  0.1200
 1433PEP     CB53611   8.955  18.208  12.724 -0.0260 -0.1128 -0.0377
 1433PEP     CB53612   9.342  17.943  12.922  0.1117 -0.0877 -0.2194
 1433PEP     CB53613   9.406  17.847  13.304 -0.3560 -0.0518 -0.1055
 1433PEP     CB53614   9.168  17.877  13.675  0.1595  0.2437 -0.4374
 1433PEP     CB53615   8.717  17.898  13.621 -0.1732  0.1553  0.2439
 1433PEP     CB53616   8.341  17.640  13.562 -0.0343 -0.0826  0.1460
 1433PEP     CB53617   8.078  17.278  13.746  0.2053 -0.0434  0.0868
 1433PEP     CB53618   7.807  16.899  13.775  0.1632  0.2100  0.1850
 1433PEP     CB53619   7.487  16.757  13.616  0.1988  0.1658 -0.4264
 1433PEP     CB53620   7.241  16.544  13.330 -0.0704  0.1378  0.1048
 1433PEP     CB53621   7.018  16.778  12.930  0.3529 -0.2272 -0.4132
 1433PEP     CB53622   6.804  17.135  12.829 -0.2752  0.1888  0.2250
 1433PEP     CB53623   6.769  17.542  13.112 -0.3396 -0.0052 -0.0432
 1433PEP     CB53624   6.635  17.360  13.543  0.0232  0.3436  0.0391
 1433PEP     CB53625   6.568  16.937  13.621  0.1132 -0.3789  0.0407
 1433PEP     CB53626   6.458  16.579  13.330  0.0766  0.0986 -0.1016
 1433PEP     CB53627   6.531  16.546  12.929  0.0766 -0.0933 -0.0651
 1433PEP     CB53628   6.804  16.395  12.692  0.0979  0.3283 -0.0342
 1433PEP     CB53629   7.169  16.559  12.509  0.0566 -0.1798  0.1537
 1433PEP     CB53630   7.227  16.990  12.431  0.0098 -0.3045 -0.2441
 1433PEP     CB53631   7.075  17.470  12.575 -0.0918  0.0770  0.0996
 1433PEP     CB53632   6.667  17.518  12.550 -0.1365 -0.2097  0.4648
 1433PEP     CB53633   6.382  17.519  12.091  0.1045  0.2387 -0.0748
 1433PEP     CB53634   6.266  17.510  11.647 -0.2834 -0.2462  0.2748
 1433PEP     CB53635   6.474  17.659  11.273 -0.1182 -0.0855  0.1780
 1433PEP     CB53636   6.586  17.891  10.823 -0.3843  0.1081 -0.1415
 1433PEP     CB53637   6.738  18.167  10.668 -0.0408 -0.2322 -0.0750
 1433PEP     CB53638   6.847  18.468  10.908 -0.1344  0.0231 -0.0997
 1433PEP     CB53639   6.992  18.520  11.300 -0.0674 -0.1305  0.3803
 1433PEP     CB53640   7.157  18.774  11.624 -0.1610  0.1820  0.7037
 1434PEP     CB53641  21.056  12.331   6.351  0.1081  0.0299 -0.2448
 1434PEP     CB53642  21.146  11.900   6.190  0.1452  0.1170  0.2180
 1434PEP     CB53643  21.348  11.771   5.717  0.0026  0.1089 -0.0467
 1434PEP     CB53644  21.286  11.475   5.412  0.0942 -0.3129 -0.4316
 1434PEP     CB53645  21.310  11.074   5.102 -0.0591  0.1805 -0.3716
 1434PEP     CB53646  21.099  10.735   4.898 -0.0618  0.1586  0.1764
 1434PEP     CB53647  20.787  10.718   4.637 -0.2938 -0.0875 -0.1872
 1434PEP     CB53648  20.335  10.984   4.684  0.0652 -0.0186 -0.1101
 1434PEP     CB53649  20.034  11.051   4.992 -0.1080 -0.2435 -0.0435
 1434PEP     CB53650  19.557  11.213   4.955 -0.2889  0.0191  0.2700
 1434PEP     CB53651  19.148  11.097   4.754 -0.0472  0.3962 -0.2484
 1434PEP     CB53652  18.752  10.853   4.784  0.2210 -0.0974  0.1056
 1434PEP     CB53653  18.382  10.625   4.961  0.0078 -0.2319  0.1472
 1434PEP     CB53654  17.948  10.618   5.171  0.0191  0.0297  0.1631
 1434PEP     CB53655  17.736  10.734   5.560 -0.0900 -0.1833 -0.6055
 1434PEP     CB53656  17.631  10.897   5.921 -0.2466  0.1476  0.2585
 1434PEP     CB53657  17.264  10.904   6.288 -0.0846  0.0707 -0.0224
 1434PEP     CB53658  17.161  11.059   6.672  0.1414 -0.1914 -0.0540
 1434PEP     CB53659  17.324  11.117   7.066  0.0665 -0.0662  0.0466
 1434PEP     CB53660  17.561  11.375   7.417 -0.0571  0.1057 -0.3005
 1434PEP     CB53661  18.030  11.411   7.549 -0.3249 -0.2309  0.2513
 1434PEP     CB53662  18.398  11.151   7.507 -0.0216  0.2712 -0.0771
 1434PEP     CB53663  18.720  10.987   7.853 -0.1471  0.0550 -0.0888
 1434PEP     CB53664  18.816  11.001   8.286 -0.2029  0.1010  0.3870
 1434PEP     CB53665  18.904  10.940   8.723 -0.2165 -0.3049 -0.1635
 1434PEP     CB53666  19.167  11.099   9.031 -0.1664  0.0454 -0.1509
 1434PEP     CB53667  19.447  11.347   9.356  0.1074 -0.1741  0.0400
 1434PEP     CB53668  19.866  11.460   9.579 -0.3905  0.4658  0.0369
 1434PEP     CB53669  20.258  11.576   9.505 -0.4592  0.0470 -0.0701
 1434PEP     CB53670  20.479  11.897   9.300 -0.1381  0.0458 -0.0650
 1434PEP     CB53671  20.611  12.358   9.214  0.2225  0.2006 -0.2114
 1434PEP     CB53672  20.652  12.706   9.418  0.1600 -0.0737  0.4701
 1434PEP     CB53673  20.872  12.934   9.616  0.0696  0.2571  0.1877
 1434PEP     CB53674  21.008  13.184  10.072  0.2091  0.1551 -0.1862
 1434PEP     CB53675  20.851  13.461  10.341  0.1800  0.5265  0.1009
 1434PEP     CB53676  20.748  13.873  10.389  0.0591  0.4204  0.4000
 1434PEP     CB53677  20.846  14.330  10.431  0.0944  0.1252  0.3241
 1434PEP     CB53678  21.010  14.736  10.586  0.1878 -0.3390 -0.1219
 1434PEP     CB53679  21.259  15.014  10.461  0.0285  0.1261  0.0411
 1434PEP     CB53680  21.056  15.164  10.054  0.3842 -0.0565 -0.0175
 1435PEP     CB53681   7.318  16.100  13.120 -0.0560 -0.2522 -0.2745
 1435PEP     CB53682   7.506  16.428  12.900  0.0537  0.0433 -0.1722
 1435PEP     CB53683   7.522  16.845  13.030  0.2980 -0.1260 -0.0151
 1435PEP     CB53684   7.301  17.169  13.149  0.3126 -0.0616 -0.0655
 1435PEP     CB53685   7.238  17.677  13.229  0.0719  0.0641  0.0838
 1435PEP     CB53686   6.974  17.994  13.079  0.1796 -0.1809 -0.2291
 1435PEP     CB53687   6.595  18.263  13.200 -0.2205  0.1388  0.1969
 1435PEP     CB53688   6.426  18.358  13.566  0.3761 -0.0378 -0.2014
 1435PEP     CB53689   6.218  18.128  13.926 -0.1667  0.3090 -0.2459
 1435PEP     CB53690   5.973  17.729  13.913 -0.5937  0.0525 -0.1882
 1435PEP     CB53691   5.726  17.614  13.457 -0.1976  0.2618  0.2218
 1435PEP     CB53692   5.902  17.552  13.031  0.0146 -0.0093 -0.1092
 1435PEP     CB53693   5.822  17.355  12.607 -0.1257  0.0370  0.2447
 1435PEP     CB53694   5.529  17.029  12.489 -0.1313  0.0530  0.1930
 1435PEP     CB53695   5.520  16.540  12.356  0.0330 -0.0561 -0.1167
 1435PEP     CB53696   5.832  16.147  12.230 -0.0348  0.2016 -0.1560
 1435PEP     CB53697   6.253  16.057  12.420 -0.1440  0.3813 -0.1921
 1435PEP     CB53698   6.509  16.011  12.781  0.2304  0.1652 -0.1397
 1435PEP     CB53699   6.738  16.018  13.117 -0.0301 -0.2925  0.2887
 1435PEP     CB53700   6.908  16.187  13.516 -0.0121 -0.5778  0.0933
 1435PEP     CB53701   7.007  16.086  13.951 -0.1633  0.0582  0.0993
 1435PEP     CB53702   7.015  16.140  14.413  0.0178 -0.2460  0.1134
 1435PEP     CB53703   7.132  16.018  14.718  0.1300  0.1829 -0.0978
 1435PEP     CB53704   7.314  16.117  15.051 -0.2563  0.2546  0.1575
 1435PEP     CB53705   7.645  16.300  15.055  0.0381  0.1327  0.1803
 1435PEP     CB53706   8.081  16.518  14.885 -0.0647  0.2659  0.2656
 1435PEP     CB53707   8.406  16.894  14.805  0.3749 -0.0793  0.2283
 1435PEP     CB53708   8.467  17.027  14.412  0.1853  0.0155  0.2910
 1435PEP     CB53709   8.295  16.911  14.077  0.3729 -0.1652  0.0613
 1435PEP     CB53710   8.063  16.481  13.965  0.0077 -0.0360  0.2090
 1435PEP     CB53711   7.769  16.340  13.798 -0.0634 -0.0493 -0.2219
 1435PEP     CB53712   7.400  16.092  13.665 -0.2417  0.0710 -0.0133
 1435PEP     CB53713   7.330  15.663  13.691  0.1208  0.2055 -0.0560
 1435PEP     CB53714   7.285  15.288  14.081  0.3672 -0.0333 -0.0488
 1435PEP     CB53715   7.299  15.131  14.513 -0.4142 -0.0034 -0.0463
 1435PEP     CB53716   7.493  14.887  14.766  0.1514 -0.0867  0.1092
 1435PEP     CB53717   7.333  14.443  14.921 -0.0765 -0.1308  0.4223
 1435PEP     CB53718   7.055  14.189  14.745 -0.0144  0.1373 -0.0883
 1435PEP     CB53719   6.946  13.960  14.411  0.0294 -0.0374  0.3353
 1435PEP     CB53720   6.890  13.992  13.985 -0.0083  0.1059 -0.0042
 1436PEP     CB53721  18.522  18.248   9.610  0.3836  0.2638 -0.0989
 1436PEP     CB53722  18.284  18.472   9.352 -0.0831 -0.0215  0.3248
 1436PEP     CB53723  18.233  18.806   9.080  0.2270 -0.0580 -0.5769
 1436PEP     CB53724  18.504  19.013   9.040 -0.2864 -0.2925 -0.2192
 1436PEP     CB53725  18.958  18.988   8.972 -0.1023 -0.2104  0.1646
 1436PEP     CB53726  19.113  18.601   8.843  0.1736 -0.5517  0.3340
 1436PEP     CB53727  18.948  18.181   8.835 -0.2811  0.2331  0.1877
 1436PEP     CB53728  18.862  17.784   8.703 -0.2298  0.2147 -0.3357
 1436PEP     CB53729  18.880  17.368   8.584  0.2851  0.2060  0.0821
 1436PEP     CB53730  18.770  16.954   8.507 -0.1392 -0.0099 -0.0962
 1436PEP     CB53731  18.954  16.570   8.450  0.0525 -0.5231 -0.3031
 1436PEP     CB53732  19.125  16.290   8.744 -0.2725  0.1294  0.1193
 1436PEP     CB53733  19.042  16.132   9.134  0.1014 -0.0421 -0.3312
 1436PEP     CB53734  19.255  15.941   9.415 -0.0976 -0.1184 -0.0953
 1436PEP     CB53735  19.229  15.650   9.773  0.0953 -0.2220 -0.2780
 1436PEP     CB53736  18.908  15.483   9.975  0.0063  0.0497  0.0900
 1436PEP     CB53737  18.470  15.488   9.883  0.1994  0.1297  0.2111
 1436PEP     CB53738  18.053  15.548   9.741  0.3005 -0.0804  0.3684
 1436PEP     CB53739  17.651  15.574   9.955 -0.1535  0.0994 -0.1101
 1436PEP     CB53740  17.539  15.678  10.354 -0.1168 -0.1700  0.3341
 1436PEP     CB53741  17.403  15.793  10.691  0.0399 -0.2157 -0.2483
 1436PEP     CB53742  17.257  15.522  11.106  0.2358  0.1911  0.2629
 1436PEP     CB53743  16.926  15.475  11.250 -0.0001 -0.1157 -0.1221
 1436PEP     CB53744  16.495  15.528  11.352  0.1194  0.0414  0.0003
 1436PEP     CB53745  16.190  15.705  11.551  0.4013  0.1455 -0.0111
 1436PEP     CB53746  16.120  15.804  11.922  0.3409  0.0325  0.2297
 1436PEP     CB53747  15.812  15.815  12.231 -0.0847 -0.1758  0.2614
 1436PEP     CB53748  15.632  16.197  12.315  0.1037  0.0520 -0.0719
 1436PEP     CB53749  15.676  16.688  12.225  0.1070  0.0699  0.4917
 1436PEP     CB53750  15.474  17.070  12.250 -0.0049  0.0084 -0.0859
 1436PEP     CB53751  15.159  17.290  12.184  0.0062  0.2201 -0.1366
 1436PEP     CB53752  14.906  17.615  12.001  0.1860  0.1784 -0.1870
 1436PEP     CB53753  14.535  17.884  12.087 -0.0973 -0.1040  0.0946
 1436PEP     CB53754  14.146  18.062  12.032 -0.1283 -0.5680 -0.0791
 1436PEP     CB53755  13.723  18.205  11.978 -0.1504 -0.1198 -0.0113
 1436PEP     CB53756  13.470  18.562  11.938  0.0290  0.1150  0.3033
 1436PEP     CB53757  13.010  18.712  11.761 -0.0695  0.3526  0.4100
 1436PEP     CB53758  12.801  19.036  11.677  0.0036 -0.2103 -0.0341
 1436PEP     CB53759  12.597  19.521  11.694  0.3570 -0.0661 -0.3058
 1436PEP     CB53760  12.504  19.914  11.980 -0.0065 -0.0750  0.0422
 1437PEP     CB53761  21.175  21.590   9.899 -0.4283 -0.0379  0.0107
 1437PEP     CB53762  21.611  21.567  10.092  0.1671 -0.1941  0.4578
 1437PEP     CB53763  21.941  21.259  10.158 -0.6245 -0.0658  0.1829
 1437PEP     CB53764  21.988  20.795  10.025 -0.0988  0.2508 -0.1477
 1437PEP     CB53765  22.162  20.499   9.708  0.0766 -0.1359 -0.3051
 1437PEP     CB53766  22.063  20.199   9.356  0.2161 -0.0521  0.0346
 1437PEP     CB53767  21.722  19.901   9.289  0.0923 -0.4718  0.0878
 1437PEP     CB53768  21.491  19.606   9.012  0.2936  0.0320 -0.0125
 1437PEP     CB53769  21.695  19.377   8.704 -0.2584 -0.0661  0.1774
 1437PEP     CB53770  22.095  19.553   8.474  0.1962  0.1176 -0.1831
 1437PEP     CB53771  22.510  19.816   8.623 -0.3503 -0.0840  0.0442
 1437PEP     CB53772  22.682  20.096   8.836  0.0954  0.5279  0.0575
 1437PEP     CB53773  22.584  20.438   9.128  0.2276  0.1497 -0.0969
 1437PEP     CB53774  22.270  20.713   9.231 -0.2941 -0.1495  0.0947
 1437PEP     CB53775  21.905  20.982   9.534 -0.1111 -0.1002 -0.2346
 1437PEP     CB53776  21.542  21.290   9.612 -0.8216 -0.2638  0.2941
 1437PEP     CB53777  21.558  21.675   9.577 -0.0347 -0.2920 -0.2259
 1437PEP     CB53778  21.897  21.910   9.270 -0.0109  0.2147 -0.0229
 1437PEP     CB53779  21.962  22.111   8.910  0.0214 -0.1018 -0.1911
 1437PEP     CB53780  21.864  22.535   8.807  0.3760  0.1446  0.3587
 1437PEP     CB53781  22.010  22.857   8.855  0.3654  0.3705  0.1377
 1437PEP     CB53782  22.409  22.993   8.828  0.2234  0.2479  0.2489
 1437PEP     CB53783  22.703  22.934   8.497  0.3525  0.4463 -0.2359
 1437PEP     CB53784  22.811  22.590   8.274 -0.2559 -0.0054 -0.3037
 1437PEP     CB53785  22.907  22.107   8.311  0.1498  0.1074  0.2845
 1437PEP     CB53786  23.146  21.886   8.641  0.0389  0.4327  0.0663
 1437PEP     CB53787  23.165  22.088   9.089  0.1016  0.1790 -0.2785
 1437PEP     CB53788  23.238  22.481   9.168  0.6056  0.7521  0.1196
 1437PEP     CB53789  23.145  22.873   9.365 -0.3913  0.4414 -0.0671
 1437PEP     CB53790  23.002  23.124   9.660  0.1532  0.0157 -0.0443
 1437PEP     CB53791  22.738  23.344   9.962 -0.0274  0.2804  0.1400
 1437PEP     CB53792  22.371  23.606  10.100 -0.0159 -0.1630 -0.0678
 1437PEP     CB53793  22.002  23.697  10.266 -0.0908  0.0091 -0.0669
 1437PEP     CB53794  21.727  23.712  10.610  0.0625  0.1538  0.1793
 1437PEP     CB53795  21.397  23.453  10.800 -0.2613  0.1120 -0.0381
 1437PEP     CB53796  21.136  23.243  11.091 -0.2477  0.2230  0.1594
 1437PEP     CB53797  21.091  22.788  11.319 -0.0471  0.5085 -0.2364
 1437PEP     CB53798  20.847  22.553  11.566  0.4796 -0.0398  0.1368
 1437PEP     CB53799  20.786  22.506  12.010 -0.0340 -0.1839  0.2786
 1437PEP     CB53800  20.775  22.452  12.430 -0.2114  0.2194  0.0312
 1438PEP     CB53801  13.395  21.382  16.410 -0.0245  0.1523 -0.3502
 1438PEP     CB53802  13.756  21.229  16.244  0.2563  0.2756 -0.2228
 1438PEP     CB53803  14.047  21.385  15.919  0.1317  0.1074 -0.0885
 1438PEP     CB53804  14.009  21.740  15.677 -0.1218  0.1523 -0.5102
 1438PEP     CB53805  14.162  22.181  15.699  0.1421  0.0259  0.1389
 1438PEP     CB53806  14.050  22.525  15.899  0.0026  0.0724  0.0509
 1438PEP     CB53807  13.825  22.835  16.093  0.1111  0.0148 -0.2877
 1438PEP     CB53808  13.521  23.157  15.981 -0.2669  0.0842 -0.1630
 1438PEP     CB53809  13.136  23.430  15.905  0.0662  0.2820  0.0942
 1438PEP     CB53810  12.858  23.562  15.481  0.1702 -0.1167  0.6014
 1438PEP     CB53811  13.026  23.646  15.133 -0.0488 -0.1204 -0.2692
 1438PEP     CB53812  13.083  23.471  14.658  0.5842  0.2182  0.1650
 1438PEP     CB53813  12.959  23.277  14.242  0.2068 -0.2450 -0.3545
 1438PEP     CB53814  12.598  23.115  14.029  0.0614 -0.1239 -0.3101
 1438PEP     CB53815  12.392  23.184  13.704 -0.3397  0.0856  0.4050
 1438PEP     CB53816  12.201  23.526  13.389 -0.1990  0.0098  0.1990
 1438PEP     CB53817  11.958  23.754  13.129 -0.0695  0.2618  0.0326
 1438PEP     CB53818  11.703  23.952  12.756 -0.0308  0.3205  0.1341
 1438PEP     CB53819  11.601  24.164  12.348 -0.0317  0.3222  0.0362
 1438PEP     CB53820  11.628  24.329  11.898 -0.0371  0.0096 -0.0031
 1438PEP     CB53821  11.681  24.112  11.496 -0.0425 -0.0304 -0.2602
 1438PEP     CB53822  11.653  23.797  11.014  0.0558  0.1849 -0.1689
 1438PEP     CB53823  11.278  23.646  10.847 -0.1269 -0.0464  0.1142
 1438PEP     CB53824  10.962  23.879  10.768  0.2224  0.1142 -0.0000
 1438PEP     CB53825  10.906  24.378  10.973  0.4256 -0.0429 -0.0636
 1438PEP     CB53826  10.967  24.593  11.342 -0.3985  0.1105  0.2291
 1438PEP     CB53827  11.096  24.474  11.715  0.1801 -0.2163 -0.3056
 1438PEP     CB53828  11.138  24.539  12.128  0.1301  0.0262 -0.2481
 1438PEP     CB53829  11.159  24.805  12.489 -0.0663  0.0447  0.3549
 1438PEP     CB53830  11.183  25.208  12.619  0.3411 -0.2146  0.6708
 1438PEP     CB53831  11.201  25.422  12.871  0.0444  0.0964 -0.3831
 1438PEP     CB53832  11.004  25.546  13.277 -0.1135  0.1635  0.5429
 1438PEP     CB53833  11.128  25.611  13.673 -0.0604 -0.4826 -0.0580
 1438PEP     CB53834  11.235  25.884  14.051 -0.3483 -0.0975  0.1472
 1438PEP     CB53835  11.220  26.073  14.448  0.1827 -0.1230  0.1533
 1438PEP     CB53836  11.316  26.114  14.894  0.4667  0.0611 -0.2420
 1438PEP     CB53837  11.470  26.090  15.204  0.2741  0.1364  0.0021
 1438PEP     CB53838  11.368  26.147  15.623 -0.2579  0.0387  0.1970
 1438PEP     CB53839  11.424  25.913  15.944 -0.3077 -0.3290 -0.0091
 1438PEP     CB53840  11.744  25.668  16.203  0.0770  0.1132 -0.1141
 1439PEP     CB53841  15.790  13.842  20.989 -0.4969 -0.4285  0.5074
 1439PEP     CB53842  15.943  13.550  21.185 -0.2098  0.3913  0.3864
 1439PEP     CB53843  16.283  13.511  21.509  0.5478 -0.0664 -0.1378
 1439PEP     CB53844  16.619  13.590  21.810 -0.5270 -0.2392 -0.1338
 1439PEP     CB53845  16.690  13.844  22.213  0.3763  0.0695 -0.4961
 1439PEP     CB53846  16.562  14.004  22.569 -0.0382  0.0528 -0.3590
 1439PEP     CB53847  16.347  13.833  22.889 -0.1495  0.0187  0.1227
 1439PEP     CB53848  15.973  13.932  23.168 -0.0290  0.2351 -0.1074
 1439PEP     CB53849  15.676  14.178  23.413 -0.3458 -0.0203  0.0686
 1439PEP     CB53850  15.500  14.532  23.702  0.2903 -0.4100 -0.0709
 1439PEP     CB53851  15.597  14.985  23.817 -0.0066 -0.2304 -0.0349
 1439PEP     CB53852  15.351  15.417  23.631  0.2594  0.0321 -0.2073
 1439PEP     CB53853  15.268  15.457  23.276  0.0476  0.2287  0.1680
 1439PEP     CB53854  15.187  15.052  22.975  0.2094 -0.3863 -0.0163
 1439PEP     CB53855  14.926  14.729  22.933 -0.2227 -0.1475 -0.4067
 1439PEP     CB53856  14.545  14.785  22.894  0.0829  0.1276 -0.1574
 1439PEP     CB53857  14.215  15.020  22.771 -0.1088  0.0688 -0.0781
 1439PEP     CB53858  13.847  15.241  22.542  0.0484 -0.2238 -0.3082
 1439PEP     CB53859  13.712  15.509  22.105 -0.0205 -0.0917 -0.1284
 1439PEP     CB53860  13.762  15.861  21.764  0.1618  0.2047 -0.0746
 1439PEP     CB53861  13.605  16.158  21.573 -0.1397  0.1772  0.1609
 1439PEP     CB53862  13.250  16.237  21.511  0.4466 -0.0128 -0.1771
 1439PEP     CB53863  12.898  16.232  21.804  0.4071 -0.1241  0.1805
 1439PEP     CB53864  12.843  16.130  22.268 -0.0703 -0.0161  0.0481
 1439PEP     CB53865  13.144  15.996  22.532 -0.4942 -0.0117 -0.0945
 1439PEP     CB53866  13.504  15.843  22.515  0.0587  0.0277 -0.0167
 1439PEP     CB53867  13.850  16.010  22.320 -0.2032 -0.2331 -0.1972
 1439PEP     CB53868  13.932  16.301  21.960 -0.0989 -0.4153  0.0782
 1439PEP     CB53869  13.902  16.616  21.571  0.2686 -0.1682  0.4644
 1439PEP     CB53870  14.282  16.806  21.404 -0.0587 -0.0133 -0.4897
 1439PEP     CB53871  14.573  17.080  21.666  0.1375 -0.2731  0.2816
 1439PEP     CB53872  14.608  17.403  21.774  0.1105 -0.1680  0.0246
 1439PEP     CB53873  14.803  17.728  21.627 -0.0633  0.1068  0.0105
 1439PEP     CB53874  15.249  17.930  21.538 -0.2688  0.1325 -0.1482
 1439PEP     CB53875  15.503  18.309  21.406  0.0504 -0.2032 -0.2465
 1439PEP     CB53876  15.899  18.603  21.493  0.0565 -0.0310 -0.2848
 1439PEP     CB53877  16.106  18.662  21.773  0.2808 -0.1209 -0.3911
 1439PEP     CB53878  15.806  18.552  22.167 -0.0281  0.0325 -0.0379
 1439PEP     CB53879  15.797  18.152  22.298  0.1523  0.0155  0.2987
 1439PEP     CB53880  16.025  17.807  22.209 -0.0876 -0.2434  0.2263
 1440PEP     CB53881   4.515  14.262  12.931 -0.0733 -0.0527 -0.2371
 1440PEP     CB53882   4.151  14.331  13.226  0.1077  0.0577 -0.3910
 1440PEP     CB53883   3.761  14.358  13.252  0.4620  0.0292  0.0325
 1440PEP     CB53884   3.378  14.232  13.138  0.0057  0.3479 -0.3916
 1440PEP     CB53885   3.023  14.356  12.802 -0.0352  0.2044 -0.0066
 1440PEP     CB53886   2.969  14.233  12.433  0.0760  0.5959  0.0708
 1440PEP     CB53887   3.326  13.910  12.201 -0.1464 -0.0260 -0.2532
 1440PEP     CB53888   3.508  13.622  12.428 -0.2094 -0.0049  0.3882
 1440PEP     CB53889   3.466  13.463  12.845 -0.0040 -0.0367 -0.1284
 1440PEP     CB53890   3.457  13.639  13.269 -0.4193  0.1513 -0.1076
 1440PEP     CB53891   3.824  13.881  13.418 -0.0436 -0.0785  0.0261
 1440PEP     CB53892   4.075  13.883  13.099 -0.2290 -0.4041  0.1415
 1440PEP     CB53893   3.824  13.900  12.805 -0.1094 -0.1269  0.2833
 1440PEP     CB53894   3.371  14.001  12.738  0.1802 -0.2375 -0.1902
 1440PEP     CB53895   2.900  13.866  12.709  0.3397  0.2822  0.1145
 1440PEP     CB53896   2.490  13.968  12.862 -0.5444  0.2896 -0.1269
 1440PEP     CB53897   2.128  14.216  13.031  0.2121 -0.0581 -0.1764
 1440PEP     CB53898   2.043  14.540  13.126  0.0154  0.0171 -0.2376
 1440PEP     CB53899   2.053  14.937  13.135  0.0716  0.2754 -0.0763
 1440PEP     CB53900   2.078  15.302  13.118 -0.3609  0.1646  0.2631
 1440PEP     CB53901   1.797  15.688  13.050  0.2084 -0.0939  0.3502
 1440PEP     CB53902   1.635  15.986  12.693 -0.0875 -0.3147  0.1837
 1440PEP     CB53903   1.336  16.390  12.531  0.0525 -0.1562  0.3030
 1440PEP     CB53904   0.928  16.328  12.533 -0.1407  0.0655 -0.1156
 1440PEP     CB53905   0.780  16.163  12.898 -0.3992 -0.1709 -0.1956
 1440PEP     CB53906   0.406  16.125  13.296 -0.1259  0.0049  0.3137
 1440PEP     CB53907   0.189  15.826  13.592 -0.0476 -0.2081  0.3466
 1440PEP     CB53908  -0.001  15.470  13.861 -0.2183 -0.2360  0.3441
 1440PEP     CB53909  -0.219  15.266  14.151 -0.2474  0.3866 -0.2378
 1440PEP     CB53910  -0.381  14.908  14.238  0.0078  0.0111  0.0149
 1440PEP     CB53911  -0.327  14.574  14.349 -0.2567 -0.1472  0.3338
 1440PEP     CB53912  -0.395  14.193  14.317  0.1786  0.3488  0.2446
 1440PEP     CB53913  -0.428  13.898  13.957  0.1688  0.0714 -0.2817
 1440PEP     CB53914  -0.834  13.847  13.704  0.0167  0.1554  0.1997
 1440PEP     CB53915  -1.142  13.869  13.940  0.3534  0.2459  0.0842
 1440PEP     CB53916  -1.390  13.960  14.300  0.1002 -0.0973  0.1028
 1440PEP     CB53917  -1.589  13.786  14.691 -0.2550  0.6518  0.3071
 1440PEP     CB53918  -1.423  13.599  15.010 -0.0820 -0.2563  0.1726
 1440PEP     CB53919  -1.166  13.571  15.286 -0.0967 -0.2337 -0.3415
 1440PEP     CB53920  -1.021  13.317  15.639 -0.6798  0.0642 -0.1488
 1441PEP     CB53921  18.397   8.551   3.732 -0.1008 -0.0444  0.0492
 1441PEP     CB53922  18.214   8.829   3.456 -0.0108 -0.3290 -0.3432
 1441PEP     CB53923  18.033   8.869   3.120  0.0146  0.1605 -0.0322
 1441PEP     CB53924  17.777   8.716   2.812 -0.0411  0.6719 -0.0248
 1441PEP     CB53925  17.842   8.354   2.437 -0.3166 -0.0392  0.0821
 1441PEP     CB53926  18.031   7.923   2.263  0.2053 -0.2422 -0.1622
 1441PEP     CB53927  18.039   7.599   1.988 -0.0988 -0.1790  0.2789
 1441PEP     CB53928  18.408   7.445   1.670 -0.0986  0.2811  0.3121
 1441PEP     CB53929  18.323   7.455   1.232 -0.0017  0.2272 -0.5038
 1441PEP     CB53930  18.018   7.713   1.042  0.2032 -0.1444 -0.0458
 1441PEP     CB53931  17.795   8.078   0.960 -0.0697 -0.0578  0.1077
 1441PEP     CB53932  17.724   8.310   0.583 -0.3682 -0.0661 -0.2335
 1441PEP     CB53933  17.664   8.216   0.187  0.4955  0.2279  0.1904
 1441PEP     CB53934  17.611   8.036  -0.227 -0.1927 -0.7440 -0.1365
 1441PEP     CB53935  17.576   7.856  -0.603  0.0467  0.1374  0.2361
 1441PEP     CB53936  17.579   7.529  -0.851  0.1731  0.2781  0.4658
 1441PEP     CB53937  17.532   7.118  -1.072  0.1768 -0.0041  0.1304
 1441PEP     CB53938  17.853   6.918  -1.152  0.2027 -0.3593  0.1627
 1441PEP     CB53939  18.175   6.773  -1.085  0.3320  0.0822 -0.2656
 1441PEP     CB53940  18.527   6.668  -0.881 -0.1358 -0.0181  0.1220
 1441PEP     CB53941  18.653   6.680  -0.489  0.1375 -0.2014  0.4064
 1441PEP     CB53942  18.566   6.877  -0.071  0.4217  0.3481 -0.1759
 1441PEP     CB53943  18.649   6.612   0.323 -0.4117 -0.0248 -0.2278
 1441PEP     CB53944  19.027   6.290   0.330 -0.0663  0.1833 -0.0586
 1441PEP     CB53945  19.390   6.350   0.005  0.0875 -0.0645 -0.0906
 1441PEP     CB53946  19.765   6.491  -0.097  0.1264 -0.1466  0.3271
 1441PEP     CB53947  20.182   6.651   0.110 -0.1735  0.2290  0.3370
 1441PEP     CB53948  20.411   6.879   0.313 -0.0845  0.2132 -0.2251
 1441PEP     CB53949  20.377   7.151   0.568  0.0399 -0.1307  0.3513
 1441PEP     CB53950  20.658   7.324   0.829  0.3230  0.0103  0.0818
 1441PEP     CB53951  20.992   7.056   1.063 -0.0579 -0.7468  0.4058
 1441PEP     CB53952  21.267   6.785   0.863  0.3131  0.0557  0.1491
 1441PEP     CB53953  21.654   6.479   0.866  0.2178  0.2310 -0.0063
 1441PEP     CB53954  22.009   6.229   0.937  0.1148  0.3808 -0.0146
 1441PEP     CB53955  22.244   5.825   0.873 -0.0547 -0.2160 -0.0846
 1441PEP     CB53956  22.589   5.589   1.056  0.0286 -0.1073 -0.1335
 1441PEP     CB53957  22.711   5.280   0.701  0.4243  0.1390 -0.2583
 1441PEP     CB53958  22.374   5.043   0.321  0.0187  0.3818  0.0031
 1441PEP     CB53959  21.997   4.742   0.213 -0.2403  0.2660  0.3399
 1441PEP     CB53960  21.789   4.642  -0.115 -0.1827  0.1369 -0.2977
 1442PEP     CB53961  14.288  16.696   0.333 -0.4511  0.1382 -0.0100
 1442PEP     CB53962  14.233  16.278   0.272  0.1214  0.0635  0.1157
 1442PEP     CB53963  14.634  15.884   0.120 -0.0283  0.0367 -0.0869
 1442PEP     CB53964  14.974  15.723   0.270  0.0998  0.1698 -0.3738
 1442PEP     CB53965  15.324  15.437   0.168  0.1903  0.3074 -0.2482
 1442PEP     CB53966  15.462  15.088  -0.022 -0.1925 -0.0159 -0.2311
 1442PEP     CB53967  15.456  14.676  -0.254 -0.2689  0.3795  0.1062
 1442PEP     CB53968  15.638  14.285  -0.398  0.2232 -0.0107 -0.0094
 1442PEP     CB53969  16.027  14.112  -0.469 -0.0280  0.0805 -0.2652
 1442PEP     CB53970  16.452  13.985  -0.560 -0.2290  0.4242  0.1072
 1442PEP     CB53971  16.770  13.865  -0.861  0.1659  0.0658 -0.0683
 1442PEP     CB53972  16.964  13.702  -1.289  0.2809 -0.0894 -0.0593
 1442PEP     CB53973  17.332  13.463  -1.332  0.1076 -0.1973 -0.3730
 1442PEP     CB53974  17.455  13.181  -0.985  0.2006  0.1968  0.6034
 1442PEP     CB53975  17.798  13.009  -0.729 -0.0437  0.0312 -0.3993
 1442PEP     CB53976  18.080  13.157  -0.329 -0.1773 -0.0482  0.5372
 1442PEP     CB53977  18.148  13.354   0.083  0.0594  0.1761 -0.0244
 1442PEP     CB53978  18.286  13.542   0.462  0.1100 -0.1505 -0.0838
 1442PEP     CB53979  18.540  13.645   0.722 -0.4878  0.0579  0.1256
 1442PEP     CB53980  18.979  13.631   0.650 -0.0299 -0.1676  0.0129
 1442PEP     CB53981  19.417  13.705   0.433 -0.0209  0.1708  0.4764
 1442PEP     CB53982  19.882  13.674   0.487  0.3953  0.0163  0.1108
 1442PEP     CB53983  20.246  13.494   0.786  0.0764  0.5146  0.3446
 1442PEP     CB53984  20.573  13.159   1.010  0.0258  0.1629  0.3730
 1442PEP     CB53985  20.451  12.847   1.362 -0.4997 -0.3715 -0.0954
 1442PEP     CB53986  20.578  12.404   1.503 -0.0664 -0.2784 -0.4325
 1442PEP     CB53987  20.522  12.084   1.838 -0.3630  0.1818 -0.1410
 1442PEP     CB53988  20.360  11.846   2.168  0.4039  0.2383  0.0864
 1442PEP     CB53989  20.141  11.749   2.610 -0.0081 -0.3359 -0.1832
 1442PEP     CB53990  20.220  11.886   3.002  0.1887  0.4791  0.1059
 1442PEP     CB53991  20.301  12.264   3.266  0.4724 -0.2722 -0.3170
 1442PEP     CB53992  20.552  12.615   3.333 -0.4008 -0.3320 -0.0230
 1442PEP     CB53993  20.739  13.058   3.371 -0.1285  0.1942  0.3322
 1442PEP     CB53994  20.709  13.524   3.384  0.1091  0.1358 -0.0149
 1442PEP     CB53995  20.816  13.951   3.143 -0.0901  0.4024 -0.1230
 1442PEP     CB53996  21.008  14.295   3.156  0.2513 -0.2066 -0.0507
 1442PEP     CB53997  21.342  14.442   3.466  0.0817 -0.3152  0.0368
 1442PEP     CB53998  21.563  14.403   3.890  0.0019 -0.0075  0.0613
 1442PEP     CB53999  21.636  14.247   4.291  0.2175  0.1469  0.2352
 1442PEP     CB54000  21.738  13.934   4.513 -0.2846 -0.1520 -0.1088
 1443PEP     CB54001  14.176  19.993  17.769 -0.0467  0.2579 -0.2885
 1443PEP     CB54002  13.860  20.263  17.762 -0.4672 -0.1221  0.1566
 1443PEP     CB54003  13.515  20.563  17.705  0.2246 -0.3748  0.0173
 1443PEP     CB54004  13.327  20.948  17.640 -0.1672 -0.3450  0.4037
 1443PEP     CB54005  13.258  21.371  17.511  0.1700  0.1343  0.0499
 1443PEP     CB54006  13.240  21.795  17.318 -0.0416  0.0839 -0.0430
 1443PEP     CB54007  13.135  21.877  16.890  0.0616 -0.2401 -0.2547
 1443PEP     CB54008  13.354  22.055  16.664  0.1669  0.3973  0.1351
 1443PEP     CB54009  13.834  22.081  16.656 -0.0479  0.2048 -0.1602
 1443PEP     CB54010  14.071  22.265  17.000 -0.3188 -0.1310  0.2071
 1443PEP     CB54011  13.887  22.500  17.288  0.0327  0.0165 -0.1085
 1443PEP     CB54012  13.863  22.818  17.601  0.3115 -0.0664 -0.1396
 1443PEP     CB54013  13.944  22.758  18.045  0.3281 -0.2023  0.2212
 1443PEP     CB54014  13.892  23.105  18.340 -0.2565  0.1364  0.0340
 1443PEP     CB54015  14.143  23.438  18.313  0.2223 -0.2085 -0.1512
 1443PEP     CB54016  14.596  23.535  18.413  0.0421 -0.4374 -0.0008
 1443PEP     CB54017  14.970  23.412  18.273  0.0840  0.1142  0.2348
 1443PEP     CB54018  15.226  23.161  18.086 -0.3325  0.2387 -0.1362
 1443PEP     CB54019  15.477  23.068  17.721 -0.3583  0.2041  0.1399
 1443PEP     CB54020  15.594  22.775  17.484 -0.2316 -0.2318  0.0033
 1443PEP     CB54021  15.705  22.531  17.194 -0.4856 -0.1361 -0.3189
 1443PEP     CB54022  16.012  22.492  16.904 -0.0753  0.0528 -0.1800
 1443PEP     CB54023  16.400  22.627  16.755  0.3325  0.2711 -0.1691
 1443PEP     CB54024  16.555  23.118  16.699  0.2893  0.0154  0.2333
 1443PEP     CB54025  16.453  23.402  17.031  0.0263  0.0225  0.2005
 1443PEP     CB54026  16.222  23.355  17.414  0.5601  0.1760 -0.3173
 1443PEP     CB54027  16.208  23.625  17.747 -0.3222 -0.1597 -0.0474
 1443PEP     CB54028  16.307  24.099  17.699  0.1726 -0.1766 -0.0276
 1443PEP     CB54029  16.194  24.484  17.534  0.0546 -0.0302  0.3660
 1443PEP     CB54030  16.134  24.807  17.198  0.1504  0.0181  0.3546
 1443PEP     CB54031  15.769  25.064  16.999  0.3559 -0.3573 -0.3873
 1443PEP     CB54032  15.460  25.122  16.798 -0.2702  0.0507 -0.3177
 1443PEP     CB54033  15.117  25.376  16.727 -0.0239  0.2905  0.2189
 1443PEP     CB54034  15.123  25.901  16.631  0.3666 -0.0015  0.1694
 1443PEP     CB54035  15.128  26.239  16.822 -0.4198  0.1903 -0.2872
 1443PEP     CB54036  15.228  26.639  16.931  0.2363 -0.1319  0.0078
 1443PEP     CB54037  15.498  26.992  16.916 -0.1217  0.0172  0.2914
 1443PEP     CB54038  15.832  27.084  16.700  0.1944 -0.0182  0.0411
 1443PEP     CB54039  16.282  26.822  16.623  0.3129 -0.0292 -0.0174
 1443PEP     CB54040  16.740  26.734  16.772  0.0843 -0.2491 -0.5616
 1444PEP     CB54041  16.434   1.961   4.367  0.0325 -0.2065 -0.3248
 1444PEP     CB54042  16.858   1.800   4.382 -0.0577 -0.1610 -0.1102
 1444PEP     CB54043  17.283   1.594   4.149  0.0172  0.0291  0.3204
 1444PEP     CB54044  17.810   1.591   4.041  0.0312 -0.1579 -0.5095
 1444PEP     CB54045  18.278   1.638   4.077 -0.0408 -0.3164 -0.2140
 1444PEP     CB54046  18.554   1.420   3.969 -0.0096  0.0492 -0.1552
 1444PEP     CB54047  18.597   1.036   3.760 -0.1373  0.1497  0.0481
 1444PEP     CB54048  18.400   0.673   3.733  0.3012  0.0354 -0.3936
 1444PEP     CB54049  18.296   0.236   3.564  0.0780 -0.1173  0.1101
 1444PEP     CB54050  18.407  -0.196   3.564  0.0386 -0.4928  0.3392
 1444PEP     CB54051  18.531  -0.621   3.468 -0.1484  0.2294  0.0124
 1444PEP     CB54052  18.753  -1.097   3.470  0.3204  0.1599 -0.0065
 1444PEP     CB54053  19.029  -1.435   3.576  0.2656 -0.1448  0.4271
 1444PEP     CB54054  19.262  -1.816   3.633  0.2130  0.2635  0.2030
 1444PEP     CB54055  19.477  -2.177   3.806  0.1785  0.4658  0.4364
 1444PEP     CB54056  19.470  -2.551   3.990 -0.4824  0.0060 -0.2386
 1444PEP     CB54057  19.184  -2.755   4.289 -0.4512 -0.2304  0.5094
 1444PEP     CB54058  18.691  -2.878   4.408  0.1881  0.1664 -0.4466
 1444PEP     CB54059  18.250  -2.857   4.556  0.1535  0.1031 -0.1264
 1444PEP     CB54060  18.019  -2.746   4.802 -0.3276 -0.1319  0.0527
 1444PEP     CB54061  17.750  -2.456   4.977 -0.0434  0.2873  0.3151
 1444PEP     CB54062  17.623  -2.168   5.314 -0.0205  0.0079  0.0891
 1444PEP     CB54063  17.339  -2.014   5.692 -0.1109  0.2347 -0.1956
 1444PEP     CB54064  17.303  -1.560   5.683 -0.0238  0.0134 -0.0548
 1444PEP     CB54065  17.087  -1.169   5.478 -0.1318  0.2275 -0.1812
 1444PEP     CB54066  17.015  -0.857   5.703 -0.0181  0.2347  0.2272
 1444PEP     CB54067  17.174  -0.592   5.973  0.3619 -0.0408 -0.3095
 1444PEP     CB54068  17.443  -0.706   6.141  0.1114  0.1422  0.0190
 1444PEP     CB54069  17.900  -0.672   6.294 -0.1061 -0.2315 -0.1729
 1444PEP     CB54070  18.087  -0.323   6.518 -0.2306 -0.3916  0.2367
 1444PEP     CB54071  18.071   0.127   6.361 -0.3149 -0.0220 -0.1794
 1444PEP     CB54072  17.665   0.293   6.112  0.0006 -0.0261 -0.3041
 1444PEP     CB54073  17.281   0.220   6.255 -0.1359 -0.2059 -0.0943
 1444PEP     CB54074  17.150   0.265   6.599  0.2453  0.0554  0.1612
 1444PEP     CB54075  17.155   0.052   6.914 -0.2043  0.1808  0.2063
 1444PEP     CB54076  17.198  -0.330   7.035  0.5330  0.3938  0.1707
 1444PEP     CB54077  17.359  -0.753   6.986 -0.1295 -0.2146  0.0978
 1444PEP     CB54078  17.457  -1.164   7.143 -0.1228  0.0823 -0.0498
 1444PEP     CB54079  17.632  -1.500   7.271  0.0813  0.3892 -0.1454
 1444PEP     CB54080  17.869  -1.747   7.392  0.1196  0.2415  0.2674
 1445PEP     CB54081  13.580   1.273  13.215  0.1322 -0.0152  0.0801
 1445PEP     CB54082  13.153   1.006  13.302 -0.0514  0.1828  0.0457
 1445PEP     CB54083  12.796   0.779  13.478  0.0591  0.0264 -0.2405
 1445PEP     CB54084  12.426   0.603  13.478 -0.2763  0.0422  0.2573
 1445PEP     CB54085  12.173   0.296  13.431  0.1502 -0.0084  0.1911
 1445PEP     CB54086  12.199  -0.102  13.288  0.2026 -0.3864 -0.0894
 1445PEP     CB54087  12.103  -0.209  12.904  0.1192  0.2134  0.0534
 1445PEP     CB54088  12.007   0.136  12.586  0.3850  0.0085  0.5001
 1445PEP     CB54089  11.546   0.248  12.538  0.0874  0.1423 -0.2941
 1445PEP     CB54090  11.380  -0.193  12.554 -0.0018 -0.0482  0.0456
 1445PEP     CB54091  11.645  -0.499  12.743  0.1045  0.0855  0.0061
 1445PEP     CB54092  11.803  -0.881  12.656 -0.3544  0.0862 -0.1802
 1445PEP     CB54093  11.777  -1.336  12.549 -0.2777  0.1562  0.1402
 1445PEP     CB54094  11.609  -1.521  12.204 -0.1463 -0.4785  0.3362
 1445PEP     CB54095  11.172  -1.572  12.109  0.2547  0.0746  0.0506
 1445PEP     CB54096  10.798  -1.350  12.360  0.5290 -0.1175  0.4482
 1445PEP     CB54097  10.898  -1.094  12.719 -0.0370 -0.1822  0.2680
 1445PEP     CB54098  11.154  -0.744  12.910 -0.0585 -0.3305  0.2450
 1445PEP     CB54099  11.308  -0.325  13.054 -0.0905  0.1346 -0.1854
 1445PEP     CB54100  11.618  -0.028  13.006 -0.0958  0.4852 -0.0574
 1445PEP     CB54101  11.657   0.415  13.047 -0.5068  0.1341  0.1699
 1445PEP     CB54102  11.507   0.820  13.039 -0.0468 -0.2133  0.0887
 1445PEP     CB54103  11.142   1.027  12.887  0.1682 -0.0564 -0.0487
 1445PEP     CB54104  10.850   1.059  13.187  0.5899  0.0651 -0.0826
 1445PEP     CB54105  10.763   0.934  13.593  0.0150  0.1669 -0.1939
 1445PEP     CB54106  10.946   0.549  13.822 -0.0042  0.0072 -0.1110
 1445PEP     CB54107  11.352   0.303  13.851 -0.1317  0.0481  0.0934
 1445PEP     CB54108  11.772   0.367  13.785  0.0124 -0.1940 -0.0146
 1445PEP     CB54109  11.930   0.706  13.427 -0.0047 -0.0916 -0.0540
 1445PEP     CB54110  12.311   0.982  13.212  0.1903  0.3063  0.1541
 1445PEP     CB54111  12.646   1.241  13.119  0.0257  0.0949  0.2305
 1445PEP     CB54112  12.739   1.645  13.088  0.1076  0.1897 -0.3092
 1445PEP     CB54113  12.569   2.052  13.282 -0.1237  0.0301 -0.2127
 1445PEP     CB54114  12.454   2.535  13.284 -0.0426  0.0551  0.0513
 1445PEP     CB54115  12.346   2.864  13.361 -0.1381  0.0409  0.1628
 1445PEP     CB54116  12.008   3.158  13.614 -0.0418  0.4279 -0.2580
 1445PEP     CB54117  11.991   3.619  13.562  0.1989  0.0821 -0.0635
 1445PEP     CB54118  11.950   3.787  13.085 -0.1699 -0.3936  0.2482
 1445PEP     CB54119  11.860   3.541  12.632 -0.0900  0.4237  0.1092
 1445PEP     CB54120  11.760   3.093  12.712 -0.1480 -0.0087 -0.2742
 1446PEP     CB54121   1.106   3.468  12.626  0.1927  0.2915  0.0580
 1446PEP     CB54122   1.479   3.657  12.666 -0.1819  0.3801  0.4021
 1446PEP     CB54123   1.681   3.891  12.469  0.3873  0.0520 -0.0882
 1446PEP     CB54124   1.623   4.383  12.520 -0.0237  0.0025 -0.3583
 1446PEP     CB54125   1.496   4.756  12.404 -0.1019 -0.1075 -0.3605
 1446PEP     CB54126   1.366   5.163  12.269  0.6242 -0.0711  0.0158
 1446PEP     CB54127   1.402   5.654  12.236  0.1921  0.2063 -0.1673
 1446PEP     CB54128   1.222   6.011  11.904 -0.2535  0.3853  0.4945
 1446PEP     CB54129   0.910   6.226  11.693 -0.1642  0.1629  0.1839
 1446PEP     CB54130   0.630   6.459  11.428  0.2744 -0.0363 -0.1846
 1446PEP     CB54131   0.307   6.701  11.585 -0.3188  0.1092  0.0554
 1446PEP     CB54132   0.075   6.866  11.874  0.1873 -0.2429  0.2221
 1446PEP     CB54133   0.016   6.956  12.365  0.0121  0.3006  0.2734
 1446PEP     CB54134  -0.135   7.358  12.428 -0.0964 -0.0991 -0.3624
 1446PEP     CB54135  -0.366   7.817  12.387 -0.1076 -0.3482  0.0229
 1446PEP     CB54136  -0.460   8.209  12.487  0.1971  0.2051  0.0132
 1446PEP     CB54137  -0.792   8.470  12.386 -0.1777 -0.0009  0.0324
 1446PEP     CB54138  -1.148   8.612  12.342  0.0754  0.1987  0.2867
 1446PEP     CB54139  -1.455   8.345  12.207  0.2028 -0.2781 -0.1098
 1446PEP     CB54140  -1.365   7.805  12.162 -0.0346  0.4919  0.2218
 1446PEP     CB54141  -1.033   7.579  12.460 -0.1065 -0.0175 -0.2176
 1446PEP     CB54142  -0.754   7.774  12.769  0.2984  0.3872 -0.4799
 1446PEP     CB54143  -0.549   7.975  12.979 -0.5610 -0.1023 -0.0255
 1446PEP     CB54144  -0.527   8.342  13.266  0.1643  0.0329  0.4452
 1446PEP     CB54145  -0.691   8.786  13.168  0.1924 -0.0604 -0.1986
 1446PEP     CB54146  -0.957   9.046  12.940 -0.1085 -0.0448  0.1298
 1446PEP     CB54147  -1.356   9.032  12.898 -0.2440 -0.2092 -0.1467
 1446PEP     CB54148  -1.771   9.034  12.936  0.3783 -0.1230  0.2136
 1446PEP     CB54149  -2.221   8.942  12.881  0.4377 -0.2740  0.0311
 1446PEP     CB54150  -2.557   8.706  13.050 -0.2227 -0.1574 -0.1989
 1446PEP     CB54151  -3.002   8.538  13.120  0.2133  0.1361  0.0305
 1446PEP     CB54152  -3.382   8.646  13.150  0.2357  0.1146  0.0087
 1446PEP     CB54153  -3.815   8.637  13.029 -0.1257 -0.2988  0.1840
 1446PEP     CB54154  -4.133   8.424  12.901 -0.4590  0.2107  0.2256
 1446PEP     CB54155  -4.412   8.076  12.673  0.3661  0.0915 -0.0314
 1446PEP     CB54156  -4.917   8.121  12.653  0.4130  0.1349 -0.4144
 1446PEP     CB54157  -5.030   8.522  12.699 -0.2362 -0.0920  0.0497
 1446PEP     CB54158  -5.021   8.844  12.397 -0.4256 -0.1189 -0.5730
 1446PEP     CB54159  -5.361   8.942  12.202 -0.3941  0.4758 -0.2218
 1446PEP     CB54160  -5.801   8.943  12.314  0.2795  0.1927 -0.0376
 1447PEP     CB54161   5.827  22.008   8.948  0.0612  0.1834  0.1172
 1447PEP     CB54162   5.802  22.474   8.802  0.2828  0.0506 -0.1754
 1447PEP     CB54163   5.759  22.813   8.540 -0.0489  0.0840 -0.1862
 1447PEP     CB54164   5.924  22.943   8.157  0.0676 -0.1036  0.0726
 1447PEP     CB54165   6.169  22.750   7.793 -0.1874  0.1907 -0.1246
 1447PEP     CB54166   6.328  22.396   7.681  0.1200  0.0285 -0.0381
 1447PEP     CB54167   6.541  22.223   7.306 -0.0662 -0.1742  0.0873
 1447PEP     CB54168   6.962  21.968   7.175 -0.0208  0.0629 -0.0139
 1447PEP     CB54169   7.274  21.794   7.014  0.1595  0.2341  0.0949
 1447PEP     CB54170   7.553  21.412   6.980 -0.3136 -0.0685  0.2994
 1447PEP     CB54171   7.920  21.327   7.136  0.2502 -0.2633  0.0060
 1447PEP     CB54172   8.059  21.282   7.556  0.4239  0.3588 -0.0683
 1447PEP     CB54173   8.082  21.058   7.869  0.1236  0.0711  0.2404
 1447PEP     CB54174   8.393  20.906   8.113  0.1968 -0.4709  0.1281
 1447PEP     CB54175   8.785  20.861   7.930  0.1020 -0.3592 -0.2254
 1447PEP     CB54176   9.032  21.190   7.642  0.2709 -0.0833  0.2516
 1447PEP     CB54177   9.039  21.716   7.582 -0.3191 -0.2360  0.0191
 1447PEP     CB54178   9.270  21.910   7.290  0.2658  0.0118  0.1458
 1447PEP     CB54179   9.736  21.890   7.266  0.1450 -0.0881 -0.2587
 1447PEP     CB54180   9.880  21.674   7.672  0.3092  0.0320  0.0746
 1447PEP     CB54181   9.926  21.860   8.044 -0.0868  0.0068  0.0677
 1447PEP     CB54182  10.070  22.120   8.415 -0.0811 -0.1431  0.0793
 1447PEP     CB54183  10.231  22.360   8.845 -0.1526 -0.2479  0.0719
 1447PEP     CB54184  10.389  22.567   9.245 -0.3959 -0.0006 -0.0373
 1447PEP     CB54185  10.376  22.947   9.600  0.1209  0.3391  0.4131
 1447PEP     CB54186  10.186  23.329   9.683 -0.1342  0.1988 -0.2209
 1447PEP     CB54187   9.731  23.604   9.549 -0.4537  0.0324  0.1609
 1447PEP     CB54188   9.470  23.560   9.232  0.0194 -0.0306 -0.0862
 1447PEP     CB54189   9.633  23.377   8.948  0.0294 -0.0121  0.0641
 1447PEP     CB54190   9.772  23.118   8.532 -0.0218  0.0348 -0.1150
 1447PEP     CB54191   9.783  22.729   8.279 -0.1817  0.0689  0.2414
 1447PEP     CB54192   9.881  22.358   8.026  0.1530  0.2145 -0.4317
 1447PEP     CB54193   9.586  22.066   7.767 -0.3011 -0.0281  0.1495
 1447PEP     CB54194   9.393  21.704   7.938 -0.2870 -0.1849  0.3962
 1447PEP     CB54195   9.511  21.375   8.214  0.2102  0.2712 -0.2986
 1447PEP     CB54196   9.467  21.233   8.702 -0.2406  0.3076 -0.2582
 1447PEP     CB54197   9.609  21.222   9.154  0.1344  0.0745 -0.0088
 1447PEP     CB54198   9.883  21.285   9.469  0.0457  0.1186  0.2822
 1447PEP     CB54199   9.892  21.357   9.908  0.3266  0.4033 -0.1891
 1447PEP     CB54200   9.868  21.569  10.372  0.4315  0.1547 -0.0247
 1448PEP     CB54201   7.927  11.070   3.204 -0.1094 -0.1704 -0.2120
 1448PEP     CB54202   7.588  10.777   3.214 -0.4854 -0.0565 -0.0176
 1448PEP     CB54203   7.299  10.388   3.269  0.0853  0.2190  0.4050
 1448PEP     CB54204   7.327   9.972   3.313 -0.5101 -0.1040 -0.2383
 1448PEP     CB54205   7.299   9.499   3.395  0.0798 -0.1876 -0.1297
 1448PEP     CB54206   7.324   9.113   3.267 -0.1410 -0.0913  0.1599
 1448PEP     CB54207   7.085   8.836   3.109  0.0129 -0.2217 -0.0066
 1448PEP     CB54208   6.832   8.900   2.778  0.3329  0.0163  0.1972
 1448PEP     CB54209   6.901   9.281   2.416  0.2419 -0.0231 -0.0962
 1448PEP     CB54210   6.742   9.658   2.354 -0.3858 -0.2891  0.0611
 1448PEP     CB54211   6.553  10.039   2.360  0.0559 -0.2361  0.1969
 1448PEP     CB54212   6.508  10.418   2.637 -0.1888  0.1620  0.0988
 1448PEP     CB54213   6.449  10.503   3.063  0.1893  0.2874 -0.0967
 1448PEP     CB54214   6.132  10.684   3.329  0.1084 -0.1112 -0.0229
 1448PEP     CB54215   5.938  11.033   3.523 -0.0657 -0.0243 -0.1948
 1448PEP     CB54216   5.683  11.314   3.512 -0.5418 -0.0292 -0.2947
 1448PEP     CB54217   5.690  11.753   3.498  0.1151 -0.3552  0.1491
 1448PEP     CB54218   5.608  12.203   3.588  0.3276  0.3866 -0.2299
 1448PEP     CB54219   5.395  12.496   3.487  0.3560 -0.2264 -0.3932
 1448PEP     CB54220   4.965  12.416   3.432  0.3099  0.0919  0.1949
 1448PEP     CB54221   4.519  12.411   3.664 -0.1357  0.2313  0.0061
 1448PEP     CB54222   4.207  12.667   3.903  0.0656  0.0569 -0.3294
 1448PEP     CB54223   3.900  12.914   4.073 -0.0537 -0.0407 -0.2401
 1448PEP     CB54224   3.619  13.282   4.139 -0.1628 -0.2604  0.1978
 1448PEP     CB54225   3.656  13.672   3.863  0.1165  0.0812  0.1072
 1448PEP     CB54226   3.961  13.982   3.631  0.3359  0.0766 -0.0236
 1448PEP     CB54227   4.333  14.063   3.480 -0.0320 -0.0598  0.3495
 1448PEP     CB54228   4.773  13.962   3.517 -0.2342 -0.1872 -0.0051
 1448PEP     CB54229   5.095  13.910   3.779 -0.0794 -0.0844 -0.1795
 1448PEP     CB54230   5.459  14.103   4.011  0.1315 -0.1060 -0.0489
 1448PEP     CB54231   5.667  14.288   4.284  0.0178 -0.1808 -0.3857
 1448PEP     CB54232   5.964  14.395   4.668 -0.0283  0.3819 -0.1522
 1448PEP     CB54233   5.994  14.321   5.103 -0.5526 -0.1481 -0.1932
 1448PEP     CB54234   5.691  14.075   5.357  0.2181 -0.0944 -0.1416
 1448PEP     CB54235   5.327  14.006   5.597  0.2223 -0.0296 -0.4638
 1448PEP     CB54236   4.997  13.700   5.488  0.1594  0.2587 -0.3501
 1448PEP     CB54237   4.543  13.739   5.349  0.0747  0.2446 -0.0368
 1448PEP     CB54238   4.198  13.943   5.555  0.0114  0.1290  0.0432
 1448PEP     CB54239   3.995  14.202   5.860  0.0954 -0.2324 -0.1901
 1448PEP     CB54240   3.729  14.422   6.024  0.1629  0.1365  0.1264
 1449PEP     CB54241  11.982   3.638   6.344  0.3367 -0.0431 -0.1214
 1449PEP     CB54242  12.414   3.653   6.181  0.0383 -0.1700 -0.1871
 1449PEP     CB54243  12.676   3.706   5.864  0.4036 -0.0519  0.3282
 1449PEP     CB54244  13.087   3.749   5.619 -0.3636  0.1054 -0.4566
 1449PEP     CB54245  13.406   3.516   5.386 -0.3114 -0.1613 -0.0000
 1449PEP     CB54246  13.386   3.359   4.957 -0.1602 -0.2873  0.1094
 1449PEP     CB54247  13.189   3.076   4.728  0.0486 -0.0618 -0.0808
 1449PEP     CB54248  13.160   2.814   4.387  0.0597 -0.0358  0.0585
 1449PEP     CB54249  12.988   2.795   4.000 -0.0735  0.1154 -0.3496
 1449PEP     CB54250  12.883   3.057   3.553 -0.0743 -0.0346  0.3851
 1449PEP     CB54251  12.748   3.301   3.236 -0.2618  0.0988  0.0568
 1449PEP     CB54252  12.827   3.613   2.845  0.0252  0.0352 -0.0202
 1449PEP     CB54253  13.261   3.835   2.721  0.1246  0.0408  0.1990
 1449PEP     CB54254  13.602   4.104   3.017 -0.1162  0.0975  0.1689
 1449PEP     CB54255  13.736   4.360   3.282 -0.1961 -0.2336  0.0243
 1449PEP     CB54256  13.890   4.430   3.733  0.3842 -0.4170  0.1838
 1449PEP     CB54257  14.244   4.483   4.007 -0.0650 -0.1690  0.2565
 1449PEP     CB54258  14.471   4.758   4.295  0.1542  0.1085  0.1575
 1449PEP     CB54259  14.323   5.200   4.251 -0.0212 -0.3935 -0.1149
 1449PEP     CB54260  13.900   5.321   4.317  0.1313 -0.0275  0.1586
 1449PEP     CB54261  13.549   5.443   4.451 -0.0485 -0.0229  0.2198
 1449PEP     CB54262  13.134   5.263   4.416 -0.0941  0.1352 -0.1642
 1449PEP     CB54263  12.934   4.933   4.191  0.1878  0.1658 -0.1416
 1449PEP     CB54264  12.934   4.643   3.937  0.1314 -0.1075  0.0595
 1449PEP     CB54265  12.793   4.499   3.484  0.2316 -0.2407 -0.0258
 1449PEP     CB54266  12.742   4.490   3.002  0.1066 -0.0951  0.1871
 1449PEP     CB54267  12.687   4.367   2.605 -0.0570  0.0108  0.0161
 1449PEP     CB54268  12.516   4.399   2.192 -0.1589 -0.3812  0.4213
 1449PEP     CB54269  12.241   4.291   1.826 -0.2618 -0.2590  0.1029
 1449PEP     CB54270  12.127   4.040   1.555  0.1835 -0.0199  0.2776
 1449PEP     CB54271  11.923   3.874   1.306 -0.0421  0.2246  0.1763
 1449PEP     CB54272  11.816   3.459   1.055 -0.1981  0.2474  0.2193
 1449PEP     CB54273  11.387   3.273   0.967  0.1074  0.1465  0.2244
 1449PEP     CB54274  11.136   2.901   0.858 -0.2511  0.0315  0.0190
 1449PEP     CB54275  10.837   2.727   0.516 -0.2097  0.1893 -0.0768
 1449PEP     CB54276  10.799   2.490   0.109  0.3201  0.0516  0.2631
 1449PEP     CB54277  10.527   2.182  -0.112 -0.0980  0.1503 -0.0599
 1449PEP     CB54278  10.135   2.116  -0.198 -0.2881  0.2044 -0.0422
 1449PEP     CB54279   9.730   2.110  -0.498 -0.1686 -0.2724 -0.0955
 1449PEP     CB54280   9.238   2.111  -0.442 -0.4503 -0.0940  0.3879
 1450PEP     CB54281   0.550   9.798   9.858  0.1482  0.0258  0.0442
 1450PEP     CB54282   0.811  10.066   9.943 -0.0829 -0.1907 -0.0613
 1450PEP     CB54283   1.039  10.327   9.788  0.4091  0.2708 -0.0913
 1450PEP     CB54284   1.161  10.573   9.558 -0.0808 -0.1628 -0.2906
 1450PEP     CB54285   1.217  10.944   9.232  0.0120  0.2556 -0.0669
 1450PEP     CB54286   1.104  11.063   8.832 -0.0444 -0.0823  0.0135
 1450PEP     CB54287   0.962  11.231   8.339  0.2247 -0.0266  0.1247
 1450PEP     CB54288   0.794  11.544   8.039 -0.2934  0.0519 -0.2041
 1450PEP     CB54289   0.615  11.960   7.941  0.0606 -0.1412  0.0186
 1450PEP     CB54290   0.827  12.228   7.600 -0.2230  0.2019 -0.1022
 1450PEP     CB54291   0.964  12.623   7.371  0.1210  0.0784  0.2917
 1450PEP     CB54292   0.820  12.772   6.941 -0.3206 -0.0705 -0.2975
 1450PEP     CB54293   0.784  12.925   6.603  0.0917  0.2532 -0.0632
 1450PEP     CB54294   0.451  12.981   6.400  0.2197  0.3502 -0.1547
 1450PEP     CB54295   0.011  12.872   6.283  0.0391 -0.1988 -0.0845
 1450PEP     CB54296  -0.206  12.533   6.141 -0.1073 -0.0878  0.4817
 1450PEP     CB54297  -0.522  12.513   5.877  0.1820  0.1505 -0.1673
 1450PEP     CB54298  -0.982  12.317   5.793 -0.1188 -0.0641 -0.2639
 1450PEP     CB54299  -1.342  12.072   5.967 -0.2358 -0.2305 -0.0279
 1450PEP     CB54300  -1.397  11.712   6.134 -0.0623 -0.0163 -0.2544
 1450PEP     CB54301  -1.248  11.424   6.436  0.1464 -0.1992  0.1278
 1450PEP     CB54302  -1.079  11.196   6.730  0.2579 -0.0813  0.0099
 1450PEP     CB54303  -1.077  11.015   7.169  0.0590  0.2024 -0.0296
 1450PEP     CB54304  -1.036  10.792   7.479  0.2009  0.4010  0.0252
 1450PEP     CB54305  -0.778  10.530   7.739  0.4318 -0.1731 -0.3315
 1450PEP     CB54306  -0.583  10.282   8.143  0.5538  0.4109 -0.0644
 1450PEP     CB54307  -0.575   9.994   8.615  0.7112 -0.2174  0.0583
 1450PEP     CB54308  -0.493   9.639   8.895  0.4291  0.0785 -0.2294
 1450PEP     CB54309  -0.466   9.437   9.304  0.1562  0.1277  0.2463
 1450PEP     CB54310  -0.532   9.003   9.545  0.0109  0.3967  0.2114
 1450PEP     CB54311  -0.745   8.681   9.856  0.0683 -0.3923  0.4060
 1450PEP     CB54312  -0.796   8.342  10.188 -0.1533 -0.1403 -0.0659
 1450PEP     CB54313  -0.843   8.259  10.575 -0.2482 -0.0750  0.1548
 1450PEP     CB54314  -0.570   8.170  10.861  0.1470  0.2779  0.4158
 1450PEP     CB54315  -0.316   8.015  11.234 -0.0716  0.3474 -0.1764
 1450PEP     CB54316  -0.077   7.672  11.190  0.0720 -0.0242  0.0942
 1450PEP     CB54317  -0.040   7.207  11.046  0.1860 -0.0686  0.0332
 1450PEP     CB54318  -0.131   6.787  10.940  0.1262 -0.2624 -0.2788
 1450PEP     CB54319  -0.524   6.535  11.009 -0.0958  0.2082  0.3037
 1450PEP     CB54320  -0.653   6.258  11.426 -0.0190 -0.0110 -0.2777
 1451PEP     CB54321  15.353   2.746   0.492  0.2390  0.4382  0.0916
 1451PEP     CB54322  14.922   2.611   0.357 -0.3574 -0.2128  0.2450
 1451PEP     CB54323  14.504   2.414   0.314 -0.3805 -0.0843  0.0607
 1451PEP     CB54324  14.139   2.293   0.407 -0.0582 -0.0293  0.0331
 1451PEP     CB54325  13.841   2.170   0.689 -0.0226 -0.1881 -0.1036
 1451PEP     CB54326  13.427   2.033   0.941 -0.2576 -0.1553 -0.2187
 1451PEP     CB54327  12.956   2.081   1.041 -0.2327 -0.1355 -0.4635
 1451PEP     CB54328  12.638   2.233   1.258 -0.3179  0.3033 -0.3599
 1451PEP     CB54329  12.241   2.419   1.423 -0.2600 -0.1842  0.2167
 1451PEP     CB54330  11.827   2.457   1.494  0.0014 -0.2647  0.0049
 1451PEP     CB54331  11.439   2.238   1.533  0.0963 -0.0291 -0.0457
 1451PEP     CB54332  11.088   2.044   1.338  0.4421 -0.0987  0.5212
 1451PEP     CB54333  10.686   1.878   1.100 -0.2526 -0.1985 -0.1853
 1451PEP     CB54334  10.604   1.571   0.855  0.2103 -0.1432  0.2517
 1451PEP     CB54335  10.880   1.464   0.494 -0.1728 -0.0212  0.2162
 1451PEP     CB54336  11.052   1.259   0.047 -0.0372 -0.4575 -0.2053
 1451PEP     CB54337  11.192   0.975  -0.309  0.1904  0.1763  0.0968
 1451PEP     CB54338  11.359   0.784  -0.574 -0.3705 -0.1505  0.1655
 1451PEP     CB54339  11.603   0.464  -0.531 -0.3708 -0.2480 -0.0584
 1451PEP     CB54340  11.671   0.110  -0.698 -0.0980  0.1522 -0.1876
 1451PEP     CB54341  11.386  -0.153  -0.766  0.4826 -0.1704 -0.0064
 1451PEP     CB54342  10.978  -0.138  -0.825  0.1413 -0.1278  0.5399
 1451PEP     CB54343  10.707  -0.034  -1.228  0.4702  0.1088 -0.5105
 1451PEP     CB54344  10.793   0.236  -1.543 -0.0365  0.1642 -0.3668
 1451PEP     CB54345  11.141   0.504  -1.544 -0.0094 -0.3301 -0.0480
 1451PEP     CB54346  11.562   0.626  -1.655 -0.0226 -0.1004 -0.0775
 1451PEP     CB54347  11.879   0.572  -1.439 -0.0152 -0.0408 -0.0601
 1451PEP     CB54348  12.208   0.449  -1.202  0.1521 -0.2796 -0.0791
 1451PEP     CB54349  12.638   0.658  -1.284  0.0414  0.0460  0.0565
 1451PEP     CB54350  12.738   0.998  -1.629  0.0792 -0.0469 -0.1566
 1451PEP     CB54351  12.640   0.930  -2.050  0.1013 -0.0282  0.2172
 1451PEP     CB54352  12.378   0.742  -2.291 -0.5245  0.2749 -0.1589
 1451PEP     CB54353  12.063   0.746  -2.583  0.1146  0.0746  0.0683
 1451PEP     CB54354  11.600   0.507  -2.654 -0.0384 -0.1194  0.2639
 1451PEP     CB54355  11.590   0.055  -2.838  0.2369  0.2741 -0.0127
 1451PEP     CB54356  11.778  -0.255  -3.073 -0.5986 -0.0928  0.3562
 1451PEP     CB54357  11.818  -0.465  -3.502 -0.0729  0.0079  0.1481
 1451PEP     CB54358  12.156  -0.820  -3.621  0.0349 -0.3062  0.4151
 1451PEP     CB54359  12.272  -1.078  -3.302  0.0475 -0.3058 -0.3686
 1451PEP     CB54360  12.501  -0.941  -2.906 -0.0192 -0.2364 -0.0880
 1452PEP     CB54361   3.186   0.995  16.498 -0.0285  0.1337 -0.0084
 1452PEP     CB54362   3.292   1.497  16.535 -0.2398  0.1016 -0.0131
 1452PEP     CB54363   3.692   1.791  16.631  0.5682  0.2026 -0.0466
 1452PEP     CB54364   4.079   2.012  16.545  0.0883  0.3601  0.0872
 1452PEP     CB54365   4.033   2.442  16.301 -0.1604  0.0921  0.0021
 1452PEP     CB54366   3.632   2.497  16.266  0.2911 -0.2719  0.2943
 1452PEP     CB54367   3.273   2.260  16.191  0.1213 -0.0621  0.3525
 1452PEP     CB54368   2.809   2.229  16.353  0.0579 -0.1927  0.3898
 1452PEP     CB54369   2.740   1.929  16.678  0.2907 -0.4646  0.1581
 1452PEP     CB54370   2.586   1.466  16.684  0.1470  0.4241 -0.1290
 1452PEP     CB54371   2.790   1.119  16.914 -0.1468  0.0360 -0.1625
 1452PEP     CB54372   3.143   1.078  17.073  0.1561 -0.2351  0.2290
 1452PEP     CB54373   3.569   1.251  16.913  0.3416 -0.0835 -0.0442
 1452PEP     CB54374   3.791   1.249  16.598 -0.0566  0.0577 -0.4008
 1452PEP     CB54375   3.921   1.465  16.216  0.0125 -0.5158  0.2127
 1452PEP     CB54376   4.228   1.690  16.194  0.0133 -0.2090 -0.0223
 1452PEP     CB54377   4.583   1.865  15.949  0.2132  0.2484  0.4528
 1452PEP     CB54378   4.849   1.723  15.709  0.5270  0.4003 -0.0896
 1452PEP     CB54379   4.922   1.607  15.302  0.0942  0.0339  0.3652
 1452PEP     CB54380   4.746   1.584  14.931 -0.1680  0.0976 -0.1369
 1452PEP     CB54381   4.417   1.789  14.763 -0.4165 -0.0707  0.0596
 1452PEP     CB54382   4.083   1.964  14.941  0.2750 -0.1270 -0.3043
 1452PEP     CB54383   4.059   2.324  15.322 -0.2078  0.4869  0.0678
 1452PEP     CB54384   4.122   2.611  15.652 -0.0335 -0.2616  0.2852
 1452PEP     CB54385   4.108   3.053  15.790  0.1739 -0.2810  0.0514
 1452PEP     CB54386   4.420   3.459  16.030  0.4141 -0.6746  0.0934
 1452PEP     CB54387   4.499   3.683  16.289 -0.0220  0.1532  0.2806
 1452PEP     CB54388   4.413   3.983  16.651 -0.2254 -0.0791 -0.2142
 1452PEP     CB54389   4.321   4.329  16.792  0.3753  0.2239 -0.0414
 1452PEP     CB54390   3.871   4.572  16.935  0.0079  0.0215  0.3224
 1452PEP     CB54391   3.458   4.500  16.830 -0.0243  0.2281 -0.0822
 1452PEP     CB54392   3.243   4.162  16.675 -0.2879 -0.0941 -0.1074
 1452PEP     CB54393   3.338   3.924  16.338  0.2409  0.1259  0.0165
 1452PEP     CB54394   3.521   3.676  15.939 -0.0635  0.0870 -0.1584
 1452PEP     CB54395   3.997   3.625  15.796  0.1725 -0.2433  0.2967
 1452PEP     CB54396   4.303   3.555  15.483  0.1823 -0.4423  0.2748
 1452PEP     CB54397   4.302   3.199  15.298 -0.0860 -0.0899 -0.0283
 1452PEP     CB54398   3.930   2.865  15.229 -0.3126 -0.1895 -0.0032
 1452PEP     CB54399   3.585   2.799  15.469  0.0059 -0.0703 -0.4741
 1452PEP     CB54400   3.151   2.759  15.649  0.0544  0.0826 -0.4284
 1453PEP     CB54401  14.634  14.415   8.439  0.0498 -0.0785  0.1790
 1453PEP     CB54402  14.907  14.457   8.187  0.1201  0.0844  0.3217
 1453PEP     CB54403  15.176  14.833   8.165  0.1637 -0.2001  0.4951
 1453PEP     CB54404  15.265  15.178   8.490  0.2460  0.3157  0.0273
 1453PEP     CB54405  15.388  15.336   8.860  0.3250 -0.1810  0.0001
 1453PEP     CB54406  15.700  15.616   9.184  0.1456 -0.0685  0.2089
 1453PEP     CB54407  15.980  15.892   9.214  0.2605 -0.6131 -0.1799
 1453PEP     CB54408  16.144  16.278   9.175 -0.0257  0.1222  0.0706
 1453PEP     CB54409  16.449  16.603   9.305  0.0103  0.2473  0.1175
 1453PEP     CB54410  16.830  16.967   9.477  0.0061  0.4010  0.2966
 1453PEP     CB54411  17.239  17.072   9.320  0.3089  0.3730  0.0760
 1453PEP     CB54412  17.469  16.879   8.972  0.3942  0.0298  0.2405
 1453PEP     CB54413  17.901  16.889   8.925 -0.2051  0.0484  0.1859
 1453PEP     CB54414  18.319  16.755   8.837 -0.3311 -0.1056  0.4362
 1453PEP     CB54415  18.719  16.704   8.972 -0.1761  0.0007  0.3804
 1453PEP     CB54416  18.836  16.540   9.353  0.2905  0.4277 -0.1398
 1453PEP     CB54417  18.584  16.480   9.687 -0.1348 -0.1435  0.0287
 1453PEP     CB54418  18.272  16.272   9.731 -0.0638  0.1224 -0.1048
 1453PEP     CB54419  18.022  15.997   9.503 -0.0037 -0.0080  0.1844
 1453PEP     CB54420  18.120  15.927   9.037 -0.0589 -0.1720 -0.1193
 1453PEP     CB54421  18.170  15.847   8.623 -0.1539  0.1330 -0.1985
 1453PEP     CB54422  18.182  15.992   8.201  0.2520  0.1966  0.4668
 1453PEP     CB54423  18.163  16.151   7.813 -0.0961 -0.3365 -0.2856
 1453PEP     CB54424  18.549  16.159   7.489 -0.2083 -0.3743  0.1459
 1453PEP     CB54425  18.665  16.057   6.955 -0.2630 -0.2437  0.2612
 1453PEP     CB54426  18.658  16.272   6.526 -0.0958 -0.0683  0.5823
 1453PEP     CB54427  19.041  16.600   6.363  0.2951 -0.2108 -0.3115
 1453PEP     CB54428  19.348  16.690   6.104 -0.2637 -0.0083  0.0011
 1453PEP     CB54429  19.627  16.806   5.699  0.0755 -0.3040  0.3343
 1453PEP     CB54430  19.875  16.820   5.341 -0.1959  0.1210  0.4877
 1453PEP     CB54431  19.854  16.604   4.900  0.0825  0.0071  0.4513
 1453PEP     CB54432  19.536  16.502   4.594  0.0560  0.1499  0.4609
 1453PEP     CB54433  19.244  16.346   4.315 -0.4639 -0.2726  0.1736
 1453PEP     CB54434  19.100  16.242   3.954 -0.1178 -0.2087  0.1332
 1453PEP     CB54435  19.208  16.596   3.616  0.1910  0.0277 -0.0631
 1453PEP     CB54436  19.290  17.018   3.739  0.1528 -0.0726  0.2858
 1453PEP     CB54437  19.611  17.120   4.163  0.1952  0.0070  0.0834
 1453PEP     CB54438  19.946  16.955   4.240  0.0754  0.0895 -0.3621
 1453PEP     CB54439  20.178  16.703   4.517 -0.0694 -0.0258 -0.0814
 1453PEP     CB54440  20.483  16.428   4.779 -0.1173 -0.1617 -0.0106
 1454PEP     CB54441  12.923   4.588  14.761 -0.3543 -0.2917 -0.1050
 1454PEP     CB54442  13.204   4.889  14.685 -0.1084 -0.0061 -0.0035
 1454PEP     CB54443  13.565   4.864  14.512 -0.2184 -0.0801 -0.2818
 1454PEP     CB54444  13.977   4.703  14.707  0.0079 -0.3389  0.1482
 1454PEP     CB54445  14.211   4.674  15.078  0.0549 -0.3499  0.1659
 1454PEP     CB54446  14.077   4.383  15.416 -0.0830 -0.0338  0.1274
 1454PEP     CB54447  13.728   4.231  15.714 -0.1677 -0.0381  0.3367
 1454PEP     CB54448  13.325   4.130  15.841 -0.0804  0.1669 -0.0009
 1454PEP     CB54449  13.147   3.777  15.969  0.0825  0.2455 -0.2268
 1454PEP     CB54450  13.216   3.358  15.792 -0.0309  0.0775  0.3574
 1454PEP     CB54451  13.482   3.014  15.979  0.3152  0.2007 -0.3012
 1454PEP     CB54452  13.518   2.772  16.449 -0.0075 -0.1802  0.2694
 1454PEP     CB54453  13.371   2.857  16.860  0.0752 -0.0158 -0.0133
 1454PEP     CB54454  13.494   3.208  17.130 -0.0848 -0.1178 -0.3632
 1454PEP     CB54455  13.502   3.702  16.991 -0.0604 -0.0120 -0.0569
 1454PEP     CB54456  13.609   4.137  16.718  0.0945  0.1996 -0.1680
 1454PEP     CB54457  14.068   4.189  16.627  0.5236 -0.4220 -0.1625
 1454PEP     CB54458  14.503   3.980  16.645 -0.0116 -0.0199  0.3347
 1454PEP     CB54459  14.631   3.602  16.373  0.1030  0.4460  0.0029
 1454PEP     CB54460  14.457   3.513  16.025 -0.3974  0.2419  0.1685
 1454PEP     CB54461  14.230   3.573  15.635 -0.1292  0.1281  0.1103
 1454PEP     CB54462  13.875   3.383  15.465  0.0023 -0.1739  0.2523
 1454PEP     CB54463  13.516   3.217  15.447 -0.0326 -0.1896  0.5057
 1454PEP     CB54464  13.110   3.227  15.228 -0.3972 -0.2222 -0.0193
 1454PEP     CB54465  12.635   3.227  14.997 -0.1548  0.1460 -0.3569
 1454PEP     CB54466  12.243   3.258  14.950  0.1430  0.0779 -0.4291
 1454PEP     CB54467  11.810   3.244  15.157 -0.0359 -0.0025  0.0912
 1454PEP     CB54468  11.548   3.506  14.995 -0.2063 -0.1378 -0.1944
 1454PEP     CB54469  11.601   3.630  14.491 -0.0563 -0.1040 -0.2405
 1454PEP     CB54470  11.812   3.898  14.141  0.1362 -0.3445 -0.0809
 1454PEP     CB54471  12.022   4.236  14.006 -0.3434 -0.1994 -0.0752
 1454PEP     CB54472  11.858   4.603  14.109 -0.3186 -0.1606  0.0472
 1454PEP     CB54473  11.482   4.654  14.038 -0.1141  0.0039  0.3104
 1454PEP     CB54474  11.309   4.579  13.719  0.1236  0.0725  0.1680
 1454PEP     CB54475  11.080   4.516  13.251 -0.1301 -0.0763  0.0314
 1454PEP     CB54476  10.911   4.349  12.831  0.3538  0.2486 -0.2232
 1454PEP     CB54477  10.802   4.196  12.395 -0.0414 -0.1452 -0.1570
 1454PEP     CB54478  10.772   3.983  11.966  0.0664 -0.2573  0.2358
 1454PEP     CB54479  10.604   3.530  11.963 -0.3703  0.2341 -0.3579
 1454PEP     CB54480  10.336   3.324  12.317 -0.1595  0.0920  0.1833
 1455PEP     CB54481   1.191  11.279   5.857 -0.0585 -0.2929  0.1120
 1455PEP     CB54482   1.323  11.670   5.853  0.2079  0.1918  0.2545
 1455PEP     CB54483   1.496  12.054   5.974 -0.2259 -0.0530 -0.0785
 1455PEP     CB54484   1.641  12.553   6.040  0.0965 -0.3375  0.0171
 1455PEP     CB54485   2.005  12.771   6.286 -0.1292 -0.0237  0.2148
 1455PEP     CB54486   2.292  13.167   6.386 -0.0288 -0.0132  0.2443
 1455PEP     CB54487   2.603  13.448   6.534 -0.0957  0.0411 -0.0500
 1455PEP     CB54488   2.836  13.739   6.352 -0.0429  0.2232 -0.2218
 1455PEP     CB54489   2.899  14.096   6.105 -0.4559 -0.3129 -0.1623
 1455PEP     CB54490   3.218  14.395   6.001 -0.0531  0.3212 -0.0948
 1455PEP     CB54491   3.276  14.668   5.808 -0.0333  0.2220 -0.7854
 1455PEP     CB54492   3.245  15.055   5.786 -0.2166 -0.0657  0.1529
 1455PEP     CB54493   3.041  15.355   6.197  0.0692  0.2396  0.4454
 1455PEP     CB54494   2.731  15.148   6.461 -0.0209 -0.0086  0.0833
 1455PEP     CB54495   2.448  14.816   6.559  0.0123 -0.0692  0.5429
 1455PEP     CB54496   2.190  14.648   6.312  0.0423  0.0128 -0.2571
 1455PEP     CB54497   2.159  14.727   5.784  0.3742 -0.3207  0.0268
 1455PEP     CB54498   2.417  14.989   5.539  0.0756  0.0632  0.0517
 1455PEP     CB54499   2.751  14.938   5.389  0.4874  0.1066  0.3522
 1455PEP     CB54500   3.140  14.672   5.204 -0.0918  0.0205  0.1397
 1455PEP     CB54501   3.565  14.728   5.048 -0.0242 -0.0141  0.0318
 1455PEP     CB54502   3.947  14.646   4.799  0.2476  0.1175 -0.3885
 1455PEP     CB54503   4.380  14.512   4.666  0.2069  0.3570  0.3539
 1455PEP     CB54504   4.593  14.654   4.342  0.3800  0.3560  0.0002
 1455PEP     CB54505   4.522  15.022   3.992  0.1480 -0.4964 -0.0877
 1455PEP     CB54506   4.430  15.381   4.074 -0.2035  0.1411 -0.2424
 1455PEP     CB54507   4.366  15.868   4.223  0.0477 -0.1950 -0.2071
 1455PEP     CB54508   4.271  16.201   4.559  0.0555 -0.1455  0.2461
 1455PEP     CB54509   4.193  16.589   4.838 -0.0607  0.0721 -0.1100
 1455PEP     CB54510   4.149  16.953   5.083 -0.1409 -0.0369  0.3293
 1455PEP     CB54511   3.897  17.335   5.231  0.0579  0.3297 -0.0168
 1455PEP     CB54512   3.864  17.485   5.662  0.2168  0.2086  0.0835
 1455PEP     CB54513   3.596  17.731   5.829  0.0459 -0.2927 -0.4335
 1455PEP     CB54514   3.620  18.129   5.779  0.1437  0.1188  0.1361
 1455PEP     CB54515   3.530  18.379   5.423 -0.3504  0.1793  0.1986
 1455PEP     CB54516   3.358  18.646   5.101  0.3877  0.0300  0.2857
 1455PEP     CB54517   3.355  19.073   4.891 -0.5900  0.1302 -0.0802
 1455PEP     CB54518   3.488  19.431   4.740 -0.1611 -0.0188  0.3269
 1455PEP     CB54519   3.442  19.941   4.818  0.2928  0.2674  0.0360
 1455PEP     CB54520   3.347  20.330   4.904 -0.0285 -0.1475 -0.0129
 1456PEP     CB54521   2.213   2.046  11.424 -0.1155 -0.1597 -0.3164
 1456PEP     CB54522   2.234   2.045  11.111 -0.0928 -0.5618  0.0904
 1456PEP     CB54523   2.005   2.171  10.789  0.2003  0.0655 -0.1131
 1456PEP     CB54524   1.834   2.086  10.361 -0.0178 -0.0363 -0.2122
 1456PEP     CB54525   1.870   1.791  10.031  0.1602 -0.0877 -0.2100
 1456PEP     CB54526   1.673   1.587   9.682 -0.3933 -0.4027 -0.4193
 1456PEP     CB54527   1.608   1.655   9.216  0.2823 -0.0690  0.0638
 1456PEP     CB54528   1.779   1.525   8.801  0.1279 -0.2665  0.0360
 1456PEP     CB54529   1.567   1.237   8.530  0.0927 -0.3778 -0.0749
 1456PEP     CB54530   1.210   0.790   8.337  0.2944 -0.1775  0.1472
 1456PEP     CB54531   1.184   0.412   8.445 -0.2765  0.2753 -0.2556
 1456PEP     CB54532   1.494   0.300   8.779 -0.2824 -0.1961  0.0089
 1456PEP     CB54533   1.823   0.638   8.968 -0.2727 -0.0649 -0.2538
 1456PEP     CB54534   1.956   0.900   8.711  0.1954 -0.2017  0.1065
 1456PEP     CB54535   2.050   0.872   8.263  0.2193 -0.0534 -0.1707
 1456PEP     CB54536   2.328   0.549   8.022  0.3024 -0.1289 -0.2766
 1456PEP     CB54537   2.340   0.093   8.072  0.3205 -0.1236 -0.0361
 1456PEP     CB54538   2.402  -0.319   8.295 -0.5022  0.2166  0.0718
 1456PEP     CB54539   2.302  -0.727   8.518  0.1111  0.0783  0.1662
 1456PEP     CB54540   2.547  -1.012   8.704 -0.3684  0.3392 -0.0998
 1456PEP     CB54541   2.945  -1.114   8.694  0.0882 -0.2372  0.4298
 1456PEP     CB54542   3.373  -1.029   8.685  0.2327  0.1864 -0.1531
 1456PEP     CB54543   3.586  -1.215   8.430  0.0026 -0.2770  0.0613
 1456PEP     CB54544   3.571  -1.646   8.170 -0.0446  0.1704 -0.0295
 1456PEP     CB54545   3.476  -1.982   7.868  0.1308  0.2326  0.3371
 1456PEP     CB54546   3.416  -1.891   7.407 -0.2382 -0.0231  0.0105
 1456PEP     CB54547   3.328  -2.055   6.994  0.0344  0.0423  0.1865
 1456PEP     CB54548   3.228  -1.950   6.545 -0.0165  0.1158  0.2327
 1456PEP     CB54549   2.926  -1.800   6.335  0.0352  0.1314 -0.5078
 1456PEP     CB54550   2.618  -1.528   6.275  0.0548 -0.2030 -0.0817
 1456PEP     CB54551   2.324  -1.245   6.462 -0.0157  0.0113  0.0026
 1456PEP     CB54552   1.969  -1.093   6.645  0.0229 -0.1258 -0.1585
 1456PEP     CB54553   1.623  -0.933   6.843 -0.1412 -0.2077  0.0339
 1456PEP     CB54554   1.243  -0.713   6.703  0.5076 -0.2294  0.1706
 1456PEP     CB54555   0.946  -0.502   6.778 -0.0202 -0.4259 -0.0934
 1456PEP     CB54556   0.540  -0.518   6.973  0.0287 -0.2019 -0.1551
 1456PEP     CB54557   0.107  -0.412   7.055 -0.1387  0.2799 -0.2446
 1456PEP     CB54558  -0.057  -0.359   7.558 -0.0350  0.0306 -0.0208
 1456PEP     CB54559  -0.234  -0.612   7.845 -0.3824 -0.0856 -0.5727
 1456PEP     CB54560  -0.534  -0.643   8.183 -0.1292 -0.0757  0.0482
 1457PEP     CB54561  14.035  14.466  21.808 -0.2183 -0.0279 -0.4456
 1457PEP     CB54562  14.260  14.090  21.909 -0.1913  0.0164  0.0353
 1457PEP     CB54563  14.716  13.916  21.884 -0.0976 -0.1108  0.0136
 1457PEP     CB54564  15.136  13.799  21.906 -0.1496 -0.0136 -0.0841
 1457PEP     CB54565  15.539  13.931  21.992  0.0463  0.1659 -0.1754
 1457PEP     CB54566  15.932  13.822  21.960 -0.2838  0.3370  0.3646
 1457PEP     CB54567  16.297  14.114  22.024 -0.0347  0.3574 -0.0204
 1457PEP     CB54568  16.344  14.439  21.654  0.0028 -0.1002 -0.1631
 1457PEP     CB54569  16.153  14.501  21.228 -0.0594 -0.0740  0.0065
 1457PEP     CB54570  15.848  14.416  20.944  0.1186 -0.4814 -0.1692
 1457PEP     CB54571  15.421  14.207  21.032  0.0825  0.0995 -0.1070
 1457PEP     CB54572  15.182  14.152  21.464  0.5140 -0.4619 -0.0487
 1457PEP     CB54573  14.958  14.346  21.838 -0.1936  0.3110  0.0406
 1457PEP     CB54574  14.865  14.792  22.028  0.1057 -0.0875 -0.0080
 1457PEP     CB54575  15.008  15.217  21.892 -0.2245  0.0905 -0.2360
 1457PEP     CB54576  14.937  15.590  21.728  0.1079  0.1302 -0.0097
 1457PEP     CB54577  14.696  15.808  21.472  0.1736  0.2019  0.2059
 1457PEP     CB54578  14.541  15.666  21.002 -0.1675 -0.2733  0.0633
 1457PEP     CB54579  14.652  15.737  20.590 -0.1398  0.0878  0.0765
 1457PEP     CB54580  14.942  15.676  20.188 -0.0152  0.2980 -0.2836
 1457PEP     CB54581  15.255  15.385  20.036  0.2113 -0.1898  0.2427
 1457PEP     CB54582  15.593  15.170  20.009 -0.2209  0.1825 -0.2007
 1457PEP     CB54583  15.933  15.015  19.764 -0.0510  0.4252 -0.0325
 1457PEP     CB54584  16.294  15.103  19.643 -0.0534 -0.1217 -0.0926
 1457PEP     CB54585  16.715  15.147  19.802 -0.0463  0.1492 -0.4059
 1457PEP     CB54586  17.066  14.863  19.860 -0.1195 -0.0167 -0.1523
 1457PEP     CB54587  17.238  14.590  20.094  0.0092  0.3251 -0.0750
 1457PEP     CB54588  17.241  14.645  20.488  0.3675  0.0139 -0.2227
 1457PEP     CB54589  16.939  14.665  20.828  0.2195  0.1542 -0.1482
 1457PEP     CB54590  16.717  14.632  21.222 -0.3149  0.0433  0.1769
 1457PEP     CB54591  16.678  14.805  21.602 -0.2625  0.0273 -0.0255
 1457PEP     CB54592  16.578  14.977  21.966 -0.0129 -0.1811  0.2549
 1457PEP     CB54593  16.681  15.243  22.280  0.3366 -0.2705  0.0893
 1457PEP     CB54594  16.732  15.663  22.567  0.3438 -0.4219 -0.0002
 1457PEP     CB54595  17.152  15.717  22.871  0.1021 -0.1412 -0.0435
 1457PEP     CB54596  17.594  15.604  23.015  0.2394 -0.0395  0.0162
 1457PEP     CB54597  17.694  15.353  23.450 -0.2523 -0.0377  0.1114
 1457PEP     CB54598  17.516  15.513  23.765  0.1313  0.1473  0.0617
 1457PEP     CB54599  17.062  15.709  23.885  0.3026 -0.1804  0.3147
 1457PEP     CB54600  16.606  15.759  23.809  0.0266 -0.1438  0.2150
 1458PEP     CB54601  14.444  17.661   1.881  0.1843 -0.2091 -0.0755
 1458PEP     CB54602  14.767  17.426   2.030  0.0810 -0.1461  0.1037
 1458PEP     CB54603  15.084  17.499   2.207 -0.0654 -0.0237  0.1229
 1458PEP     CB54604  15.116  17.910   2.430 -0.0698  0.4440 -0.2033
 1458PEP     CB54605  14.766  18.149   2.662 -0.2490 -0.1410  0.3523
 1458PEP     CB54606  14.292  18.059   2.608 -0.0490 -0.0846  0.1999
 1458PEP     CB54607  14.104  17.730   2.248 -0.0060  0.0817 -0.0085
 1458PEP     CB54608  13.890  17.539   1.905 -0.3126  0.4512 -0.3992
 1458PEP     CB54609  13.469  17.524   1.760 -0.0135 -0.4513 -0.1768
 1458PEP     CB54610  13.014  17.538   1.633 -0.1621  0.0322  0.5116
 1458PEP     CB54611  12.704  17.269   1.557  0.1767  0.1607  0.2033
 1458PEP     CB54612  12.558  16.884   1.416 -0.6823 -0.0833  0.2642
 1458PEP     CB54613  12.250  16.684   1.060  0.1026  0.3871  0.1653
 1458PEP     CB54614  12.235  16.435   0.699 -0.3681 -0.0349 -0.0537
 1458PEP     CB54615  12.505  16.106   0.630 -0.0362  0.1233  0.1291
 1458PEP     CB54616  12.906  15.948   0.903  0.1016  0.1098  0.1985
 1458PEP     CB54617  12.950  16.130   1.275  0.0600 -0.0246  0.1730
 1458PEP     CB54618  13.092  16.581   1.229  0.1338 -0.0852 -0.1498
 1458PEP     CB54619  12.869  16.837   1.018  0.3912  0.1839  0.7119
 1458PEP     CB54620  12.548  16.862   0.672 -0.3023  0.0100  0.0410
 1458PEP     CB54621  12.111  16.860   0.552  0.1004  0.1610  0.1482
 1458PEP     CB54622  11.874  17.263   0.330  0.0003  0.0675 -0.0256
 1458PEP     CB54623  11.827  17.699   0.289  0.0082  0.2219 -0.0708
 1458PEP     CB54624  11.665  18.099   0.450  0.3527  0.0697 -0.1232
 1458PEP     CB54625  11.451  18.441   0.616  0.1140  0.1496 -0.3876
 1458PEP     CB54626  11.498  18.867   0.761 -0.0827  0.1387 -0.2560
 1458PEP     CB54627  11.851  19.144   0.624  0.2472 -0.0029  0.1778
 1458PEP     CB54628  12.042  19.417   0.254  0.2346 -0.4616 -0.2420
 1458PEP     CB54629  12.082  19.679  -0.103 -0.0451  0.3060 -0.0228
 1458PEP     CB54630  11.953  19.968  -0.441  0.1200 -0.0097  0.2391
 1458PEP     CB54631  12.003  20.122  -0.809 -0.2703  0.2332  0.1592
 1458PEP     CB54632  12.170  20.441  -1.089  0.1933  0.2282 -0.4322
 1458PEP     CB54633  12.657  20.665  -1.140 -0.0500  0.0371  0.0197
 1458PEP     CB54634  12.930  20.869  -0.881 -0.4007 -0.0729 -0.0950
 1458PEP     CB54635  13.301  20.881  -0.557  0.0972 -0.1351  0.0870
 1458PEP     CB54636  13.526  20.776  -0.377  0.2368 -0.1080 -0.0815
 1458PEP     CB54637  13.557  20.767   0.082 -0.1134 -0.1180  0.4852
 1458PEP     CB54638  13.629  21.017   0.480  0.0455  0.0037 -0.3069
 1458PEP     CB54639  13.435  21.227   0.726 -0.2349  0.0693 -0.0036
 1458PEP     CB54640  13.090  21.496   0.984 -0.0292  0.4554 -0.2695
 1459PEP     CB54641   6.433   2.628  20.482 -0.1861 -0.2684 -0.2525
 1459PEP     CB54642   6.560   2.361  20.068  0.3501  0.1217  0.0487
 1459PEP     CB54643   6.503   2.026  19.827  0.0861 -0.0576  0.1462
 1459PEP     CB54644   6.409   1.634  19.663 -0.1036 -0.0437  0.0541
 1459PEP     CB54645   6.426   1.269  19.920 -0.0248  0.1891 -0.0796
 1459PEP     CB54646   6.233   0.833  20.206 -0.0188 -0.0568  0.0567
 1459PEP     CB54647   6.184   0.329  20.186  0.0745  0.3123  0.1945
 1459PEP     CB54648   6.457  -0.007  20.410 -0.0129  0.2611  0.1574
 1459PEP     CB54649   6.906   0.051  20.295 -0.2155  0.0559  0.4234
 1459PEP     CB54650   6.981   0.339  19.805 -0.1433  0.0408 -0.1857
 1459PEP     CB54651   6.800   0.497  19.449  0.1637 -0.0374 -0.3166
 1459PEP     CB54652   6.542   0.471  19.080  0.0998 -0.0765 -0.1688
 1459PEP     CB54653   6.156   0.430  19.010 -0.0465 -0.0613 -0.0172
 1459PEP     CB54654   5.902   0.016  19.098 -0.0239 -0.0329 -0.2472
 1459PEP     CB54655   5.590  -0.283  19.312 -0.0695  0.0502 -0.0922
 1459PEP     CB54656   5.646  -0.663  19.669 -0.0903  0.1258 -0.0034
 1459PEP     CB54657   5.547  -0.852  20.160 -0.1565 -0.0430 -0.0549
 1459PEP     CB54658   5.549  -1.275  20.178 -0.1168 -0.1731 -0.0030
 1459PEP     CB54659   5.841  -1.564  19.995 -0.1225 -0.0319  0.0585
 1459PEP     CB54660   5.993  -1.880  19.707 -0.0536  0.0240 -0.1113
 1459PEP     CB54661   5.912  -1.979  19.348  0.2816 -0.5888 -0.0393
 1459PEP     CB54662   5.734  -2.042  18.901  0.1642 -0.1754 -0.4852
 1459PEP     CB54663   5.470  -1.883  18.688 -0.1391  0.2971  0.0467
 1459PEP     CB54664   5.508  -1.363  18.568  0.2255  0.0763  0.0710
 1459PEP     CB54665   5.621  -1.086  18.954 -0.0143  0.2061  0.4104
 1459PEP     CB54666   5.595  -1.127  19.359 -0.0572 -0.2584 -0.0410
 1459PEP     CB54667   5.494  -1.452  19.684  0.2057  0.0781 -0.0657
 1459PEP     CB54668   5.437  -1.927  19.863 -0.0393 -0.1450  0.1472
 1459PEP     CB54669   5.607  -2.407  19.718  0.1643 -0.1361 -0.0090
 1459PEP     CB54670   6.060  -2.426  19.664  0.0002 -0.0129  0.4022
 1459PEP     CB54671   6.401  -2.187  19.595  0.0504 -0.0107 -0.3820
 1459PEP     CB54672   6.648  -2.163  19.211 -0.1733 -0.0431 -0.2344
 1459PEP     CB54673   6.657  -2.195  18.741 -0.0662  0.4200 -0.0817
 1459PEP     CB54674   6.754  -2.534  18.355 -0.2164  0.1764  0.3324
 1459PEP     CB54675   7.038  -2.959  18.360 -0.0341  0.0068  0.0682
 1459PEP     CB54676   7.111  -3.197  18.652  0.1758 -0.2324  0.0297
 1459PEP     CB54677   7.325  -3.332  18.889 -0.1464 -0.3578  0.1658
 1459PEP     CB54678   7.676  -3.315  19.159 -0.1325  0.2844  0.0249
 1459PEP     CB54679   7.681  -3.305  19.531 -0.0613 -0.3184  0.4829
 1459PEP     CB54680   7.774  -3.447  19.956 -0.0440  0.0167  0.0805
 1460PEP     CB54681   1.895  10.862  17.165  0.1392 -0.0877  0.0401
 1460PEP     CB54682   1.900  11.292  17.069 -0.3510 -0.3509 -0.2485
 1460PEP     CB54683   1.932  11.632  17.411 -0.1870  0.0710  0.1071
 1460PEP     CB54684   1.894  11.529  17.848  0.0712 -0.2138  0.1125
 1460PEP     CB54685   1.972  11.047  18.001 -0.1202 -0.1380 -0.1166
 1460PEP     CB54686   2.193  10.673  18.149  0.3975  0.0526 -0.0130
 1460PEP     CB54687   2.080  10.403  18.433  0.1823 -0.0667  0.2350
 1460PEP     CB54688   2.177  10.053  18.699  0.0908 -0.2740  0.1350
 1460PEP     CB54689   2.236   9.989  19.177 -0.5043  0.3363 -0.0031
 1460PEP     CB54690   2.019   9.931  19.497 -0.0025 -0.1554  0.4370
 1460PEP     CB54691   1.869   9.945  19.850 -0.0670  0.1689  0.0699
 1460PEP     CB54692   1.512   9.817  19.971 -0.3654  0.1972 -0.1371
 1460PEP     CB54693   1.126   9.802  19.714 -0.1896 -0.0865 -0.1853
 1460PEP     CB54694   1.005   9.583  19.343  0.2178 -0.1131  0.2521
 1460PEP     CB54695   1.110   9.694  18.888  0.0864 -0.2694 -0.2699
 1460PEP     CB54696   1.052  10.070  18.664 -0.0619  0.0840 -0.0401
 1460PEP     CB54697   1.068  10.428  18.253 -0.4236  0.2285  0.0530
 1460PEP     CB54698   0.727  10.626  17.942 -0.0516  0.0420  0.0586
 1460PEP     CB54699   0.460  10.736  18.098  0.0310  0.3378 -0.1078
 1460PEP     CB54700   0.434  10.836  18.609  0.1045 -0.1763  0.3947
 1460PEP     CB54701   0.801  10.784  18.860 -0.0363 -0.2441 -0.0457
 1460PEP     CB54702   1.179  10.682  18.596  0.2804 -0.3773  0.1157
 1460PEP     CB54703   1.313  10.870  18.213 -0.3128 -0.0425  0.1697
 1460PEP     CB54704   1.459  11.231  18.017  0.0011  0.0612  0.4617
 1460PEP     CB54705   1.511  11.361  17.583 -0.2529  0.0376 -0.2954
 1460PEP     CB54706   1.431  11.629  17.301 -0.3842  0.1309 -0.0839
 1460PEP     CB54707   1.437  11.976  16.945  0.1733 -0.0195  0.5344
 1460PEP     CB54708   1.455  11.980  16.522 -0.1286 -0.0582  0.1510
 1460PEP     CB54709   1.285  11.936  16.131  0.0829  0.3215 -0.3657
 1460PEP     CB54710   1.042  12.168  15.857  0.2455  0.1290 -0.0133
 1460PEP     CB54711   0.667  12.156  15.671 -0.3551 -0.1885  0.1095
 1460PEP     CB54712   0.539  11.754  15.361  0.2075  0.0743  0.0858
 1460PEP     CB54713   0.375  11.311  15.360 -0.2682  0.0476 -0.1597
 1460PEP     CB54714   0.245  10.853  15.553  0.0799  0.1668  0.1846
 1460PEP     CB54715   0.118  10.691  16.022 -0.2327 -0.1545  0.1249
 1460PEP     CB54716  -0.009  10.371  16.284 -0.1415 -0.5039 -0.1298
 1460PEP     CB54717  -0.010   9.878  16.291 -0.1100  0.3997  0.0511
 1460PEP     CB54718  -0.026   9.477  16.420  0.4399 -0.3320 -0.6848
 1460PEP     CB54719  -0.257   9.302  16.785  0.1077  0.1155 -0.0195
 1460PEP     CB54720  -0.631   9.347  17.054  0.0511  0.0186 -0.0430
 1461PEP     CB54721  12.584  11.454   5.859  0.0052  0.1763 -0.2894
 1461PEP     CB54722  12.476  11.442   5.420 -0.3571  0.0337 -0.5351
 1461PEP     CB54723  12.521  11.615   5.105 -0.4421  0.1241  0.3680
 1461PEP     CB54724  12.707  11.970   4.955 -0.0733 -0.2514 -0.4173
 1461PEP     CB54725  12.674  12.426   4.826  0.0176  0.1074  0.2843
 1461PEP     CB54726  12.691  12.904   4.681 -0.3974  0.1298  0.0788
 1461PEP     CB54727  12.433  13.311   4.634  0.0742  0.1838  0.1844
 1461PEP     CB54728  12.168  13.563   5.032 -0.1759 -0.2572  0.2322
 1461PEP     CB54729  12.070  13.226   5.410 -0.3057 -0.0002  0.0214
 1461PEP     CB54730  12.364  12.969   5.592  0.1857  0.0483  0.1895
 1461PEP     CB54731  12.779  12.873   5.501 -0.1237 -0.0215 -0.2098
 1461PEP     CB54732  13.025  12.449   5.370  0.0807  0.0328 -0.1140
 1461PEP     CB54733  12.834  12.029   5.471  0.5767 -0.2236 -0.0552
 1461PEP     CB54734  12.407  11.952   5.709 -0.0040 -0.3556  0.0991
 1461PEP     CB54735  11.977  11.937   5.922  0.0739 -0.3406 -0.2647
 1461PEP     CB54736  11.777  11.681   6.278  0.2383  0.1231 -0.3615
 1461PEP     CB54737  11.541  11.443   6.429 -0.4595 -0.3656  0.0154
 1461PEP     CB54738  11.215  11.122   6.431  0.1078 -0.3795  0.3532
 1461PEP     CB54739  11.032  10.962   6.139 -0.1893 -0.1480  0.0297
 1461PEP     CB54740  11.020  11.066   5.759 -0.2402 -0.0754  0.0580
 1461PEP     CB54741  11.196  10.877   5.400 -0.1868 -0.1306 -0.0259
 1461PEP     CB54742  11.484  10.505   5.478  0.1745  0.2874 -0.2014
 1461PEP     CB54743  11.445  10.398   5.908 -0.0686 -0.1242  0.1478
 1461PEP     CB54744  11.727  10.576   6.284 -0.3823 -0.1677 -0.1487
 1461PEP     CB54745  12.037  10.867   6.399  0.2041 -0.0074 -0.1385
 1461PEP     CB54746  12.370  11.096   6.221  0.0729 -0.7549 -0.2933
 1461PEP     CB54747  12.746  11.185   6.310  0.0600 -0.1870  0.0634
 1461PEP     CB54748  13.163  11.048   6.515 -0.1286  0.2395  0.3047
 1461PEP     CB54749  13.518  11.147   6.407 -0.1125 -0.0103 -0.2043
 1461PEP     CB54750  13.782  11.221   6.053  0.2027 -0.0271  0.0060
 1461PEP     CB54751  13.885  11.439   5.655 -0.1268  0.2188  0.2100
 1461PEP     CB54752  13.947  11.482   5.300  0.0618 -0.2947 -0.0372
 1461PEP     CB54753  13.996  11.470   4.944  0.4403 -0.3879  0.2398
 1461PEP     CB54754  14.214  11.332   4.532 -0.1371 -0.0671 -0.0552
 1461PEP     CB54755  14.462  11.243   4.250 -0.0477  0.0748 -0.1176
 1461PEP     CB54756  14.582  11.533   3.906 -0.2211 -0.1951 -0.0793
 1461PEP     CB54757  14.489  12.020   3.914  0.4260 -0.1254 -0.1102
 1461PEP     CB54758  14.095  12.216   4.017 -0.2701  0.0333 -0.3802
 1461PEP     CB54759  13.744  11.908   4.188  0.1778  0.0023  0.4198
 1461PEP     CB54760  13.793  11.566   4.488 -0.2570  0.0199 -0.2175
 1462PEP     CB54761   8.165  16.074   1.973  0.0009  0.1231  0.4774
 1462PEP     CB54762   8.623  16.105   2.154 -0.3076 -0.2818  0.0023
 1462PEP     CB54763   9.035  15.759   2.192  0.0961 -0.1012  0.1902
 1462PEP     CB54764   9.177  15.632   2.547 -0.3407 -0.0039  0.1995
 1462PEP     CB54765   8.931  15.406   2.850 -0.3745  0.2948 -0.3207
 1462PEP     CB54766   8.525  15.138   2.806  0.2859  0.3052  0.0353
 1462PEP     CB54767   8.202  14.884   2.948 -0.0854 -0.2980 -0.1509
 1462PEP     CB54768   7.927  14.551   2.974  0.0298  0.1733 -0.1937
 1462PEP     CB54769   7.605  14.375   3.286  0.1520  0.0749  0.1791
 1462PEP     CB54770   7.202  14.207   3.372  0.2965 -0.1617  0.1058
 1462PEP     CB54771   6.889  14.062   3.264 -0.0361  0.1321 -0.1161
 1462PEP     CB54772   6.785  13.654   3.325 -0.1300 -0.0660  0.0783
 1462PEP     CB54773   7.028  13.357   3.438 -0.1406  0.3068 -0.4670
 1462PEP     CB54774   7.248  13.017   3.215 -0.0631  0.3441  0.2359
 1462PEP     CB54775   7.383  12.587   3.250  0.1824 -0.4690  0.2259
 1462PEP     CB54776   7.828  12.568   3.482  0.0910  0.0780  0.1967
 1462PEP     CB54777   8.173  12.791   3.445 -0.0978 -0.3020 -0.3300
 1462PEP     CB54778   8.538  12.949   3.286  0.2404  0.2142 -0.1392
 1462PEP     CB54779   8.896  12.728   3.306  0.5900 -0.1893 -0.0630
 1462PEP     CB54780   9.112  12.304   3.557  0.2659 -0.2016  0.0367
 1462PEP     CB54781   8.990  12.146   3.967  0.1238  0.1243  0.2058
 1462PEP     CB54782   8.691  12.300   4.256 -0.4280  0.2837  0.3151
 1462PEP     CB54783   8.218  12.316   4.159 -0.5715  0.1073  0.2325
 1462PEP     CB54784   7.982  12.168   3.794  0.1183  0.2088 -0.1816
 1462PEP     CB54785   8.110  11.950   3.373  0.0404  0.0176 -0.2428
 1462PEP     CB54786   8.414  11.969   3.000  0.1706  0.0949 -0.2870
 1462PEP     CB54787   8.593  12.228   2.677 -0.2446 -0.3181  0.0258
 1462PEP     CB54788   8.707  12.469   2.252  0.8125 -0.1110 -0.2573
 1462PEP     CB54789   8.848  12.720   2.006 -0.2698 -0.0392  0.0699
 1462PEP     CB54790   9.225  12.706   1.779  0.0043  0.2372 -0.1456
 1462PEP     CB54791   9.615  12.534   1.720  0.1186 -0.0411  0.2178
 1462PEP     CB54792  10.134  12.501   1.707 -0.1453  0.0782  0.2973
 1462PEP     CB54793  10.339  12.441   2.187 -0.0807  0.1785 -0.5086
 1462PEP     CB54794  10.108  12.545   2.614 -0.0584 -0.1821 -0.5758
 1462PEP     CB54795   9.606  12.547   2.611  0.1546  0.0028  0.1429
 1462PEP     CB54796   9.349  12.560   2.306  0.3053  0.2962 -0.0319
 1462PEP     CB54797   9.168  12.239   1.924  0.1496  0.0065  0.4851
 1462PEP     CB54798   9.332  12.126   1.470  0.3082 -0.2561 -0.1348
 1462PEP     CB54799   9.568  12.162   1.119  0.0764 -0.6267  0.2093
 1462PEP     CB54800   9.709  11.979   0.773 -0.1591  0.1476 -0.3076
 1463PEP     CB54801   3.166  15.246   7.262  0.4271  0.3618  0.2176
 1463PEP     CB54802   2.907  15.295   7.572 -0.1111 -0.1230  0.1276
 1463PEP     CB54803   2.644  15.224   7.887 -0.1979 -0.0009  0.1979
 1463PEP     CB54804   2.457  15.134   8.269  0.0668 -0.0675 -0.0911
 1463PEP     CB54805   2.306  15.055   8.611  0.0740  0.2879  0.1444
 1463PEP     CB54806   2.176  15.332   8.950 -0.2242  0.1041 -0.0389
 1463PEP     CB54807   1.896  15.674   8.985 -0.3309  0.0041 -0.0616
 1463PEP     CB54808   1.670  16.010   8.690 -0.4235 -0.0460  0.0210
 1463PEP     CB54809   1.283  16.224   8.548  0.1695 -0.1290 -0.1247
 1463PEP     CB54810   0.902  16.267   8.349  0.2091  0.0180  0.2843
 1463PEP     CB54811   0.581  16.196   8.069  0.1339 -0.0568 -0.2885
 1463PEP     CB54812   0.484  16.122   7.668 -0.0592 -0.0701  0.0291
 1463PEP     CB54813   0.583  16.016   7.240 -0.2947 -0.0878 -0.1472
 1463PEP     CB54814   0.580  15.732   6.889  0.1598  0.1148  0.0808
 1463PEP     CB54815   0.699  15.636   6.552 -0.2266  0.0238 -0.0181
 1463PEP     CB54816   1.114  15.512   6.368  0.1615  0.1720 -0.0657
 1463PEP     CB54817   1.424  15.309   6.661 -0.0977 -0.5023 -0.4001
 1463PEP     CB54818   1.285  14.985   6.930 -0.4651 -0.2366 -0.1788
 1463PEP     CB54819   0.825  14.793   6.994 -0.2361  0.3122  0.1699
 1463PEP     CB54820   0.472  14.583   6.738 -0.1417 -0.0455 -0.2586
 1463PEP     CB54821   0.246  14.721   6.378 -0.0103  0.2465  0.3103
 1463PEP     CB54822   0.233  14.861   5.953 -0.1969  0.0563 -0.0408
 1463PEP     CB54823   0.143  14.937   5.507  0.0482  0.0035  0.1843
 1463PEP     CB54824   0.080  15.045   5.112  0.2226 -0.4408 -0.0997
 1463PEP     CB54825   0.260  14.755   4.857 -0.0575  0.2391  0.0939
 1463PEP     CB54826   0.468  14.385   5.101 -0.2457 -0.0136  0.1154
 1463PEP     CB54827   0.662  14.126   5.382  0.0506  0.4758  0.1949
 1463PEP     CB54828   1.085  13.997   5.244 -0.3444  0.3818  0.0936
 1463PEP     CB54829   1.519  14.004   5.010 -0.0244  0.1438  0.1539
 1463PEP     CB54830   1.588  13.847   4.538 -0.0217 -0.2719 -0.1823
 1463PEP     CB54831   1.629  13.945   4.161 -0.1932 -0.5719  0.3074
 1463PEP     CB54832   1.623  13.866   3.711  0.0076  0.0366 -0.0299
 1463PEP     CB54833   1.682  13.751   3.295  0.1956 -0.4453  0.0206
 1463PEP     CB54834   1.706  13.495   2.897  0.1039  0.1775 -0.1739
 1463PEP     CB54835   1.697  13.142   2.835 -0.0961 -0.2417 -0.2705
 1463PEP     CB54836   1.338  12.827   2.821  0.1116 -0.1450 -0.0743
 1463PEP     CB54837   0.950  12.779   2.537 -0.3368  0.2459  0.1645
 1463PEP     CB54838   0.821  13.131   2.284 -0.0797 -0.1146 -0.2559
 1463PEP     CB54839   0.906  13.585   2.325  0.2424  0.3272  0.1412
 1463PEP     CB54840   1.049  13.799   2.644  0.6548  0.3244 -0.3816
 1464PEP     CB54841  10.185  12.713  18.684  0.2030  0.0670  0.2089
 1464PEP     CB54842  10.151  12.510  18.325 -0.1454 -0.3125 -0.2102
 1464PEP     CB54843  10.362  12.402  17.968 -0.1246  0.2304 -0.1624
 1464PEP     CB54844  10.237  12.433  17.594  0.1944 -0.1279  0.2930
 1464PEP     CB54845  10.107  12.758  17.288  0.0817 -0.3264  0.2708
 1464PEP     CB54846  10.018  13.114  17.430 -0.2586  0.2957 -0.0202
 1464PEP     CB54847   9.858  13.255  17.783 -0.3901  0.5966 -0.4796
 1464PEP     CB54848  10.118  13.480  18.033  0.4129  0.3741  0.3585
 1464PEP     CB54849  10.614  13.429  17.976  0.3172  0.1604  0.1207
 1464PEP     CB54850  10.824  13.174  17.669  0.0238  0.0954  0.2073
 1464PEP     CB54851  10.683  12.880  17.402  0.0393 -0.1212  0.0615
 1464PEP     CB54852  10.782  12.408  17.441  0.4715  0.2828 -0.1099
 1464PEP     CB54853  10.829  12.205  17.799  0.3362 -0.0747 -0.1780
 1464PEP     CB54854  10.574  11.962  17.925 -0.0081  0.2256 -0.2511
 1464PEP     CB54855  10.182  11.999  18.152 -0.0894  0.1605  0.2849
 1464PEP     CB54856   9.750  11.967  18.380 -0.2849 -0.1384 -0.0345
 1464PEP     CB54857   9.394  11.855  18.723  0.1731 -0.1085  0.2347
 1464PEP     CB54858   9.207  11.557  18.978 -0.0698  0.3935 -0.1207
 1464PEP     CB54859   8.848  11.485  19.197  0.0794 -0.0282  0.3401
 1464PEP     CB54860   8.530  11.883  19.149 -0.2530  0.0290  0.1024
 1464PEP     CB54861   8.286  12.285  19.120 -0.2753 -0.0168  0.0696
 1464PEP     CB54862   8.087  12.743  19.105 -0.2884  0.0293  0.1018
 1464PEP     CB54863   8.119  13.219  19.100  0.1837  0.2631  0.0691
 1464PEP     CB54864   8.353  13.562  18.795 -0.3025 -0.1533 -0.1398
 1464PEP     CB54865   8.543  14.013  18.938  0.2396 -0.1645 -0.3265
 1464PEP     CB54866   8.864  14.067  19.251  0.2737 -0.0794 -0.1238
 1464PEP     CB54867   9.046  13.919  19.610 -0.1680  0.1664 -0.0395
 1464PEP     CB54868   9.103  14.060  20.016  0.0993  0.3781  0.3115
 1464PEP     CB54869   9.362  14.303  20.021 -0.0222 -0.1788 -0.2706
 1464PEP     CB54870   9.343  14.687  20.083  0.0687 -0.0031 -0.1480
 1464PEP     CB54871   9.038  15.055  19.894  0.1511  0.1752 -0.1717
 1464PEP     CB54872   9.039  15.436  19.623 -0.6013  0.0374 -0.1432
 1464PEP     CB54873   9.175  15.895  19.690 -0.1183 -0.1563 -0.3939
 1464PEP     CB54874   9.314  16.326  19.569 -0.4166 -0.1728 -0.3657
 1464PEP     CB54875   9.586  16.781  19.610  0.1883  0.1102 -0.2972
 1464PEP     CB54876   9.471  17.078  19.903 -0.2387 -0.3655 -0.1296
 1464PEP     CB54877   9.175  17.434  19.817  0.4504  0.4171  0.3050
 1464PEP     CB54878   9.129  17.889  19.880 -0.2771 -0.1194 -0.2266
 1464PEP     CB54879   9.376  18.153  20.156  0.2681 -0.0374 -0.3374
 1464PEP     CB54880   9.616  18.332  20.485  0.0992  0.2546  0.1892
 1465PEP     CB54881   1.089  12.599   3.276  0.0018  0.1979 -0.2482
 1465PEP     CB54882   1.049  12.400   2.883  0.3419 -0.0806 -0.1172
 1465PEP     CB54883   0.621  12.305   2.841 -0.0926 -0.0376  0.0450
 1465PEP     CB54884   0.304  12.095   3.092 -0.2360 -0.1398 -0.0587
 1465PEP     CB54885   0.209  11.697   3.337  0.0322 -0.4710 -0.0979
 1465PEP     CB54886  -0.083  11.359   3.207  0.0589  0.0005 -0.0576
 1465PEP     CB54887  -0.043  11.065   2.839 -0.0416 -0.1172  0.1630
 1465PEP     CB54888   0.249  10.844   2.699 -0.1050 -0.6399 -0.2867
 1465PEP     CB54889   0.436  10.447   2.649  0.3745  0.0461  0.0520
 1465PEP     CB54890   0.484  10.033   2.694  0.4137 -0.2396  0.0210
 1465PEP     CB54891   0.247   9.653   2.670 -0.0823 -0.2163  0.0192
 1465PEP     CB54892  -0.120   9.293   2.736 -0.2378  0.3518 -0.1003
 1465PEP     CB54893  -0.512   9.123   2.817 -0.2586 -0.1437  0.5233
 1465PEP     CB54894  -0.928   9.068   2.929 -0.1598 -0.0808 -0.3909
 1465PEP     CB54895  -1.235   9.269   3.209  0.1272 -0.1033  0.1141
 1465PEP     CB54896  -1.202   9.428   3.605  0.3444  0.0857  0.3306
 1465PEP     CB54897  -1.126   9.621   4.016 -0.0814 -0.0616  0.1752
 1465PEP     CB54898  -1.190   9.735   4.427 -0.4306 -0.2007  0.0311
 1465PEP     CB54899  -1.139   9.719   4.859  0.1256 -0.0968 -0.2220
 1465PEP     CB54900  -0.961   9.814   5.250  0.2139  0.1400  0.2909
 1465PEP     CB54901  -0.972   9.853   5.773 -0.0370  0.2558  0.2966
 1465PEP     CB54902  -1.000   9.616   6.157  0.3529 -0.1203 -0.1082
 1465PEP     CB54903  -1.183   9.463   6.478  0.1451 -0.0649  0.3228
 1465PEP     CB54904  -1.440   9.507   6.856 -0.1445  0.3068 -0.1668
 1465PEP     CB54905  -1.858   9.272   6.914 -0.2515 -0.3433 -0.0484
 1465PEP     CB54906  -2.248   9.042   6.630 -0.4205  0.2158  0.1778
 1465PEP     CB54907  -2.661   8.874   6.597  0.1710  0.1641  0.2468
 1465PEP     CB54908  -3.065   8.878   6.834  0.0538 -0.1888 -0.0116
 1465PEP     CB54909  -3.529   9.137   6.743  0.1947 -0.3259 -0.1099
 1465PEP     CB54910  -3.722   9.446   6.460 -0.0805  0.1442 -0.1969
 1465PEP     CB54911  -3.610   9.588   6.040 -0.2214  0.5672  0.0863
 1465PEP     CB54912  -3.531   9.300   5.712 -0.2935 -0.1057  0.0012
 1465PEP     CB54913  -3.391   9.000   5.801  0.2244 -0.1124  0.2458
 1465PEP     CB54914  -2.999   8.855   5.890 -0.2703 -0.2660  0.1800
 1465PEP     CB54915  -2.686   8.568   6.060 -0.1441  0.0655 -0.1303
 1465PEP     CB54916  -2.681   8.349   6.510  0.0477  0.2732  0.1278
 1465PEP     CB54917  -2.757   8.487   6.965  0.1012  0.0552  0.0068
 1465PEP     CB54918  -3.056   8.462   7.328 -0.6632  0.3786 -0.1283
 1465PEP     CB54919  -3.366   8.585   7.624 -0.0562 -0.0395  0.0885
 1465PEP     CB54920  -3.447   8.709   8.049 -0.0350  0.5640 -0.1770
 1466PEP     CB54921  21.112   5.236  20.642  0.0887  0.1549  0.1937
 1466PEP     CB54922  21.512   5.499  20.490 -0.0871  0.0199 -0.2259
 1466PEP     CB54923  21.937   5.556  20.415  0.2196 -0.2013 -0.3818
 1466PEP     CB54924  22.023   5.559  19.927 -0.0699 -0.2356  0.0476
 1466PEP     CB54925  21.852   5.281  19.586  0.0561 -0.2963  0.0727
 1466PEP     CB54926  21.434   5.085  19.644 -0.1037 -0.2868 -0.6466
 1466PEP     CB54927  21.187   5.070  20.037  0.1405  0.1512  0.2819
 1466PEP     CB54928  20.802   5.238  20.216 -0.2844 -0.0629 -0.0861
 1466PEP     CB54929  20.401   5.050  20.150 -0.2628  0.2461 -0.1514
 1466PEP     CB54930  20.248   4.747  19.858  0.2759 -0.2008 -0.4977
 1466PEP     CB54931  20.507   4.379  19.623  0.2400 -0.5480 -0.2132
 1466PEP     CB54932  20.986   4.404  19.675  0.2236  0.0117 -0.3078
 1466PEP     CB54933  21.136   4.772  19.584 -0.1157 -0.0813 -0.2392
 1466PEP     CB54934  21.044   5.212  19.391 -0.4170  0.0090 -0.1438
 1466PEP     CB54935  20.978   5.505  19.020 -0.3416 -0.1666  0.1345
 1466PEP     CB54936  20.610   5.733  18.823 -0.1120  0.0252  0.0507
 1466PEP     CB54937  20.158   5.934  18.736  0.0194  0.0228 -0.2996
 1466PEP     CB54938  19.809   6.014  18.835 -0.1097 -0.2432  0.1350
 1466PEP     CB54939  19.570   5.772  18.901 -0.2288 -0.0123 -0.5194
 1466PEP     CB54940  19.596   5.336  18.865  0.0289 -0.3966 -0.1242
 1466PEP     CB54941  19.866   5.026  18.986 -0.0420 -0.3143 -0.1877
 1466PEP     CB54942  20.265   4.994  19.372 -0.0048  0.0318  0.1747
 1466PEP     CB54943  20.694   4.872  19.315  0.5088  0.0955 -0.5536
 1466PEP     CB54944  20.955   4.765  19.043 -0.4436  0.1139 -0.1164
 1466PEP     CB54945  21.238   4.636  18.705  0.0321 -0.6134  0.0512
 1466PEP     CB54946  21.588   4.763  18.580  0.3574  0.2591 -0.0947
 1466PEP     CB54947  21.957   4.914  18.440  0.1947 -0.1542  0.3234
 1466PEP     CB54948  22.409   5.032  18.272  0.0199  0.2048  0.0839
 1466PEP     CB54949  22.845   4.902  18.091 -0.4706 -0.0460 -0.2929
 1466PEP     CB54950  23.167   4.777  17.738 -0.2041 -1.0171  0.2064
 1466PEP     CB54951  23.397   4.749  17.388  0.1954  0.3298  0.5550
 1466PEP     CB54952  23.469   4.918  16.939  0.1864  0.0578 -0.1913
 1466PEP     CB54953  23.371   5.345  16.793 -0.3000  0.2700 -0.3450
 1466PEP     CB54954  23.344   5.766  16.999  0.1921 -0.3789  0.0370
 1466PEP     CB54955  23.562   6.122  17.074  0.0406  0.1042 -0.2106
 1466PEP     CB54956  24.011   6.261  17.029  0.1491 -0.0009 -0.0685
 1466PEP     CB54957  24.396   6.068  17.018 -0.0278 -0.0794 -0.2361
 1466PEP     CB54958  24.816   6.150  17.012  0.0824  0.2314  0.2005
 1466PEP     CB54959  24.887   6.396  16.641 -0.1643  0.3364 -0.0252
 1466PEP     CB54960  24.723   6.783  16.393  0.1919 -0.0871  0.1268
 1467PEP     CB54961  20.021  17.980  17.058 -0.0691  0.0766 -0.1026
 1467PEP     CB54962  19.780  17.857  17.413  0.4207 -0.0897  0.0213
 1467PEP     CB54963  19.508  17.579  17.415  0.1900  0.1057 -0.1820
 1467PEP     CB54964  19.533  17.090  17.318  0.1373  0.1751  0.1163
 1467PEP     CB54965  19.713  16.809  17.100 -0.1425  0.0062 -0.4191
 1467PEP     CB54966  19.775  16.595  16.745  0.0794 -0.1013 -0.2285
 1467PEP     CB54967  19.948  16.256  16.607  0.2026  0.3179 -0.1086
 1467PEP     CB54968  19.781  15.829  16.727 -0.1409 -0.2499 -0.1086
 1467PEP     CB54969  19.720  15.801  17.154  0.0842  0.0842  0.2185
 1467PEP     CB54970  19.663  15.656  17.637 -0.0849 -0.1739  0.2918
 1467PEP     CB54971  19.923  15.571  17.994  0.0800  0.3249 -0.1699
 1467PEP     CB54972  20.286  15.331  18.195  0.0918 -0.0687 -0.0203
 1467PEP     CB54973  20.635  15.388  18.088 -0.2907 -0.2554  0.3505
 1467PEP     CB54974  20.845  15.638  17.763  0.1419 -0.0978  0.2839
 1467PEP     CB54975  20.980  15.505  17.319 -0.0511 -0.1080 -0.1109
 1467PEP     CB54976  21.310  15.385  16.983 -0.2617  0.2925  0.0171
 1467PEP     CB54977  21.516  15.616  16.693 -0.2577  0.0904  0.2063
 1467PEP     CB54978  21.670  16.003  16.473 -0.2615  0.1409  0.2596
 1467PEP     CB54979  21.874  16.365  16.588 -0.0565 -0.2122  0.0596
 1467PEP     CB54980  22.288  16.553  16.616  0.4739  0.1793 -0.3913
 1467PEP     CB54981  22.576  16.754  16.452  0.0361 -0.1576  0.0200
 1467PEP     CB54982  22.701  16.930  16.061 -0.0081 -0.2217  0.2456
 1467PEP     CB54983  22.547  16.809  15.588  0.0160 -0.2474  0.0635
 1467PEP     CB54984  22.390  17.067  15.244 -0.0291 -0.2120  0.0445
 1467PEP     CB54985  22.463  17.468  14.996 -0.0964  0.1211 -0.6238
 1467PEP     CB54986  22.582  17.733  14.559  0.1833 -0.0964  0.0034
 1467PEP     CB54987  22.857  17.676  14.312 -0.2333  0.1400 -0.0744
 1467PEP     CB54988  22.863  17.290  14.099  0.4105 -0.3527  0.0044
 1467PEP     CB54989  22.529  17.019  14.028  0.2976 -0.0725 -0.1847
 1467PEP     CB54990  22.344  16.928  13.623 -0.3072 -0.1388 -0.6396
 1467PEP     CB54991  22.416  16.696  13.294 -0.0133  0.1915 -0.3035
 1467PEP     CB54992  22.317  16.507  12.988  0.0485 -0.0194 -0.3223
 1467PEP     CB54993  21.969  16.609  12.662 -0.1066 -0.2279  0.0302
 1467PEP     CB54994  21.959  16.948  12.410 -0.3393  0.1903 -0.0636
 1467PEP     CB54995  22.156  17.333  12.522 -0.0018 -0.0764 -0.3429
 1467PEP     CB54996  22.086  17.565  12.993 -0.1620  0.0769  0.2145
 1467PEP     CB54997  22.048  17.434  13.380  0.0791  0.3135 -0.2455
 1467PEP     CB54998  21.892  17.409  13.731 -0.0317 -0.1717  0.1887
 1467PEP     CB54999  21.598  17.361  13.869 -0.0496 -0.0672 -0.1152
 1467PEP     CB55000  21.138  17.353  13.875  0.0239  0.0653 -0.3336
 1468PEP     CB55001  18.825   1.694  11.380  0.1370  0.0349  0.1671
 1468PEP     CB55002  18.928   1.650  11.813 -0.3029 -0.3562 -0.1321
 1468PEP     CB55003  19.051   1.933  12.140 -0.1092 -0.1704  0.4371
 1468PEP     CB55004  19.302   1.995  12.446 -0.0795 -0.1698  0.1676
 1468PEP     CB55005  19.750   2.059  12.723  0.0128 -0.1033 -0.0803
 1468PEP     CB55006  19.793   2.389  13.044 -0.2879  0.1879 -0.3922
 1468PEP     CB55007  19.800   2.812  13.240  0.0148  0.3839  0.0852
 1468PEP     CB55008  19.993   3.229  13.454 -0.2242 -0.1980  0.1630
 1468PEP     CB55009  20.453   3.213  13.540 -0.2439  0.3120  0.0958
 1468PEP     CB55010  20.634   2.840  13.533  0.2887  0.2917  0.2584
 1468PEP     CB55011  20.612   2.467  13.688  0.0641  0.0299  0.0864
 1468PEP     CB55012  20.554   2.001  13.859 -0.0305  0.0707  0.2315
 1468PEP     CB55013  20.688   1.686  14.167 -0.0999  0.0219  0.0500
 1468PEP     CB55014  21.047   1.720  14.471 -0.1199  0.2806 -0.1595
 1468PEP     CB55015  21.253   1.984  14.875  0.1682  0.1169  0.0054
 1468PEP     CB55016  21.481   2.285  15.096  0.0766 -0.2141  0.0294
 1468PEP     CB55017  21.742   2.292  15.471  0.0075  0.2955 -0.0395
 1468PEP     CB55018  22.068   2.551  15.539 -0.1052 -0.0140 -0.0042
 1468PEP     CB55019  22.367   2.932  15.678  0.2393 -0.0439 -0.2572
 1468PEP     CB55020  22.648   3.225  15.507 -0.2127  0.1444 -0.1917
 1468PEP     CB55021  22.971   3.455  15.527  0.1593 -0.1475 -0.0731
 1468PEP     CB55022  23.222   3.857  15.372  0.0805  0.1050 -0.2234
 1468PEP     CB55023  23.306   4.245  15.135  0.0148 -0.3188  0.0694
 1468PEP     CB55024  23.127   4.412  14.711  0.0261 -0.1336 -0.3425
 1468PEP     CB55025  22.856   4.539  14.400 -0.3226 -0.2896 -0.1014
 1468PEP     CB55026  22.556   4.811  14.250 -0.0891 -0.0447 -0.1162
 1468PEP     CB55027  22.142   4.884  14.029  0.0722 -0.2307  0.4256
 1468PEP     CB55028  21.754   4.932  13.653 -0.1862 -0.2501  0.2011
 1468PEP     CB55029  21.457   4.675  13.553  0.2929  0.1701  0.3366
 1468PEP     CB55030  21.385   4.283  13.301 -0.4183  0.1362 -0.3384
 1468PEP     CB55031  21.297   4.028  12.826  0.0041  0.0118 -0.1541
 1468PEP     CB55032  20.977   3.863  12.601 -0.3156  0.2131 -0.1783
 1468PEP     CB55033  20.666   3.559  12.571  0.4474 -0.1541  0.3920
 1468PEP     CB55034  20.277   3.307  12.845  0.2107 -0.3164 -0.2970
 1468PEP     CB55035  20.179   2.953  12.988 -0.0499 -0.1861  0.2250
 1468PEP     CB55036  20.153   2.581  12.721 -0.2508 -0.0156  0.1003
 1468PEP     CB55037  20.132   2.383  12.374  0.2786 -0.2548  0.0764
 1468PEP     CB55038  19.873   2.118  12.176 -0.0897 -0.1489  0.3193
 1468PEP     CB55039  19.497   2.114  11.884  0.0178  0.0026 -0.3499
 1468PEP     CB55040  19.321   1.896  11.477 -0.1210  0.1999 -0.0713
 1469PEP     CB55041  19.484   6.731   0.992  0.4161  0.2077 -0.1232
 1469PEP     CB55042  19.291   6.985   0.661  0.2654 -0.2185  0.0757
 1469PEP     CB55043  19.007   7.455   0.662 -0.1212  0.0994  0.2572
 1469PEP     CB55044  18.706   7.807   0.949 -0.3185  0.1239 -0.0600
 1469PEP     CB55045  18.376   7.939   1.235 -0.1440 -0.0170 -0.3031
 1469PEP     CB55046  17.933   8.051   1.461  0.1166  0.1840 -0.0034
 1469PEP     CB55047  17.529   8.201   1.437 -0.1383  0.2818 -0.0392
 1469PEP     CB55048  17.154   8.100   1.707  0.0145  0.5438  0.1310
 1469PEP     CB55049  16.872   7.726   1.872  0.2942 -0.1518  0.0909
 1469PEP     CB55050  16.579   7.666   2.186  0.3745  0.1569  0.0250
 1469PEP     CB55051  16.562   7.795   2.596 -0.0527  0.2454  0.0184
 1469PEP     CB55052  16.704   7.705   2.974  0.1100  0.0967 -0.2231
 1469PEP     CB55053  16.900   7.715   3.372 -0.0193  0.0539  0.3834
 1469PEP     CB55054  16.750   7.690   3.851 -0.2927  0.1147  0.0046
 1469PEP     CB55055  16.358   7.558   4.031 -0.2483  0.0117  0.0454
 1469PEP     CB55056  16.144   7.235   3.865  0.1888  0.4418 -0.0944
 1469PEP     CB55057  16.327   6.951   3.424 -0.1309 -0.0900 -0.5068
 1469PEP     CB55058  16.512   6.616   3.419 -0.3705 -0.5748 -0.0098
 1469PEP     CB55059  16.722   6.478   3.805 -0.0528 -0.2482  0.2899
 1469PEP     CB55060  16.786   6.163   4.154 -0.0059  0.4502  0.0155
 1469PEP     CB55061  16.483   5.930   4.446 -0.2365 -0.2144 -0.4542
 1469PEP     CB55062  16.097   6.070   4.710  0.0034 -0.0662  0.3021
 1469PEP     CB55063  15.893   6.381   5.006 -0.2466  0.0227  0.0212
 1469PEP     CB55064  15.581   6.604   5.177 -0.0598  0.1688  0.1704
 1469PEP     CB55065  15.259   6.664   5.373  0.1753  0.1580 -0.2297
 1469PEP     CB55066  15.190   6.652   5.761  0.0842  0.2251  0.3893
 1469PEP     CB55067  15.349   6.585   6.113 -0.1998 -0.1352  0.0648
 1469PEP     CB55068  15.653   6.603   6.385 -0.3650 -0.1901  0.0606
 1469PEP     CB55069  15.804   6.440   6.674 -0.2682  0.0232  0.4928
 1469PEP     CB55070  15.951   6.569   6.997  0.0145  0.3975  0.1781
 1469PEP     CB55071  16.285   6.433   7.331 -0.1931 -0.0213  0.3992
 1469PEP     CB55072  16.609   6.286   7.519 -0.0195  0.0167  0.6383
 1469PEP     CB55073  16.828   6.335   7.953  0.1744  0.0271 -0.0833
 1469PEP     CB55074  17.213   6.510   8.185 -0.0321 -0.0157  0.0817
 1469PEP     CB55075  17.523   6.754   8.466 -0.2914 -0.4010  0.1389
 1469PEP     CB55076  17.808   7.065   8.668 -0.0556 -0.2650 -0.1960
 1469PEP     CB55077  18.164   7.354   8.901  0.0446 -0.0348 -0.2900
 1469PEP     CB55078  18.422   7.704   8.957  0.3066 -0.1958  0.1282
 1469PEP     CB55079  18.829   7.797   9.005  0.3684 -0.3427  0.1886
 1469PEP     CB55080  19.285   7.803   9.036  0.1508  0.4945 -0.1155
 1470PEP     CB55081   2.362   7.400  13.804 -0.3645  0.2207 -0.6470
 1470PEP     CB55082   2.460   7.005  13.497 -0.1019 -0.4224  0.1008
 1470PEP     CB55083   2.471   6.742  13.165  0.0296 -0.0013  0.0231
 1470PEP     CB55084   2.467   6.529  12.784 -0.1464 -0.0085  0.6084
 1470PEP     CB55085   2.407   6.241  12.382  0.2415 -0.1914 -0.2104
 1470PEP     CB55086   2.406   6.148  11.932  0.0419 -0.2570  0.2143
 1470PEP     CB55087   2.151   6.145  11.625  0.2485 -0.1797  0.0796
 1470PEP     CB55088   1.686   6.190  11.574  0.2448 -0.5408  0.2121
 1470PEP     CB55089   1.410   6.488  11.833 -0.1212  0.0017  0.0221
 1470PEP     CB55090   1.562   6.755  12.128 -0.0142  0.1761 -0.0476
 1470PEP     CB55091   1.821   6.584  12.495  0.2321 -0.1238 -0.2762
 1470PEP     CB55092   1.876   6.218  12.830  0.0809 -0.1898 -0.1758
 1470PEP     CB55093   1.674   5.952  13.109  0.0479 -0.0523  0.4430
 1470PEP     CB55094   1.641   5.525  13.221  0.1458 -0.2830  0.1844
 1470PEP     CB55095   1.657   5.048  13.328  0.0150  0.1454  0.0424
 1470PEP     CB55096   1.468   4.727  13.568  0.3402  0.2403  0.0473
 1470PEP     CB55097   1.514   4.367  13.874  0.1042 -0.1083 -0.2371
 1470PEP     CB55098   1.621   4.374  14.311  0.0007  0.2429 -0.5699
 1470PEP     CB55099   1.630   4.653  14.658 -0.6338  0.0620 -0.1296
 1470PEP     CB55100   1.355   4.796  14.987 -0.0478  0.1061 -0.3225
 1470PEP     CB55101   1.060   5.110  15.074  0.2711  0.4448 -0.0248
 1470PEP     CB55102   1.129   5.536  14.921  0.1227  0.0629 -0.2798
 1470PEP     CB55103   1.400   5.818  14.763  0.0824 -0.3219 -0.1766
 1470PEP     CB55104   1.681   5.815  14.523  0.2460  0.2322 -0.0553
 1470PEP     CB55105   1.833   5.365  14.419  0.0136 -0.1023 -0.0647
 1470PEP     CB55106   2.112   4.939  14.316  0.3322  0.1663  0.3447
 1470PEP     CB55107   2.088   4.458  14.300  0.0981  0.1163  0.0221
 1470PEP     CB55108   1.990   4.073  14.579  0.4190  0.1614  0.1515
 1470PEP     CB55109   1.863   3.721  14.883  0.0982 -0.0377  0.1101
 1470PEP     CB55110   2.121   3.613  15.228  0.2511 -0.1128  0.3246
 1470PEP     CB55111   2.547   3.524  15.319 -0.1317  0.1459  0.4312
 1470PEP     CB55112   2.997   3.779  15.439 -0.0842 -0.3233  0.0388
 1470PEP     CB55113   3.409   3.920  15.294 -0.0127  0.1369 -0.2339
 1470PEP     CB55114   3.724   3.743  15.024 -0.0529  0.3548 -0.0441
 1470PEP     CB55115   3.915   3.460  14.880 -0.0630 -0.0890 -0.1183
 1470PEP     CB55116   4.002   3.029  14.731  0.2279 -0.1415 -0.1464
 1470PEP     CB55117   3.892   2.644  14.774  0.1066  0.2171 -0.1068
 1470PEP     CB55118   3.663   2.390  14.970  0.2042  0.1228  0.3659
 1470PEP     CB55119   3.531   2.046  15.170  0.0205 -0.2858  0.1207
 1470PEP     CB55120   3.341   1.763  15.424  0.2420 -0.2124  0.1587
 1471PEP     CB55121   0.418  12.382  17.876 -0.1267 -0.1686 -0.0253
 1471PEP     CB55122   0.089  12.152  17.728  0.2686 -0.0710 -0.2305
 1471PEP     CB55123   0.128  11.887  17.298  0.0682 -0.1007 -0.1262
 1471PEP     CB55124   0.490  11.802  17.069 -0.0415 -0.3594  0.3130
 1471PEP     CB55125   0.897  11.593  17.230 -0.1422  0.0743 -0.2976
 1471PEP     CB55126   0.931  11.635  17.624 -0.0236  0.3155  0.0196
 1471PEP     CB55127   1.281  11.766  17.874 -0.2666  0.0277  0.0630
 1471PEP     CB55128   1.720  11.975  17.856  0.2010  0.1457  0.1318
 1471PEP     CB55129   2.198  11.989  17.785  0.2796 -0.2537 -0.0767
 1471PEP     CB55130   2.473  12.258  17.553 -0.0545  0.1669 -0.1072
 1471PEP     CB55131   2.522  12.679  17.334 -0.4233 -0.8415  0.2227
 1471PEP     CB55132   2.857  12.908  17.127 -0.0202 -0.0373 -0.0369
 1471PEP     CB55133   3.267  13.266  17.191 -0.3550  0.0963 -0.1035
 1471PEP     CB55134   3.741  13.131  17.258 -0.2262 -0.1553  0.0770
 1471PEP     CB55135   3.888  12.926  17.678  0.5126  0.1225  0.0005
 1471PEP     CB55136   4.063  12.835  18.077 -0.2986 -0.0221  0.1870
 1471PEP     CB55137   4.394  13.126  18.217  0.0748 -0.1092  0.1402
 1471PEP     CB55138   4.649  13.327  18.024 -0.1556  0.5862  0.4055
 1471PEP     CB55139   4.991  13.332  17.778  0.1015 -0.0802 -0.1327
 1471PEP     CB55140   5.453  13.063  17.716  0.1291 -0.1324 -0.1494
 1471PEP     CB55141   5.423  12.633  17.756 -0.0352 -0.1211 -0.1397
 1471PEP     CB55142   5.105  12.296  17.683 -0.0088 -0.4059  0.1505
 1471PEP     CB55143   4.695  12.403  17.708 -0.3360 -0.4566  0.0707
 1471PEP     CB55144   4.437  12.796  17.753 -0.0381  0.0579  0.1436
 1471PEP     CB55145   4.282  13.234  17.708 -0.0372  0.2493 -0.3242
 1471PEP     CB55146   4.127  13.548  17.347 -0.1587 -0.0848 -0.0137
 1471PEP     CB55147   4.294  13.787  16.918 -0.3232  0.3102 -0.0449
 1471PEP     CB55148   4.318  14.038  16.582  0.0158 -0.0824  0.0627
 1471PEP     CB55149   4.564  14.306  16.467 -0.2395 -0.0624  0.3158
 1471PEP     CB55150   4.942  14.492  16.148 -0.1218 -0.1774  0.2640
 1471PEP     CB55151   5.317  14.541  15.909 -0.3633 -0.0402 -0.0201
 1471PEP     CB55152   5.550  14.753  15.651 -0.0904  0.5087  0.2638
 1471PEP     CB55153   5.582  14.925  15.299  0.0120 -0.0513  0.0767
 1471PEP     CB55154   5.379  15.105  14.919  0.2645 -0.3001  0.4259
 1471PEP     CB55155   5.225  14.954  14.552 -0.0836 -0.4200  0.3400
 1471PEP     CB55156   5.352  14.803  14.117  0.1361  0.0124 -0.0393
 1471PEP     CB55157   5.470  14.545  13.787  0.6240 -0.2677  0.4695
 1471PEP     CB55158   5.201  14.401  13.443 -0.0432  0.1633  0.2733
 1471PEP     CB55159   4.912  14.165  13.136 -0.1313  0.0947 -0.3149
 1471PEP     CB55160   4.741  13.823  12.851  0.2778  0.0400  0.1922
 1472PEP     CB55161   2.777  18.792   1.147  0.3315  0.1219 -0.1382
 1472PEP     CB55162   2.644  18.465   1.437 -0.1202 -0.0556  0.3973
 1472PEP     CB55163   2.473  18.211   1.696 -0.0596  0.0037  0.2595
 1472PEP     CB55164   2.357  17.687   1.757  0.0022 -0.1596  0.0363
 1472PEP     CB55165   2.378  17.480   1.390  0.3028 -0.0289 -0.3310
 1472PEP     CB55166   2.659  17.508   1.116  0.1275 -0.1096  0.4939
 1472PEP     CB55167   2.846  17.659   0.773 -0.2256 -0.1305 -0.3158
 1472PEP     CB55168   3.197  17.838   0.466  0.0606  0.1032 -0.1341
 1472PEP     CB55169   3.447  17.723   0.179  0.3128 -0.4146 -0.1193
 1472PEP     CB55170   3.586  17.839  -0.208  0.0757  0.0737 -0.2977
 1472PEP     CB55171   3.434  17.955  -0.622  0.1719 -0.1172 -0.2137
 1472PEP     CB55172   3.479  17.887  -1.097 -0.3761 -0.3319  0.2583
 1472PEP     CB55173   3.126  17.781  -1.366  0.1312  0.2846  0.1926
 1472PEP     CB55174   2.744  17.683  -1.493 -0.0262  0.0607  0.1398
 1472PEP     CB55175   2.290  17.588  -1.302 -0.1232  0.0278 -0.3014
 1472PEP     CB55176   2.166  17.682  -0.949  0.3197  0.0187  0.3657
 1472PEP     CB55177   2.347  18.093  -0.766  0.5234  0.1062  0.0341
 1472PEP     CB55178   2.780  18.189  -0.561  0.2301  0.0203 -0.2725
 1472PEP     CB55179   3.106  18.314  -0.838  0.0717  0.2097  0.2087
 1472PEP     CB55180   3.276  18.370  -1.374  0.2269  0.1935  0.2346
 1472PEP     CB55181   3.144  18.596  -1.764  0.4050  0.0466  0.3810
 1472PEP     CB55182   3.168  19.117  -1.822 -0.0544  0.0418 -0.0838
 1472PEP     CB55183   3.078  19.469  -1.590  0.0554  0.5457  0.1025
 1472PEP     CB55184   2.721  19.441  -1.376  0.0048  0.1010  0.1249
 1472PEP     CB55185   2.329  19.178  -1.480  0.0225 -0.2230  0.0673
 1472PEP     CB55186   2.196  18.933  -1.826  0.3499 -0.6082 -0.2359
 1472PEP     CB55187   2.083  18.697  -2.094 -0.0002 -0.2615  0.0486
 1472PEP     CB55188   2.017  18.785  -2.540 -0.2580  0.2555  0.4910
 1472PEP     CB55189   1.977  18.770  -3.040 -0.2846 -0.0486  0.2547
 1472PEP     CB55190   2.117  18.620  -3.375 -0.1712 -0.0939  0.1531
 1472PEP     CB55191   2.323  18.649  -3.819  0.2787 -0.3652  0.3931
 1472PEP     CB55192   2.378  18.721  -4.209  0.0696  0.2448 -0.3779
 1472PEP     CB55193   2.566  18.635  -4.596  0.1638  0.1228 -0.4386
 1472PEP     CB55194   2.571  18.503  -5.042  0.0686 -0.1182 -0.2282
 1472PEP     CB55195   2.463  18.649  -5.472  0.1142  0.0244 -0.3730
 1472PEP     CB55196   2.349  18.953  -5.829 -0.1083 -0.0640  0.0451
 1472PEP     CB55197   2.599  19.376  -5.967 -0.0444  0.1498 -0.3617
 1472PEP     CB55198   2.865  19.828  -5.911  0.0747  0.0896  0.1514
 1472PEP     CB55199   2.955  20.178  -5.827 -0.0144  0.5630 -0.0145
 1472PEP     CB55200   3.228  20.461  -6.041  0.2210 -0.3275 -0.0560
 1473PEP     CB55201  14.497   1.023   4.021 -0.6427 -0.3986  0.0671
 1473PEP     CB55202  14.754   0.578   3.960 -0.4394  0.1759  0.1292
 1473PEP     CB55203  14.757   0.149   3.783  0.3627 -0.2862  0.5547
 1473PEP     CB55204  14.829  -0.201   3.578  0.1114  0.3601 -0.2202
 1473PEP     CB55205  14.912  -0.662   3.589 -0.0839 -0.4282 -0.2824
 1473PEP     CB55206  14.865  -1.018   3.603 -0.0450  0.0950 -0.0741
 1473PEP     CB55207  14.715  -1.297   3.427  0.1947 -0.3004  0.3222
 1473PEP     CB55208  14.485  -1.696   3.320 -0.0025  0.1747 -0.1322
 1473PEP     CB55209  14.164  -2.163   3.303  0.0006  0.1955 -0.1655
 1473PEP     CB55210  14.252  -2.531   3.494 -0.0996  0.0659 -0.1498
 1473PEP     CB55211  14.509  -2.608   3.878 -0.1638 -0.0494  0.4709
 1473PEP     CB55212  14.713  -2.295   4.235 -0.3506 -0.0312 -0.1727
 1473PEP     CB55213  14.472  -2.078   4.544 -0.1059  0.0872 -0.1135
 1473PEP     CB55214  14.141  -2.054   4.869 -0.1953  0.0344 -0.1059
 1473PEP     CB55215  13.807  -1.938   5.230 -0.1501 -0.3127 -0.0431
 1473PEP     CB55216  13.715  -1.891   5.682  0.2248  0.1897  0.0795
 1473PEP     CB55217  13.709  -1.515   5.840 -0.0563  0.1688 -0.1129
 1473PEP     CB55218  13.551  -1.047   5.698  0.0372  0.2175 -0.4392
 1473PEP     CB55219  13.697  -0.559   5.913 -0.1217  0.1963 -0.3521
 1473PEP     CB55220  13.387  -0.293   6.121 -0.0713  0.3188 -0.3297
 1473PEP     CB55221  13.178  -0.422   6.536 -0.2383  0.0546  0.3776
 1473PEP     CB55222  13.026  -0.885   6.758  0.0616  0.0644  0.1760
 1473PEP     CB55223  12.919  -1.318   6.685 -0.4752  0.2687 -0.2431
 1473PEP     CB55224  13.124  -1.684   6.440 -0.4769  0.2260 -0.5576
 1473PEP     CB55225  13.606  -1.937   6.461 -0.1963  0.0739  0.0386
 1473PEP     CB55226  13.840  -2.288   6.393  0.2953 -0.0573 -0.0461
 1473PEP     CB55227  14.212  -2.661   6.512  0.0151 -0.2931 -0.0931
 1473PEP     CB55228  14.598  -2.712   6.501 -0.1414  0.1582  0.1672
 1473PEP     CB55229  15.008  -2.720   6.754 -0.0712 -0.0480 -0.0883
 1473PEP     CB55230  15.022  -2.415   7.066 -0.0982 -0.5529  0.0205
 1473PEP     CB55231  14.845  -2.041   6.977  0.2353  0.2140  0.0058
 1473PEP     CB55232  14.759  -2.071   6.546 -0.2015  0.3361 -0.1406
 1473PEP     CB55233  14.995  -2.389   6.368  0.2342  0.1338 -0.0598
 1473PEP     CB55234  15.431  -2.337   6.317 -0.2147 -0.1551 -0.0577
 1473PEP     CB55235  15.658  -1.800   6.321 -0.0999  0.2510  0.1837
 1473PEP     CB55236  15.803  -1.504   6.628  0.1841  0.0943 -0.0230
 1473PEP     CB55237  16.125  -1.317   6.885  0.2152 -0.0917  0.1098
 1473PEP     CB55238  16.406  -1.528   7.230  0.1714  0.2390  0.1604
 1473PEP     CB55239  16.178  -1.529   7.667 -0.1615 -0.3183  0.0214
 1473PEP     CB55240  15.790  -1.428   7.797  0.0661 -0.1990  0.4382
 1474PEP     CB55241   5.058  18.279   8.731  0.0438 -0.5147 -0.1696
 1474PEP     CB55242   5.376  18.371   8.861 -0.0849 -0.1210  0.3140
 1474PEP     CB55243   5.536  18.295   9.297  0.3250 -0.2162  0.3354
 1474PEP     CB55244   5.775  18.214   9.642 -0.4509  0.2616 -0.1882
 1474PEP     CB55245   6.178  17.889   9.828  0.2391 -0.2353 -0.2203
 1474PEP     CB55246   6.666  17.823   9.912 -0.2036 -0.3990 -0.0680
 1474PEP     CB55247   7.022  17.773   9.753  0.0804 -0.1765  0.1383
 1474PEP     CB55248   7.150  17.751   9.191 -0.0407  0.0950  0.1542
 1474PEP     CB55249   6.887  17.547   8.920 -0.3821  0.0411 -0.1656
 1474PEP     CB55250   6.590  17.205   9.012 -0.1583  0.3672  0.1155
 1474PEP     CB55251   6.409  17.266   9.406 -0.0813  0.1508  0.0441
 1474PEP     CB55252   6.490  17.595   9.512 -0.1363  0.1627 -0.1124
 1474PEP     CB55253   6.676  17.825   9.307  0.0056  0.2338  0.1485
 1474PEP     CB55254   6.448  17.858   8.869 -0.2549 -0.0611 -0.2671
 1474PEP     CB55255   6.188  17.791   8.596 -0.1288 -0.1160  0.2374
 1474PEP     CB55256   5.922  17.567   8.425 -0.4324  0.1651 -0.2586
 1474PEP     CB55257   5.609  17.483   8.115 -0.3365  0.2039  0.1623
 1474PEP     CB55258   5.318  17.238   8.047  0.2901 -0.0721  0.3546
 1474PEP     CB55259   4.986  17.158   8.182  0.3254  0.0329  0.3406
 1474PEP     CB55260   4.695  17.366   8.452  0.1116  0.2725 -0.4681
 1474PEP     CB55261   4.459  17.798   8.336  0.2886 -0.0348 -0.2478
 1474PEP     CB55262   4.190  18.146   8.326 -0.1098  0.0806  0.0347
 1474PEP     CB55263   3.925  18.465   8.154  0.5267 -0.2915  0.0965
 1474PEP     CB55264   3.726  18.612   7.896 -0.1954  0.0231 -0.0515
 1474PEP     CB55265   3.791  18.888   7.544  0.2660  0.0003  0.1463
 1474PEP     CB55266   3.892  19.309   7.491  0.2363 -0.4515  0.1024
 1474PEP     CB55267   3.906  19.670   7.651 -0.1601  0.0046 -0.1608
 1474PEP     CB55268   3.989  19.911   8.027  0.1421  0.0725 -0.2591
 1474PEP     CB55269   3.807  19.952   8.469 -0.0393  0.0238 -0.2839
 1474PEP     CB55270   3.587  20.096   8.728 -0.0643 -0.2047  0.5127
 1474PEP     CB55271   3.153  20.115   8.806 -0.0637 -0.0595  0.2236
 1474PEP     CB55272   2.684  20.068   9.003 -0.0571 -0.2080  0.4241
 1474PEP     CB55273   2.315  20.292   9.060  0.2381 -0.2759  0.0509
 1474PEP     CB55274   2.025  20.610   9.165  0.0733  0.1319  0.1420
 1474PEP     CB55275   1.601  20.669   9.250 -0.0730 -0.1446  0.0883
 1474PEP     CB55276   1.163  20.730   9.364 -0.4947 -0.1522 -0.1693
 1474PEP     CB55277   0.823  20.584   9.486  0.1296 -0.0876 -0.2637
 1474PEP     CB55278   0.694  20.256   9.694  0.2048 -0.2299  0.0134
 1474PEP     CB55279   0.821  19.748   9.841  0.0002  0.0656  0.2043
 1474PEP     CB55280   1.041  19.434   9.965  0.0516 -0.1504  0.1383
 1475PEP     CB55281  21.051  13.094  13.895 -0.4153 -0.1373 -0.4812
 1475PEP     CB55282  21.394  12.923  13.761 -0.2307 -0.0891 -0.1694
 1475PEP     CB55283  21.801  12.665  13.764  0.2347  0.1161  0.0544
 1475PEP     CB55284  22.107  12.315  13.892 -0.0938 -0.2005  0.3541
 1475PEP     CB55285  22.582  12.268  13.804  0.1564  0.0040  0.2506
 1475PEP     CB55286  22.895  12.051  13.945  0.1911 -0.1501  0.1963
 1475PEP     CB55287  23.153  11.831  14.202 -0.1036 -0.0690  0.4601
 1475PEP     CB55288  23.165  11.600  14.556  0.3189  0.3113  0.0124
 1475PEP     CB55289  23.270  11.481  14.963  0.0371  0.4068  0.3821
 1475PEP     CB55290  23.077  11.333  15.318  0.0985 -0.2554 -0.1477
 1475PEP     CB55291  22.791  11.414  15.642 -0.2446 -0.2585  0.0911
 1475PEP     CB55292  22.850  11.765  16.021  0.1718  0.2872  0.2182
 1475PEP     CB55293  22.878  11.734  16.414 -0.1304 -0.0990  0.0558
 1475PEP     CB55294  23.076  11.708  16.761  0.1536  0.0986  0.0871
 1475PEP     CB55295  23.436  11.515  16.783  0.2644 -0.5646  0.2243
 1475PEP     CB55296  23.629  11.299  16.408  0.0966 -0.1046 -0.4015
 1475PEP     CB55297  23.409  11.172  16.099 -0.2052 -0.2504 -0.5491
 1475PEP     CB55298  23.288  11.474  15.775 -0.2739 -0.2170 -0.4265
 1475PEP     CB55299  23.288  11.827  15.482 -0.2138 -0.1432 -0.1657
 1475PEP     CB55300  23.440  12.329  15.474 -0.0932 -0.0377  0.0039
 1475PEP     CB55301  23.579  12.774  15.503  0.3474 -0.1061  0.5779
 1475PEP     CB55302  24.041  12.987  15.585 -0.1142  0.7258  0.2028
 1475PEP     CB55303  24.314  13.117  15.999 -0.2122  0.0234 -0.0206
 1475PEP     CB55304  24.147  13.137  16.477  0.0221  0.0407 -0.1356
 1475PEP     CB55305  23.732  13.014  16.635 -0.1203 -0.2584 -0.1246
 1475PEP     CB55306  23.300  13.096  16.663  0.0145  0.5477  0.4414
 1475PEP     CB55307  22.955  13.271  16.848 -0.1976 -0.2791  0.0835
 1475PEP     CB55308  23.079  13.468  17.290  0.1581  0.2914 -0.3686
 1475PEP     CB55309  23.349  13.754  17.408 -0.1466  0.0243 -0.1297
 1475PEP     CB55310  23.454  14.101  17.833  0.5139 -0.0016 -0.1069
 1475PEP     CB55311  23.436  14.238  18.247 -0.0016 -0.3606  0.1156
 1475PEP     CB55312  23.599  14.378  18.663  0.0823  0.0867  0.1754
 1475PEP     CB55313  23.957  14.375  18.833 -0.4009  0.1366  0.2810
 1475PEP     CB55314  24.334  14.450  18.675 -0.0868  0.4516  0.0212
 1475PEP     CB55315  24.460  14.792  18.407  0.2133  0.1169 -0.2745
 1475PEP     CB55316  24.446  14.989  18.012 -0.0092 -0.0925 -0.0919
 1475PEP     CB55317  24.549  14.738  17.633 -0.0644 -0.4335 -0.0415
 1475PEP     CB55318  24.377  14.293  17.570 -0.0525  0.3528 -0.2324
 1475PEP     CB55319  24.037  14.043  17.732  0.0153  0.1799 -0.1347
 1475PEP     CB55320  23.765  13.842  18.100 -0.0774  0.1378  0.0992
 1476PEP     CB55321  21.744  16.452  19.570  0.0915  0.0895 -0.2512
 1476PEP     CB55322  21.337  16.629  19.324  0.1348 -0.0701  0.0377
 1476PEP     CB55323  20.941  16.582  19.342 -0.1399  0.1065  0.2588
 1476PEP     CB55324  20.485  16.471  19.389  0.3206  0.1424 -0.0323
 1476PEP     CB55325  20.282  16.203  19.136 -0.2339 -0.0862  0.1767
 1476PEP     CB55326  20.530  15.817  18.975  0.0520 -0.1223 -0.2994
 1476PEP     CB55327  20.829  15.534  19.104  0.0466  0.2620  0.1676
 1476PEP     CB55328  20.903  15.313  19.465  0.3286 -0.1458 -0.1328
 1476PEP     CB55329  21.054  15.008  19.684  0.0516 -0.3503 -0.2009
 1476PEP     CB55330  21.101  14.564  19.599  0.2364 -0.0889  0.2287
 1476PEP     CB55331  20.854  14.294  19.342 -0.0896  0.0789  0.4714
 1476PEP     CB55332  20.576  14.443  19.114  0.0570 -0.0957 -0.0787
 1476PEP     CB55333  20.180  14.516  19.283  0.0372  0.1771  0.1204
 1476PEP     CB55334  20.091  14.492  19.665 -0.0555 -0.2082  0.4711
 1476PEP     CB55335  19.762  14.502  20.061  0.2679 -0.3248  0.4319
 1476PEP     CB55336  19.462  14.294  20.114  0.2654 -0.0918 -0.0125
 1476PEP     CB55337  19.062  13.999  20.045  0.3793  0.0319  0.1040
 1476PEP     CB55338  18.638  14.055  20.193 -0.1487  0.0543  0.2343
 1476PEP     CB55339  18.362  14.358  20.563  0.0138 -0.2708  0.0805
 1476PEP     CB55340  18.402  14.788  20.923 -0.0214  0.0380 -0.1542
 1476PEP     CB55341  18.617  15.050  21.277  0.3923  0.2732 -0.2183
 1476PEP     CB55342  18.656  15.146  21.714 -0.1704 -0.1291 -0.3624
 1476PEP     CB55343  19.073  15.229  21.919 -0.3364 -0.1562  0.5114
 1476PEP     CB55344  19.432  15.355  22.192  0.0018  0.1287 -0.3925
 1476PEP     CB55345  19.800  15.136  22.241  0.1362 -0.2974 -0.0760
 1476PEP     CB55346  20.193  15.082  22.058  0.3535  0.2012  0.4346
 1476PEP     CB55347  20.602  15.000  22.292  0.3007 -0.1356 -0.0710
 1476PEP     CB55348  20.862  15.107  22.659 -0.1411 -0.2786  0.2017
 1476PEP     CB55349  21.176  15.077  22.962  0.0601 -0.0783  0.2714
 1476PEP     CB55350  21.598  15.212  22.873 -0.0206 -0.2610  0.1215
 1476PEP     CB55351  21.734  15.353  22.381 -0.1688  0.0749 -0.1547
 1476PEP     CB55352  21.614  15.727  22.246 -0.3229 -0.1716  0.0400
 1476PEP     CB55353  21.211  15.962  22.517  0.1171 -0.0041 -0.1158
 1476PEP     CB55354  21.180  16.072  23.022  0.0097 -0.0798 -0.1308
 1476PEP     CB55355  21.250  16.406  23.425 -0.2416  0.3394 -0.0672
 1476PEP     CB55356  21.286  16.646  23.784  0.0333 -0.2121  0.0566
 1476PEP     CB55357  21.362  16.572  24.224 -0.0768  0.1612 -0.2013
 1476PEP     CB55358  21.409  16.181  24.461  0.4052 -0.2589 -0.3003
 1476PEP     CB55359  21.539  15.820  24.332 -0.1532 -0.2010 -0.0636
 1476PEP     CB55360  21.715  15.496  24.263  0.1146 -0.4096 -0.1122
 1477PEP     CB55361  16.509  14.417   4.298  0.2408 -0.2067  0.1128
 1477PEP     CB55362  16.784  14.798   4.503  0.0540 -0.0828  0.1779
 1477PEP     CB55363  16.994  15.253   4.277 -0.3258 -0.0909 -0.2109
 1477PEP     CB55364  17.027  15.283   3.855 -0.0340  0.0375  0.3288
 1477PEP     CB55365  16.617  15.261   3.652 -0.1592 -0.0037 -0.3420
 1477PEP     CB55366  16.135  15.444   3.713 -0.1080  0.0828  0.2975
 1477PEP     CB55367  15.749  15.403   3.673  0.3240  0.2271 -0.2011
 1477PEP     CB55368  15.594  14.958   3.757 -0.0242  0.2426 -0.1886
 1477PEP     CB55369  15.721  14.589   3.887 -0.1947  0.0705  0.0568
 1477PEP     CB55370  16.023  14.535   4.138  0.1751 -0.0950 -0.1161
 1477PEP     CB55371  15.935  14.728   4.499 -0.0892 -0.1488  0.1962
 1477PEP     CB55372  15.556  14.681   4.832  0.1349  0.1720  0.1146
 1477PEP     CB55373  15.268  14.393   5.010 -0.4166  0.0826  0.0191
 1477PEP     CB55374  15.000  14.087   4.968 -0.3731  0.0124  0.0458
 1477PEP     CB55375  14.634  13.870   4.882  0.3486 -0.1240  0.2796
 1477PEP     CB55376  14.533  13.588   4.650  0.0963 -0.0564  0.0694
 1477PEP     CB55377  14.749  13.351   4.393  0.0096  0.4343  0.1452
 1477PEP     CB55378  14.689  13.344   3.875  0.0180 -0.1300  0.3425
 1477PEP     CB55379  14.378  13.491   3.625 -0.2201 -0.1220 -0.2301
 1477PEP     CB55380  13.897  13.567   3.758 -0.2109 -0.2802 -0.2123
 1477PEP     CB55381  13.569  13.379   4.115 -0.0744  0.3715  0.3719
 1477PEP     CB55382  13.288  13.074   4.038  0.3551 -0.1785 -0.3905
 1477PEP     CB55383  12.975  12.751   3.835 -0.2083  0.5469 -0.3562
 1477PEP     CB55384  12.544  12.610   3.972 -0.0017 -0.3863 -0.0792
 1477PEP     CB55385  12.345  12.867   4.260 -0.2200  0.0566  0.1679
 1477PEP     CB55386  12.198  13.280   4.209  0.1537 -0.0861 -0.0429
 1477PEP     CB55387  12.283  13.684   3.911  0.2725 -0.1547 -0.2795
 1477PEP     CB55388  12.708  13.824   3.891 -0.5973 -0.0405 -0.0514
 1477PEP     CB55389  13.042  14.001   4.141 -0.1561 -0.0130  0.3505
 1477PEP     CB55390  13.253  14.252   4.516 -0.1024 -0.1675 -0.4080
 1477PEP     CB55391  13.170  14.400   4.990  0.0239  0.0975 -0.1230
 1477PEP     CB55392  13.072  14.858   5.127 -0.2349 -0.0665  0.3785
 1477PEP     CB55393  13.312  15.276   4.949  0.3960  0.0119  0.1723
 1477PEP     CB55394  13.454  15.495   4.504  0.2851  0.0883  0.4052
 1477PEP     CB55395  13.322  15.846   4.369 -0.2906 -0.1660 -0.0132
 1477PEP     CB55396  13.023  16.091   4.620  0.1031  0.3309 -0.3706
 1477PEP     CB55397  13.104  16.212   5.029 -0.1891  0.0017 -0.0006
 1477PEP     CB55398  13.562  16.147   5.282  0.2118 -0.0776  0.4578
 1477PEP     CB55399  13.937  16.164   5.492 -0.0688  0.5067  0.0366
 1477PEP     CB55400  14.384  16.179   5.489  0.2840 -0.2472 -0.6086
 1478PEP     CB55401  10.364  19.408  16.042  0.0856 -0.3758 -0.0108
 1478PEP     CB55402  10.312  19.569  16.513 -0.0491  0.1472 -0.1623
 1478PEP     CB55403  10.011  19.843  16.652 -0.0335 -0.0846  0.2163
 1478PEP     CB55404   9.983  20.097  16.293  0.0353 -0.0983  0.1304
 1478PEP     CB55405   9.778  20.424  15.996 -0.0640  0.1516  0.0011
 1478PEP     CB55406   9.331  20.262  15.765  0.0668 -0.2218  0.3168
 1478PEP     CB55407   9.002  19.893  15.880 -0.1344 -0.0247 -0.2641
 1478PEP     CB55408   9.067  19.439  15.804 -0.0424 -0.0424  0.2151
 1478PEP     CB55409   9.056  19.220  15.438  0.1631  0.3165  0.0470
 1478PEP     CB55410   8.713  19.094  15.181  0.0728  0.1476 -0.0050
 1478PEP     CB55411   8.304  18.758  15.158 -0.0115 -0.2821  0.3503
 1478PEP     CB55412   7.919  18.837  15.355  0.1761 -0.1794 -0.1769
 1478PEP     CB55413   7.938  18.979  15.767 -0.0325 -0.0862  0.0604
 1478PEP     CB55414   8.247  19.225  16.061  0.2891 -0.0920  0.1535
 1478PEP     CB55415   8.633  19.569  16.106 -0.2336  0.0901 -0.3486
 1478PEP     CB55416   8.564  20.044  16.041 -0.1505  0.0078 -0.0951
 1478PEP     CB55417   8.554  20.493  16.270 -0.1743  0.0447 -0.3378
 1478PEP     CB55418   8.575  20.621  16.750  0.0194  0.4692 -0.5210
 1478PEP     CB55419   8.444  20.821  17.145 -0.0951 -0.0100 -0.1097
 1478PEP     CB55420   8.113  20.962  17.225 -0.1672  0.1624 -0.1246
 1478PEP     CB55421   8.022  21.280  17.016 -0.0684 -0.1053  0.1137
 1478PEP     CB55422   8.185  21.404  16.504 -0.3392  0.1542 -0.0900
 1478PEP     CB55423   8.534  21.082  16.267  0.0656 -0.0948  0.0341
 1478PEP     CB55424   8.970  21.064  16.237  0.1749 -0.0676 -0.0856
 1478PEP     CB55425   9.204  20.726  16.546  0.0732  0.0047 -0.2184
 1478PEP     CB55426   9.061  20.329  16.403  0.0955  0.1347 -0.0557
 1478PEP     CB55427   8.883  19.941  16.436  0.2380  0.3259  0.2448
 1478PEP     CB55428   8.793  19.577  16.649  0.3119  0.0400 -0.0855
 1478PEP     CB55429   8.815  19.250  16.901  0.2855 -0.0140  0.2626
 1478PEP     CB55430   9.051  19.102  17.315  0.1512 -0.2406 -0.0983
 1478PEP     CB55431   9.135  19.265  17.660 -0.1876 -0.2643  0.1832
 1478PEP     CB55432   9.147  19.209  18.133  0.4074  0.0463  0.3644
 1478PEP     CB55433   9.108  19.134  18.549 -0.0212 -0.0693  0.3623
 1478PEP     CB55434   8.963  19.121  19.068 -0.0482  0.0465 -0.2759
 1478PEP     CB55435   8.622  19.285  19.378 -0.1728  0.3520  0.5108
 1478PEP     CB55436   8.225  19.447  19.572 -0.0396  0.1580  0.0794
 1478PEP     CB55437   8.086  19.816  19.775  0.0457 -0.3121 -0.0204
 1478PEP     CB55438   8.156  20.062  20.144 -0.3409  0.0791 -0.2162
 1478PEP     CB55439   8.331  19.931  20.569 -0.1452  0.2846  0.0121
 1478PEP     CB55440   8.502  19.598  20.739 -0.5052 -0.4666  0.0829
 1479PEP     CB55441  17.788   8.849  14.824 -0.0920 -0.0895 -0.2082
 1479PEP     CB55442  18.103   9.117  14.564  0.3704 -0.1241  0.2496
 1479PEP     CB55443  18.435   9.262  14.573 -0.0174 -0.1770  0.0206
 1479PEP     CB55444  18.757   9.401  14.939  0.0525 -0.0621  0.2777
 1479PEP     CB55445  18.944   9.663  15.250  0.2069  0.1139  0.2567
 1479PEP     CB55446  19.119  10.072  15.204 -0.5222  0.0560 -0.3143
 1479PEP     CB55447  19.332  10.262  15.418  0.2269  0.0582 -0.2006
 1479PEP     CB55448  19.516  10.574  15.702  0.1368 -0.1397  0.3669
 1479PEP     CB55449  19.453  10.761  16.173 -0.0980 -0.0983  0.2372
 1479PEP     CB55450  19.207  10.842  16.569  0.4137  0.0473 -0.0019
 1479PEP     CB55451  19.198  10.637  16.988  0.0367 -0.0784  0.1455
 1479PEP     CB55452  18.838  10.344  17.069 -0.0752  0.2941 -0.1472
 1479PEP     CB55453  18.497  10.237  16.748  0.0186  0.3226 -0.0792
 1479PEP     CB55454  18.435  10.300  16.406 -0.4046  0.0441  0.2087
 1479PEP     CB55455  18.576  10.092  16.078  0.3797 -0.0707  0.3065
 1479PEP     CB55456  18.730   9.726  16.023 -0.3745  0.2020 -0.1032
 1479PEP     CB55457  18.910   9.460  16.364  0.2317  0.2526  0.2097
 1479PEP     CB55458  19.232   9.489  16.627  0.2534 -0.2733  0.1428
 1479PEP     CB55459  19.615   9.654  16.773 -0.2010 -0.1517 -0.0286
 1479PEP     CB55460  19.716   9.987  16.514 -0.2367 -0.0487  0.1881
 1479PEP     CB55461  19.394  10.365  16.531  0.2650  0.2337 -0.2452
 1479PEP     CB55462  18.979  10.307  16.545 -0.1256  0.2765  0.0658
 1479PEP     CB55463  18.713   9.881  16.523  0.0740 -0.2626 -0.1091
 1479PEP     CB55464  18.348   9.612  16.366  0.3087  0.5219  0.2362
 1479PEP     CB55465  18.215   9.269  16.488  0.0854  0.2249 -0.3323
 1479PEP     CB55466  18.379   8.984  16.890 -0.0049  0.0968  0.2304
 1479PEP     CB55467  18.747   8.873  17.028 -0.0232 -0.1973 -0.3494
 1479PEP     CB55468  19.026   9.149  17.004  0.0113 -0.0782  0.1948
 1479PEP     CB55469  19.129   9.577  17.105 -0.0764  0.1259  0.1482
 1479PEP     CB55470  19.224   9.968  16.804  0.0940 -0.1928  0.1866
 1479PEP     CB55471  19.232   9.868  16.345 -0.0835  0.0398  0.1965
 1479PEP     CB55472  19.277   9.855  15.943  0.0183 -0.0029  0.0646
 1479PEP     CB55473  19.380   9.715  15.517  0.0813  0.1279  0.2048
 1479PEP     CB55474  19.536   9.748  15.076  0.0557  0.0433 -0.3140
 1479PEP     CB55475  19.418  10.032  14.749 -0.0626 -0.1026 -0.2359
 1479PEP     CB55476  18.968  10.073  14.749  0.1611  0.1515  0.2751
 1479PEP     CB55477  18.538   9.924  14.980 -0.1394 -0.2701 -0.2047
 1479PEP     CB55478  18.242  10.130  15.262  0.0737  0.0177  0.1205
 1479PEP     CB55479  18.118  10.322  15.617 -0.0472  0.2236 -0.1018
 1479PEP     CB55480  18.246  10.505  15.971  0.1733 -0.2969 -0.0633
 1480PEP     CB55481  15.788   4.810  14.079 -0.0810  0.2387  0.1556
 1480PEP     CB55482  15.413   4.648  14.018 -0.5570  0.2390  0.0578
 1480PEP     CB55483  15.259   4.234  13.911  0.2974  0.3517  0.0395
 1480PEP     CB55484  15.069   3.816  13.842  0.3483 -0.0392  0.2471
 1480PEP     CB55485  14.860   3.503  13.600 -0.1064  0.0007  0.4009
 1480PEP     CB55486  14.784   3.422  13.153  0.1284 -0.0395  0.1911
 1480PEP     CB55487  15.207   3.464  12.885 -0.0298  0.4718 -0.4131
 1480PEP     CB55488  15.363   3.139  12.580 -0.2684  0.1001  0.1106
 1480PEP     CB55489  15.630   2.843  12.389  0.5099 -0.1965  0.0021
 1480PEP     CB55490  15.979   2.756  12.004 -0.4454  0.1002 -0.0626
 1480PEP     CB55491  16.347   2.862  11.814 -0.4531 -0.1015  0.1053
 1480PEP     CB55492  16.575   2.856  11.475  0.1292 -0.1743 -0.0609
 1480PEP     CB55493  17.080   2.854  11.376  0.2169 -0.0753  0.4104
 1480PEP     CB55494  17.327   2.928  11.086 -0.0967 -0.4712 -0.0631
 1480PEP     CB55495  17.535   2.927  10.729 -0.3029 -0.0607  0.0847
 1480PEP     CB55496  17.716   2.896  10.316 -0.1072 -0.1329 -0.0869
 1480PEP     CB55497  17.924   3.131  10.052 -0.0721  0.2344  0.0743
 1480PEP     CB55498  18.178   3.293   9.738  0.1843 -0.2365 -0.3139
 1480PEP     CB55499  18.169   3.633   9.389  0.0575  0.3475 -0.0002
 1480PEP     CB55500  17.971   3.994   9.316  0.3163 -0.0588 -0.1153
 1480PEP     CB55501  17.552   4.214   9.358  0.1673 -0.1435 -0.3467
 1480PEP     CB55502  17.307   4.474   9.704  0.0310 -0.1322  0.1008
 1480PEP     CB55503  17.335   4.988   9.895  0.1600 -0.4891 -0.2738
 1480PEP     CB55504  17.506   5.419   9.760 -0.0272 -0.0797 -0.1176
 1480PEP     CB55505  17.501   5.649   9.381 -0.0402  0.0420  0.3002
 1480PEP     CB55506  17.362   5.872   9.011 -0.1489 -0.1586 -0.5601
 1480PEP     CB55507  17.262   5.879   8.615  0.1524  0.2530 -0.0842
 1480PEP     CB55508  16.867   5.948   8.339  0.0853 -0.0467 -0.2284
 1480PEP     CB55509  16.424   6.048   8.221 -0.1578  0.3988  0.2566
 1480PEP     CB55510  15.944   5.859   8.217  0.2173 -0.2316  0.5409
 1480PEP     CB55511  15.635   5.597   8.035  0.0306 -0.1820  0.2465
 1480PEP     CB55512  15.326   5.392   7.736  0.1529  0.0115  0.4378
 1480PEP     CB55513  15.390   5.227   7.306  0.0279 -0.5368 -0.2567
 1480PEP     CB55514  15.481   5.401   6.909  0.2400 -0.0294  0.3246
 1480PEP     CB55515  15.716   5.162   6.578  0.1703  0.2720  0.3582
 1480PEP     CB55516  16.157   5.156   6.559 -0.1256 -0.4121 -0.1804
 1480PEP     CB55517  16.581   5.238   6.609  0.1977 -0.0423 -0.1483
 1480PEP     CB55518  16.915   5.534   6.543 -0.2138 -0.1566  0.3362
 1480PEP     CB55519  17.085   5.968   6.485 -0.0373  0.0751 -0.0375
 1480PEP     CB55520  17.379   6.310   6.500 -0.2030 -0.2797  0.1689
 1481PEP     CB55521   4.772   3.671  16.781  0.1113 -0.1364  0.2981
 1481PEP     CB55522   4.847   3.249  16.842 -0.0030  0.0891  0.2170
 1481PEP     CB55523   5.233   3.078  16.984 -0.2638 -0.0049  0.0998
 1481PEP     CB55524   5.564   2.856  17.103  0.0603  0.1783 -0.2519
 1481PEP     CB55525   6.080   2.662  17.146  0.3272 -0.1227 -0.0388
 1481PEP     CB55526   6.384   2.362  16.963  0.0180  0.0684 -0.0002
 1481PEP     CB55527   6.917   2.409  16.897  0.0793  0.1792 -0.1543
 1481PEP     CB55528   7.112   2.640  16.584 -0.1207  0.0132  0.2266
 1481PEP     CB55529   6.943   2.579  16.221  0.2546  0.1889  0.2065
 1481PEP     CB55530   6.696   2.462  15.853 -0.0581 -0.1473  0.1187
 1481PEP     CB55531   6.628   2.560  15.407  0.0999 -0.0345  0.4451
 1481PEP     CB55532   6.863   2.393  15.042  0.3587  0.3778 -0.8322
 1481PEP     CB55533   6.825   2.244  14.603 -0.1487  0.0183  0.1324
 1481PEP     CB55534   6.558   2.244  14.302  0.0229  0.3456  0.0813
 1481PEP     CB55535   6.416   2.259  13.903  0.2648 -0.2121  0.1600
 1481PEP     CB55536   6.471   1.832  13.709 -0.1721  0.1401  0.0267
 1481PEP     CB55537   6.481   1.375  13.559  0.3662 -0.9555  0.2444
 1481PEP     CB55538   6.768   1.037  13.449 -0.1581 -0.2737  0.0944
 1481PEP     CB55539   7.164   0.825  13.499 -0.0325 -0.0931  0.0763
 1481PEP     CB55540   7.522   0.574  13.681  0.2785 -0.3687  0.0025
 1481PEP     CB55541   7.701   0.608  14.093  0.2867  0.0231  0.1820
 1481PEP     CB55542   8.006   0.636  14.370 -0.0978 -0.0457 -0.0314
 1481PEP     CB55543   8.286   0.924  14.524 -0.3870 -0.3436  0.2116
 1481PEP     CB55544   8.767   1.117  14.556  0.0215 -0.0467  0.4447
 1481PEP     CB55545   9.029   1.286  14.240  0.4058  0.0587 -0.1724
 1481PEP     CB55546   9.130   1.345  13.782  0.0756  0.1759 -0.4000
 1481PEP     CB55547   9.522   1.473  13.510 -0.2566  0.0307  0.1046
 1481PEP     CB55548   9.765   1.599  13.204 -0.1052  0.4770 -0.3398
 1481PEP     CB55549   9.952   1.908  12.885  0.2567  0.2215 -0.0558
 1481PEP     CB55550  10.250   2.001  12.690 -0.0231  0.0699  0.0519
 1481PEP     CB55551  10.628   2.114  12.411 -0.5817 -0.2625 -0.0750
 1481PEP     CB55552  10.726   2.299  12.056 -0.0922  0.4914  0.1508
 1481PEP     CB55553  10.461   2.624  11.844  0.0397 -0.0127  0.3577
 1481PEP     CB55554  10.306   2.976  12.008  0.0740  0.2504 -0.1301
 1481PEP     CB55555  10.038   2.919  12.413 -0.5706 -0.5537 -0.2615
 1481PEP     CB55556  10.158   2.865  12.867 -0.2259 -0.0455 -0.2266
 1481PEP     CB55557  10.427   2.781  13.200  0.0073  0.0588  0.0700
 1481PEP     CB55558  10.594   2.678  13.540  0.0754 -0.2462  0.3772
 1481PEP     CB55559  10.959   2.529  13.738  0.0348 -0.3951  0.1435
 1481PEP     CB55560  10.998   2.786  14.198 -0.1764  0.1758  0.2046
 1482PEP     CB55561   5.633  13.589  16.317 -0.1726 -0.3361  0.1855
 1482PEP     CB55562   5.890  13.618  16.598 -0.1649  0.0835  0.1255
 1482PEP     CB55563   6.356  13.679  16.772 -0.0043  0.6353 -0.2080
 1482PEP     CB55564   6.649  13.835  16.619  0.0482  0.3775  0.3405
 1482PEP     CB55565   7.048  14.088  16.537  0.0265 -0.0989  0.1737
 1482PEP     CB55566   7.130  14.414  16.807 -0.0727  0.3963 -0.0985
 1482PEP     CB55567   7.105  14.803  17.012 -0.2367  0.0724  0.0941
 1482PEP     CB55568   6.780  15.048  17.102  0.2643 -0.2824 -0.0347
 1482PEP     CB55569   6.505  15.432  17.283 -0.0176  0.1723 -0.0576
 1482PEP     CB55570   6.469  15.852  17.343 -0.3176  0.2529 -0.1031
 1482PEP     CB55571   6.483  16.200  17.551 -0.0197 -0.0481  0.0772
 1482PEP     CB55572   6.409  16.387  17.980 -0.0341  0.0731 -0.1863
 1482PEP     CB55573   6.086  16.471  18.278 -0.1088  0.0671 -0.1080
 1482PEP     CB55574   5.705  16.666  18.251  0.0144  0.0918  0.0871
 1482PEP     CB55575   5.326  16.542  18.030  0.1064 -0.1867 -0.2726
 1482PEP     CB55576   5.019  16.608  17.695 -0.1856 -0.0712 -0.2373
 1482PEP     CB55577   5.016  17.000  17.418  0.4518  0.1204 -0.0054
 1482PEP     CB55578   5.189  17.400  17.497 -0.2371 -0.0761  0.0061
 1482PEP     CB55579   5.511  17.536  17.706  0.1809 -0.0076 -0.0365
 1482PEP     CB55580   5.797  17.367  18.006  0.2234 -0.2588 -0.1865
 1482PEP     CB55581   5.813  17.123  18.526  0.1055  0.1735  0.0717
 1482PEP     CB55582   5.901  16.902  18.811 -0.2409 -0.0005 -0.3678
 1482PEP     CB55583   6.105  16.478  18.837  0.0225  0.0136  0.3827
 1482PEP     CB55584   6.003  16.018  18.763 -0.1462  0.3174 -0.4189
 1482PEP     CB55585   5.801  15.613  18.779 -0.0219 -0.0172 -0.5019
 1482PEP     CB55586   5.385  15.453  18.601  0.0161  0.1212 -0.0580
 1482PEP     CB55587   5.120  15.548  18.295 -0.1083  0.0113  0.1304
 1482PEP     CB55588   4.871  15.967  18.298  0.0500 -0.0817  0.0469
 1482PEP     CB55589   4.447  16.119  18.486 -0.1186  0.2874  0.1981
 1482PEP     CB55590   4.137  16.349  18.704  0.3009 -0.0427 -0.1158
 1482PEP     CB55591   4.071  16.681  19.030  0.1463 -0.3045 -0.5268
 1482PEP     CB55592   3.677  16.987  19.017 -0.0961  0.1899 -0.4043
 1482PEP     CB55593   3.457  17.345  19.243 -0.1771  0.1580  0.1736
 1482PEP     CB55594   3.286  17.754  19.429 -0.1696 -0.3075 -0.1873
 1482PEP     CB55595   3.194  18.056  19.750  0.3618 -0.5207  0.1842
 1482PEP     CB55596   2.778  18.235  19.875 -0.0304  0.1795  0.0991
 1482PEP     CB55597   2.346  18.188  19.931 -0.0599  0.3884 -0.0415
 1482PEP     CB55598   2.005  17.856  19.907  0.0920 -0.4651 -0.1852
 1482PEP     CB55599   1.767  17.483  19.973 -0.0502  0.4262 -0.1828
 1482PEP     CB55600   1.589  17.084  20.043 -0.1590  0.5857 -0.1459
 1483PEP     CB55601   3.689   6.608   1.492  0.1452  0.1837  0.2030
 1483PEP     CB55602   3.979   6.447   1.573  0.1862  0.0353 -0.2170
 1483PEP     CB55603   4.351   6.153   1.786  0.1934  0.0496  0.2552
 1483PEP     CB55604   4.798   5.839   1.782 -0.0778  0.6234  0.0240
 1483PEP     CB55605   5.017   5.694   1.410 -0.2171  0.1466  0.4014
 1483PEP     CB55606   5.065   5.489   0.955  0.3880  0.1533  0.4057
 1483PEP     CB55607   4.855   5.487   0.533  0.1901  0.2945  0.2151
 1483PEP     CB55608   4.590   5.551   0.117 -0.2414  0.1184 -0.5386
 1483PEP     CB55609   4.352   5.778  -0.221  0.0487 -0.0738 -0.4121
 1483PEP     CB55610   3.854   5.682  -0.419  0.2415  0.1075  0.0418
 1483PEP     CB55611   3.748   5.302  -0.577 -0.0606  0.1129  0.0095
 1483PEP     CB55612   4.019   5.126  -0.853  0.1162 -0.4306  0.1680
 1483PEP     CB55613   4.373   4.815  -0.856 -0.4345  0.3089  0.3109
 1483PEP     CB55614   4.595   4.551  -1.098 -0.0917 -0.1729  0.1704
 1483PEP     CB55615   4.437   4.169  -1.275 -0.1721  0.1974 -0.0151
 1483PEP     CB55616   4.061   3.931  -1.337 -0.1905  0.1791  0.1041
 1483PEP     CB55617   3.904   3.750  -0.924 -0.3480 -0.2561  0.0343
 1483PEP     CB55618   4.230   3.523  -0.597  0.1118 -0.1162  0.0361
 1483PEP     CB55619   4.619   3.679  -0.473  0.4159 -0.0015 -0.0228
 1483PEP     CB55620   4.996   3.770  -0.457 -0.0020  0.1805 -0.1231
 1483PEP     CB55621   5.528   3.671  -0.373 -0.3880 -0.0609  0.1151
 1483PEP     CB55622   5.909   3.938  -0.229  0.0106  0.3061  0.0757
 1483PEP     CB55623   6.003   4.293  -0.052 -0.0155  0.1491 -0.2863
 1483PEP     CB55624   6.103   4.638   0.292  0.2994 -0.5128 -0.1478
 1483PEP     CB55625   6.102   5.012   0.240  0.0439 -0.3500  0.4204
 1483PEP     CB55626   5.784   5.326   0.168  0.1259 -0.2764 -0.0607
 1483PEP     CB55627   5.636   5.743   0.081 -0.4122  0.0221 -0.1454
 1483PEP     CB55628   5.415   6.100  -0.100 -0.0735  0.0624 -0.0878
 1483PEP     CB55629   5.247   6.529  -0.321 -0.3412 -0.1079  0.2029
 1483PEP     CB55630   5.256   6.829  -0.657  0.0392 -0.1625  0.3331
 1483PEP     CB55631   5.334   6.799  -1.062 -0.0083 -0.0818  0.0331
 1483PEP     CB55632   5.599   6.618  -1.335  0.1631 -0.0681 -0.3100
 1483PEP     CB55633   6.048   6.705  -1.525  0.2941 -0.0579 -0.3412
 1483PEP     CB55634   6.568   6.801  -1.634 -0.1527 -0.1720 -0.0941
 1483PEP     CB55635   6.881   6.942  -1.544  0.1412 -0.0229  0.0985
 1483PEP     CB55636   7.277   6.867  -1.348 -0.2031 -0.1694 -0.4695
 1483PEP     CB55637   7.686   6.583  -1.300 -0.0342 -0.3170  0.1739
 1483PEP     CB55638   8.130   6.466  -1.301 -0.1701  0.1974 -0.1246
 1483PEP     CB55639   8.402   6.301  -1.092 -0.0517  0.3000 -0.0882
 1483PEP     CB55640   8.382   5.913  -0.898 -0.0559 -0.2615 -0.1389
 1484PEP     CB55641  10.442   1.845  14.824  0.0832  0.0465  0.2738
 1484PEP     CB55642  10.376   1.585  14.463 -0.5067  0.0748 -0.0261
 1484PEP     CB55643  10.533   1.374  14.271  0.0309  0.1136  0.0035
 1484PEP     CB55644  10.790   1.399  13.844  0.1917 -0.0626 -0.0006
 1484PEP     CB55645  11.171   1.169  13.612  0.1641  0.3277  0.1432
 1484PEP     CB55646  11.305   1.281  13.220  0.2660 -0.0220 -0.2699
 1484PEP     CB55647  11.391   1.708  13.154 -0.3822  0.0559  0.2066
 1484PEP     CB55648  11.648   1.844  13.507 -0.0055  0.5804 -0.0882
 1484PEP     CB55649  12.016   1.881  13.719  0.0215  0.0387  0.1642
 1484PEP     CB55650  12.424   1.753  13.812  0.0511  0.2764  0.1500
 1484PEP     CB55651  12.813   1.825  14.070  0.0710 -0.1350  0.4251
 1484PEP     CB55652  12.898   1.819  14.505  0.3387 -0.1190  0.2916
 1484PEP     CB55653  12.555   1.836  14.801  0.3244  0.3247 -0.0569
 1484PEP     CB55654  12.197   1.532  14.724 -0.2039 -0.0955  0.0207
 1484PEP     CB55655  11.973   1.350  14.377 -0.0845 -0.0676 -0.2138
 1484PEP     CB55656  12.057   1.110  14.030 -0.0951  0.1381 -0.1423
 1484PEP     CB55657  12.187   0.678  13.895 -0.0093  0.0781  0.0407
 1484PEP     CB55658  12.199   0.184  13.878  0.0207 -0.0254  0.1286
 1484PEP     CB55659  12.033  -0.200  13.710 -0.2003 -0.1157 -0.0678
 1484PEP     CB55660  11.944  -0.586  13.798  0.2043 -0.1212 -0.0237
 1484PEP     CB55661  11.922  -1.014  13.949 -0.1086 -0.1219  0.3975
 1484PEP     CB55662  11.721  -1.431  14.138  0.4742  0.1668 -0.0657
 1484PEP     CB55663  11.838  -1.875  14.329 -0.0985 -0.3391 -0.3740
 1484PEP     CB55664  12.172  -2.055  14.574  0.2551  0.1322 -0.1987
 1484PEP     CB55665  12.532  -2.071  14.789  0.1347 -0.0668  0.0534
 1484PEP     CB55666  12.917  -1.984  15.137  0.3027 -0.0165  0.0002
 1484PEP     CB55667  13.193  -2.171  15.548  0.1106  0.1711 -0.5218
 1484PEP     CB55668  13.572  -2.153  15.828  0.4711 -0.1010  0.0431
 1484PEP     CB55669  13.769  -2.074  16.147  0.0918  0.0467 -0.1449
 1484PEP     CB55670  14.115  -2.150  16.293 -0.3888  0.1462  0.0554
 1484PEP     CB55671  14.495  -2.128  16.057  0.0438 -0.0231  0.4389
 1484PEP     CB55672  14.666  -1.683  15.897 -0.0009  0.2552  0.2653
 1484PEP     CB55673  14.546  -1.429  16.070 -0.2861  0.3945  0.2572
 1484PEP     CB55674  14.763  -1.054  16.236 -0.0099  0.3835  0.0785
 1484PEP     CB55675  15.195  -0.815  16.176  0.0246  0.0316  0.2967
 1484PEP     CB55676  15.458  -0.436  16.072  0.0560 -0.0171  0.0965
 1484PEP     CB55677  15.637  -0.015  16.272 -0.3236 -0.1578  0.1844
 1484PEP     CB55678  15.945   0.058  16.595  0.6388 -0.0015  0.0223
 1484PEP     CB55679  16.183  -0.242  16.840 -0.2105 -0.3088  0.0615
 1484PEP     CB55680  16.353  -0.639  17.037  0.2298  0.0655  0.1039
 1485PEP     CB55681  12.115  16.141  17.689  0.0798  0.1941 -0.1065
 1485PEP     CB55682  12.483  16.257  17.511 -0.4224  0.0740  0.1109
 1485PEP     CB55683  12.802  16.409  17.634  0.2010  0.0897 -0.0759
 1485PEP     CB55684  12.978  16.522  18.061 -0.2402 -0.1956  0.1487
 1485PEP     CB55685  12.811  16.507  18.440 -0.0309  0.0109  0.1812
 1485PEP     CB55686  12.679  16.418  18.897 -0.1459 -0.0106  0.0645
 1485PEP     CB55687  12.455  16.333  19.270 -0.2342 -0.3308  0.1614
 1485PEP     CB55688  12.048  16.372  19.516  0.1894  0.5484  0.2903
 1485PEP     CB55689  11.712  16.570  19.706  0.1433 -0.1136  0.1426
 1485PEP     CB55690  11.530  16.932  19.752 -0.0571  0.2943  0.2230
 1485PEP     CB55691  11.339  17.293  19.983 -0.2290  0.2568 -0.0554
 1485PEP     CB55692  10.920  17.433  20.167  0.0446 -0.1269 -0.2286
 1485PEP     CB55693  10.505  17.400  20.140  0.1146  0.2796  0.1388
 1485PEP     CB55694  10.145  17.470  19.881  0.6353  0.1231 -0.2244
 1485PEP     CB55695   9.955  17.229  19.598  0.1892 -0.0028 -0.3112
 1485PEP     CB55696  10.038  16.811  19.522  0.1959 -0.2389 -0.6595
 1485PEP     CB55697  10.326  16.589  19.568  0.3907  0.0203  0.0542
 1485PEP     CB55698  10.695  16.446  19.362 -0.1777  0.2936  0.0912
 1485PEP     CB55699  10.919  16.469  19.112 -0.3028  0.0878 -0.2439
 1485PEP     CB55700  10.908  16.441  18.684 -0.0026 -0.1401 -0.0299
 1485PEP     CB55701  10.777  16.636  18.333  0.0562  0.1430 -0.1932
 1485PEP     CB55702  10.460  16.592  18.085  0.0520 -0.0089 -0.0711
 1485PEP     CB55703   9.979  16.352  18.129 -0.0322 -0.0023 -0.3575
 1485PEP     CB55704   9.851  16.137  18.508  0.0833  0.1352 -0.1058
 1485PEP     CB55705   9.507  16.044  18.672  0.1482  0.2466 -0.6812
 1485PEP     CB55706   9.058  16.173  18.802  0.1320 -0.0687 -0.0441
 1485PEP     CB55707   8.618  16.103  18.816 -0.1892 -0.1238  0.0765
 1485PEP     CB55708   8.164  16.149  18.880 -0.0385  0.1353  0.1159
 1485PEP     CB55709   7.734  16.301  18.957 -0.1264  0.0889  0.3857
 1485PEP     CB55710   7.390  16.209  18.760 -0.0685 -0.1592  0.1393
 1485PEP     CB55711   7.160  15.939  18.506 -0.0179  0.1703  0.1679
 1485PEP     CB55712   7.055  15.821  18.058  0.1577 -0.1226  0.0945
 1485PEP     CB55713   6.999  16.010  17.554 -0.3437 -0.3204  0.4219
 1485PEP     CB55714   6.970  16.386  17.307 -0.2213  0.2474 -0.2054
 1485PEP     CB55715   6.928  16.853  17.244  0.3496 -0.1117 -0.1918
 1485PEP     CB55716   6.904  17.277  17.412 -0.2704  0.3246 -0.2636
 1485PEP     CB55717   6.967  17.509  17.715 -0.2493 -0.2269 -0.1611
 1485PEP     CB55718   7.118  17.691  18.168 -0.1074  0.0708 -0.0426
 1485PEP     CB55719   7.042  17.821  18.659 -0.1636 -0.2091 -0.2290
 1485PEP     CB55720   6.777  17.901  18.997 -0.0178 -0.0135 -0.0900
 1486PEP     CB55721  18.496  21.068  19.021 -0.1441  0.0836  0.0966
 1486PEP     CB55722  18.343  21.260  19.348 -0.0707 -0.5114 -0.4228
 1486PEP     CB55723  18.292  21.740  19.602 -0.4569 -0.1258 -0.2342
 1486PEP     CB55724  18.490  22.024  19.875  0.2546  0.1056  0.0551
 1486PEP     CB55725  18.723  22.425  20.044  0.1193 -0.0619 -0.3552
 1486PEP     CB55726  18.968  22.807  20.199  0.0464 -0.1336 -0.2249
 1486PEP     CB55727  19.349  22.963  20.103  0.1338 -0.0195  0.2931
 1486PEP     CB55728  19.418  22.944  19.575 -0.1578 -0.0547  0.3068
 1486PEP     CB55729  19.297  22.829  19.179 -0.3837 -0.1923 -0.2651
 1486PEP     CB55730  19.227  22.509  19.006 -0.2474  0.1491 -0.1965
 1486PEP     CB55731  19.236  22.050  19.010  0.2100  0.2816 -0.1794
 1486PEP     CB55732  19.478  21.623  19.074 -0.1342  0.0994 -0.2958
 1486PEP     CB55733  19.830  21.421  19.344  0.0430  0.0023 -0.2203
 1486PEP     CB55734  20.215  21.350  19.214  0.0850 -0.0471  0.0237
 1486PEP     CB55735  20.593  21.265  19.367 -0.2925 -0.1928 -0.2915
 1486PEP     CB55736  20.849  20.954  19.612  0.5430  0.2063  0.3122
 1486PEP     CB55737  21.140  20.660  19.658 -0.0681  0.2809  0.3017
 1486PEP     CB55738  21.315  20.428  19.389 -0.4799  0.0048  0.0202
 1486PEP     CB55739  21.011  20.201  19.096 -0.0243  0.1647  0.1800
 1486PEP     CB55740  20.559  20.147  19.060 -0.0864  0.2384  0.1268
 1486PEP     CB55741  20.252  20.564  19.149 -0.3463  0.3675 -0.0764
 1486PEP     CB55742  20.297  20.904  19.480  0.4008  0.1969 -0.2111
 1486PEP     CB55743  20.488  21.074  19.896 -0.3459 -0.0705 -0.1270
 1486PEP     CB55744  20.577  20.978  20.354  0.0603  0.1142 -0.2438
 1486PEP     CB55745  20.761  20.620  20.583 -0.1458  0.1605  0.0173
 1486PEP     CB55746  20.968  20.282  20.319 -0.1868 -0.3813 -0.4539
 1486PEP     CB55747  20.979  20.160  19.908  0.0548  0.0823 -0.3699
 1486PEP     CB55748  20.675  19.934  19.686 -0.1272 -0.2653  0.1774
 1486PEP     CB55749  20.459  19.525  19.807 -0.0114 -0.3145  0.1036
 1486PEP     CB55750  20.123  19.479  20.106 -0.1563  0.2293  0.3087
 1486PEP     CB55751  20.102  19.445  20.566 -0.4043  0.0371 -0.1253
 1486PEP     CB55752  19.825  19.232  20.951 -0.1066 -0.2710 -0.0241
 1486PEP     CB55753  19.626  19.292  21.313  0.1538  0.0952  0.2939
 1486PEP     CB55754  19.460  19.159  21.760  0.0246 -0.3157 -0.1352
 1486PEP     CB55755  19.516  19.085  22.192  0.0289  0.0321  0.5531
 1486PEP     CB55756  19.295  18.763  22.440  0.1864 -0.2113 -0.1763
 1486PEP     CB55757  18.896  18.636  22.578 -0.2135 -0.1044 -0.1012
 1486PEP     CB55758  18.577  18.842  22.727  0.0212  0.0073 -0.0939
 1486PEP     CB55759  18.272  19.043  23.017 -0.0627 -0.2677  0.1168
 1486PEP     CB55760  18.164  19.134  23.398  0.3889 -0.1434  0.1403
 1487PEP     CB55761  18.659   9.696   4.023 -0.0577 -0.2923  0.2479
 1487PEP     CB55762  18.605   9.642   4.500  0.2109  0.0757  0.2180
 1487PEP     CB55763  18.465   9.676   4.924  0.0886 -0.1759 -0.0346
 1487PEP     CB55764  18.487   9.782   5.415 -0.1040 -0.0718  0.4810
 1487PEP     CB55765  18.687   9.954   5.889 -0.0656 -0.2329 -0.1449
 1487PEP     CB55766  18.746  10.285   6.171  0.1009  0.3143  0.3572
 1487PEP     CB55767  18.990  10.677   6.180 -0.2238  0.1506 -0.0738
 1487PEP     CB55768  19.027  10.972   5.857 -0.1736  0.2598  0.3285
 1487PEP     CB55769  19.258  10.896   5.482 -0.0495 -0.0989 -0.4056
 1487PEP     CB55770  19.679  10.824   5.513 -0.0206 -0.1386  0.1234
 1487PEP     CB55771  19.757  11.118   5.726  0.2751 -0.0390  0.0764
 1487PEP     CB55772  19.536  11.397   5.696 -0.0075  0.0861 -0.2753
 1487PEP     CB55773  19.238  11.411   5.454 -0.0992 -0.0233  0.0331
 1487PEP     CB55774  18.944  11.330   5.111 -0.2432  0.0578  0.0142
 1487PEP     CB55775  18.535  11.477   5.041 -0.1536 -0.2398  0.1088
 1487PEP     CB55776  18.223  11.363   5.360 -0.2120 -0.2152 -0.0321
 1487PEP     CB55777  17.857  11.129   5.237  0.0395 -0.2298 -0.3515
 1487PEP     CB55778  17.384  11.100   5.485  0.0333 -0.2559 -0.0642
 1487PEP     CB55779  17.190  11.344   5.822  0.2265 -0.0184  0.1814
 1487PEP     CB55780  17.151  11.431   6.197  0.0841 -0.0806 -0.1127
 1487PEP     CB55781  17.072  11.581   6.638  0.1381 -0.2255  0.1276
 1487PEP     CB55782  17.146  11.648   7.096 -0.0598 -0.3456  0.2481
 1487PEP     CB55783  16.807  11.869   7.455  0.2983  0.3007 -0.0663
 1487PEP     CB55784  16.705  12.233   7.636 -0.1959 -0.2301 -0.1261
 1487PEP     CB55785  16.762  12.699   7.751  0.1588 -0.3809  0.3863
 1487PEP     CB55786  16.774  13.153   7.917 -0.2275 -0.1773 -0.0359
 1487PEP     CB55787  17.026  13.497   8.036  0.0323  0.2664 -0.2363
 1487PEP     CB55788  17.241  13.842   8.001  0.4625 -0.0699 -0.0144
 1487PEP     CB55789  17.591  13.966   7.757 -0.3341 -0.3731  0.0242
 1487PEP     CB55790  17.783  13.797   7.412  0.0299 -0.1376  0.1954
 1487PEP     CB55791  17.815  13.455   7.300  0.0279 -0.0124 -0.0765
 1487PEP     CB55792  17.787  13.066   7.549  0.1129  0.4503 -0.1487
 1487PEP     CB55793  17.839  12.878   7.866 -0.3064  0.0599 -0.0681
 1487PEP     CB55794  17.644  12.786   8.219  0.1367 -0.1538 -0.3744
 1487PEP     CB55795  17.250  12.759   8.512  0.0029 -0.1659  0.0155
 1487PEP     CB55796  17.167  12.844   8.951  0.1761  0.0824  0.0197
 1487PEP     CB55797  17.488  12.933   9.313  0.0151  0.0832  0.1435
 1487PEP     CB55798  17.913  12.985   9.319  0.1327 -0.1519 -0.3417
 1487PEP     CB55799  18.230  13.152   9.508  0.1569  0.3030  0.0085
 1487PEP     CB55800  18.657  13.115   9.661  0.1128  0.1925 -0.2051
 1488PEP     CB55801  20.202  15.974  10.619  0.1340  0.6573  0.1904
 1488PEP     CB55802  19.883  15.883  10.457  0.0673 -0.0704  0.3604
 1488PEP     CB55803  19.424  15.759  10.350 -0.3900  0.2601 -0.0782
 1488PEP     CB55804  19.121  15.953  10.068 -0.0759  0.0646  0.0366
 1488PEP     CB55805  19.107  16.412   9.874 -0.0394  0.1784  0.1839
 1488PEP     CB55806  19.170  16.777   9.603 -0.2513 -0.0174 -0.1107
 1488PEP     CB55807  19.622  16.853   9.338  0.4268 -0.5531  0.0248
 1488PEP     CB55808  20.139  16.868   9.585  0.1032  0.0058  0.0482
 1488PEP     CB55809  20.352  16.603   9.762  0.3740 -0.5699  0.1856
 1488PEP     CB55810  20.617  16.274   9.776  0.0500  0.2494 -0.0290
 1488PEP     CB55811  21.084  16.090   9.918 -0.0675 -0.0869  0.0449
 1488PEP     CB55812  21.540  15.955   9.864  0.1113  0.0202  0.2133
 1488PEP     CB55813  21.962  15.770   9.692  0.0364  0.1189  0.1707
 1488PEP     CB55814  22.384  15.775   9.522 -0.0106  0.2586  0.2146
 1488PEP     CB55815  22.717  15.725   9.242  0.0287 -0.2666  0.1214
 1488PEP     CB55816  22.797  15.935   8.809  0.3650  0.2457  0.0129
 1488PEP     CB55817  22.520  15.823   8.453 -0.3222  0.0655  0.0560
 1488PEP     CB55818  22.076  15.714   8.522 -0.1601  0.2974  0.5301
 1488PEP     CB55819  21.809  15.401   8.348 -0.0289 -0.0973  0.0399
 1488PEP     CB55820  21.476  15.298   8.170  0.3463  0.1936 -0.1622
 1488PEP     CB55821  21.398  14.915   7.923 -0.2921 -0.1402 -0.0323
 1488PEP     CB55822  21.657  14.560   8.055 -0.0519  0.0868 -0.0127
 1488PEP     CB55823  22.163  14.517   8.020 -0.0416  0.2335  0.1494
 1488PEP     CB55824  22.452  14.819   7.924 -0.1802 -0.3134  0.2250
 1488PEP     CB55825  22.383  15.237   7.625  0.1313 -0.0140 -0.1735
 1488PEP     CB55826  22.056  15.195   7.270 -0.1541  0.1237 -0.1362
 1488PEP     CB55827  21.629  14.882   7.199 -0.0137  0.6483  0.1135
 1488PEP     CB55828  21.123  14.807   7.399 -0.0986 -0.1682 -0.1247
 1488PEP     CB55829  20.844  15.031   7.740 -0.1315  0.1877  0.0426
 1488PEP     CB55830  20.962  15.383   7.800 -0.0797 -0.0654 -0.2777
 1488PEP     CB55831  21.330  15.652   7.806 -0.2421  0.0575  0.0519
 1488PEP     CB55832  21.574  15.875   7.438 -0.2139  0.0583 -0.2070
 1488PEP     CB55833  21.680  15.724   7.095  0.1816 -0.1593  0.2466
 1488PEP     CB55834  21.443  15.367   6.887 -0.3151  0.0824  0.3744
 1488PEP     CB55835  21.220  14.994   6.972 -0.2026 -0.1032  0.1406
 1488PEP     CB55836  20.882  14.630   6.930  0.3231  0.2909  0.0318
 1488PEP     CB55837  20.668  14.449   6.678 -0.0766  0.1656  0.4076
 1488PEP     CB55838  20.320  14.474   6.461 -0.0659  0.0739 -0.1378
 1488PEP     CB55839  19.962  14.465   6.685  0.0202 -0.0176 -0.0397
 1488PEP     CB55840  19.623  14.703   6.818  0.2316 -0.3168 -0.1360
 1489PEP     CB55841  21.300  13.268  20.791  0.0840  0.1640  0.2168
 1489PEP     CB55842  21.624  13.528  20.506  0.2823  0.1488  0.0119
 1489PEP     CB55843  21.957  13.723  20.340  0.1464  0.0022 -0.0288
 1489PEP     CB55844  22.230  14.019  20.506  0.0700 -0.0397  0.0650
 1489PEP     CB55845  22.431  14.334  20.610  0.0809  0.1387 -0.0277
 1489PEP     CB55846  22.662  14.648  20.954 -0.1269  0.0263  0.2414
 1489PEP     CB55847  22.733  14.952  21.300 -0.6183 -0.0221 -0.1277
 1489PEP     CB55848  22.590  15.220  21.654 -0.2673  0.0519 -0.0907
 1489PEP     CB55849  22.609  15.522  21.970 -0.4316 -0.1256  0.3610
 1489PEP     CB55850  22.577  15.900  22.211  0.2138  0.4405  0.1449
 1489PEP     CB55851  22.322  16.229  22.096 -0.0361  0.1720  0.0159
 1489PEP     CB55852  22.314  16.512  21.814 -0.4483  0.2668 -0.2567
 1489PEP     CB55853  22.408  16.283  21.322  0.0458 -0.0817  0.3796
 1489PEP     CB55854  22.332  15.930  21.115  0.0551  0.0622 -0.0641
 1489PEP     CB55855  22.492  15.557  21.048 -0.1376  0.2077  0.0890
 1489PEP     CB55856  22.743  15.232  20.887 -0.0578  0.1570  0.0629
 1489PEP     CB55857  23.063  15.072  20.624 -0.1644 -0.4415 -0.2903
 1489PEP     CB55858  23.151  14.631  20.629  0.4104 -0.1560  0.1697
 1489PEP     CB55859  22.918  14.231  20.840 -0.0923  0.4246  0.0914
 1489PEP     CB55860  22.554  13.959  20.879  0.1343 -0.1865  0.2746
 1489PEP     CB55861  22.338  13.624  20.896 -0.0218  0.2541  0.1763
 1489PEP     CB55862  22.449  13.243  20.796  0.0003 -0.0525 -0.2158
 1489PEP     CB55863  22.720  13.040  20.575  0.0280 -0.3054 -0.1982
 1489PEP     CB55864  22.703  12.530  20.465  0.5518 -0.0454 -0.0169
 1489PEP     CB55865  22.862  12.000  20.388 -0.0065 -0.0422 -0.0293
 1489PEP     CB55866  22.779  11.651  20.220 -0.4525 -0.2708 -0.0155
 1489PEP     CB55867  22.777  11.458  19.832  0.2489  0.1463 -0.2598
 1489PEP     CB55868  22.681  11.028  19.597  0.4486 -0.0688 -0.1584
 1489PEP     CB55869  22.512  10.885  19.355 -0.0382 -0.1599 -0.4103
 1489PEP     CB55870  22.188  10.717  19.071 -0.1332  0.1464 -0.1364
 1489PEP     CB55871  21.800  10.589  18.821  0.2272  0.0042  0.2644
 1489PEP     CB55872  21.394  10.581  18.539  0.2207  0.2102  0.2909
 1489PEP     CB55873  20.981  10.704  18.520  0.0321  0.3931 -0.0692
 1489PEP     CB55874  20.597  10.954  18.354  0.0923  0.0728 -0.2218
 1489PEP     CB55875  20.222  11.183  18.205  0.1467  0.2292 -0.1480
 1489PEP     CB55876  19.951  11.472  18.161  0.1787  0.1975  0.0590
 1489PEP     CB55877  19.600  11.695  18.101  0.1880 -0.1154  0.1364
 1489PEP     CB55878  19.247  11.722  17.873 -0.3952 -0.2207 -0.3069
 1489PEP     CB55879  19.187  11.472  17.529 -0.3781 -0.1889 -0.0585
 1489PEP     CB55880  19.411  11.148  17.264 -0.1139  0.1011  0.1246
 1490PEP     CB55881   1.735   4.985   9.905 -0.2008  0.0970 -0.1855
 1490PEP     CB55882   1.608   5.442   9.947  0.2542 -0.0343 -0.2998
 1490PEP     CB55883   1.633   5.930  10.047  0.0030  0.1280 -0.5682
 1490PEP     CB55884   1.576   6.345   9.967  0.3460  0.4167  0.2223
 1490PEP     CB55885   1.767   6.809   9.833  0.1282 -0.1652  0.0917
 1490PEP     CB55886   1.929   7.129   9.854 -0.1030 -0.0064  0.5632
 1490PEP     CB55887   1.789   7.569   9.762 -0.0458  0.0920  0.4278
 1490PEP     CB55888   1.560   7.992   9.738 -0.1019 -0.3700  0.1143
 1490PEP     CB55889   1.122   7.979   9.559 -0.3786 -0.2412 -0.2307
 1490PEP     CB55890   0.861   7.629   9.650 -0.0212 -0.1330  0.0185
 1490PEP     CB55891   0.943   7.184   9.606 -0.3491 -0.1450  0.3602
 1490PEP     CB55892   0.980   6.962   9.193  0.1313 -0.2174 -0.1845
 1490PEP     CB55893   1.287   7.008   8.951 -0.0253 -0.2324 -0.1742
 1490PEP     CB55894   1.619   6.946   8.647 -0.1267  0.0146 -0.1956
 1490PEP     CB55895   1.613   6.816   8.192 -0.1187 -0.2957  0.4749
 1490PEP     CB55896   1.963   6.679   7.904  0.0284 -0.1696 -0.0417
 1490PEP     CB55897   2.295   6.406   7.971 -0.0192  0.0623  0.0413
 1490PEP     CB55898   2.357   6.035   8.179  0.3605  0.6846 -0.1553
 1490PEP     CB55899   2.327   5.578   8.325 -0.4249  0.2497  0.2342
 1490PEP     CB55900   2.406   5.126   8.266  0.2047  0.1711  0.1084
 1490PEP     CB55901   2.421   4.819   8.032 -0.5680  0.0178 -0.0150
 1490PEP     CB55902   2.334   4.463   7.784  0.4615 -0.4704  0.3231
 1490PEP     CB55903   2.140   4.166   7.461 -0.1158 -0.3336  0.5946
 1490PEP     CB55904   1.731   4.231   7.272 -0.4216 -0.3506 -0.2638
 1490PEP     CB55905   1.451   4.555   7.275 -0.0008 -0.3861  0.4269
 1490PEP     CB55906   1.121   4.877   7.253 -0.1103  0.0378  0.0542
 1490PEP     CB55907   1.076   5.287   7.198  0.0710 -0.3158  0.0182
 1490PEP     CB55908   1.239   5.601   7.477  0.4678  0.0494 -0.0248
 1490PEP     CB55909   1.695   5.636   7.620 -0.1649  0.0669 -0.4812
 1490PEP     CB55910   2.079   5.756   7.744  0.0496  0.1860 -0.0048
 1490PEP     CB55911   2.475   5.995   7.621 -0.1058 -0.0429 -0.2486
 1490PEP     CB55912   2.721   6.323   7.553 -0.0760 -0.0958  0.1734
 1490PEP     CB55913   2.541   6.735   7.675  0.0482 -0.0884  0.3168
 1490PEP     CB55914   2.426   7.130   7.752  0.1290 -0.1070 -0.0957
 1490PEP     CB55915   2.207   7.562   7.851 -0.1645 -0.0452 -0.1870
 1490PEP     CB55916   1.986   7.805   8.212 -0.1693 -0.3284  0.0681
 1490PEP     CB55917   2.078   7.790   8.699 -0.1471  0.1630 -0.0160
 1490PEP     CB55918   2.021   7.791   9.174  0.3161  0.2693  0.0096
 1490PEP     CB55919   2.157   7.913   9.518 -0.1159  0.1639  0.3266
 1490PEP     CB55920   2.082   8.150   9.923  0.0978 -0.0492  0.0610
 1491PEP     CB55921  13.664   3.943  11.594 -0.1162  0.0569  0.0911
 1491PEP     CB55922  13.327   3.765  11.309 -0.3264 -0.1586 -0.2063
 1491PEP     CB55923  13.258   3.728  10.852  0.1857  0.1040 -0.0022
 1491PEP     CB55924  13.564   3.787  10.454 -0.0483  0.1875  0.3623
 1491PEP     CB55925  14.052   4.039  10.435  0.0462 -0.0551 -0.4000
 1491PEP     CB55926  14.212   4.032  10.860 -0.1622 -0.3040  0.1656
 1491PEP     CB55927  14.243   4.063  11.272 -0.1352  0.1149  0.1500
 1491PEP     CB55928  14.183   4.202  11.600  0.1855  0.1510  0.4261
 1491PEP     CB55929  13.797   4.361  11.835  0.1785  0.2725 -0.0437
 1491PEP     CB55930  13.354   4.434  11.865 -0.2732  0.1528  0.0711
 1491PEP     CB55931  13.077   4.426  11.486 -0.1302  0.2931 -0.4340
 1491PEP     CB55932  13.005   4.152  11.219  0.2146  0.1071 -0.0846
 1491PEP     CB55933  12.741   3.959  10.950  0.0993  0.0493 -0.4615
 1491PEP     CB55934  12.533   3.871  10.560 -0.0888  0.2231  0.3109
 1491PEP     CB55935  12.536   3.754  10.164  0.2460  0.1152  0.2765
 1491PEP     CB55936  12.809   3.588   9.838  0.1816 -0.2896 -0.2100
 1491PEP     CB55937  13.192   3.431   9.921 -0.2128 -0.3652 -0.0592
 1491PEP     CB55938  13.536   3.682   9.952 -0.3255 -0.1356  0.2901
 1491PEP     CB55939  13.688   4.098  10.097 -0.0252 -0.3473  0.0806
 1491PEP     CB55940  13.978   4.339   9.854 -0.1385 -0.0535 -0.1596
 1491PEP     CB55941  14.094   4.595   9.512  0.0607  0.1287 -0.0653
 1491PEP     CB55942  14.034   4.787   9.073  0.0072 -0.1607 -0.2436
 1491PEP     CB55943  14.224   4.881   8.665  0.1123 -0.1700 -0.1701
 1491PEP     CB55944  14.403   4.907   8.279  0.1109  0.5791  0.2942
 1491PEP     CB55945  14.699   4.762   7.989 -0.6741  0.3866 -0.1486
 1491PEP     CB55946  14.924   4.391   8.001 -0.0412  0.3330 -0.1766
 1491PEP     CB55947  15.277   4.404   8.292  0.1024 -0.2713 -0.1475
 1491PEP     CB55948  15.267   4.705   8.666 -0.3934  0.3123 -0.1614
 1491PEP     CB55949  15.050   4.853   9.042 -0.0903  0.2103 -0.2280
 1491PEP     CB55950  15.146   5.077   9.459  0.0122 -0.3195  0.1098
 1491PEP     CB55951  15.159   5.288   9.905 -0.1255  0.0672 -0.1417
 1491PEP     CB55952  15.231   5.160  10.294  0.4039  0.0441  0.3251
 1491PEP     CB55953  15.312   4.812  10.518  0.1137 -0.2509 -0.3773
 1491PEP     CB55954  15.603   4.848  10.986 -0.0074  0.3682 -0.1501
 1491PEP     CB55955  15.962   5.041  11.028  0.0649  0.1839 -0.0245
 1491PEP     CB55956  16.399   5.086  10.878  0.1873  0.1993 -0.0942
 1491PEP     CB55957  16.642   4.850  10.616  0.1214 -0.2054 -0.0193
 1491PEP     CB55958  16.472   4.465  10.483  0.3383 -0.1335  0.0548
 1491PEP     CB55959  16.130   4.117  10.557 -0.4378 -0.1039 -0.2347
 1491PEP     CB55960  15.871   3.712  10.529 -0.1910  0.0827 -0.1528
 1492PEP     CB55961   1.738  21.859  12.722 -0.0167  0.1807  0.1925
 1492PEP     CB55962   1.736  21.859  12.303 -0.1827 -0.1088  0.4136
 1492PEP     CB55963   1.656  22.204  12.037  0.0861  0.5095 -0.2708
 1492PEP     CB55964   1.649  22.637  11.895 -0.0893 -0.0428 -0.1355
 1492PEP     CB55965   1.416  22.917  12.077 -0.0718  0.0169  0.2199
 1492PEP     CB55966   1.215  23.208  12.338 -0.0187  0.0951 -0.0882
 1492PEP     CB55967   0.961  23.341  12.685  0.2762 -0.1164 -0.0132
 1492PEP     CB55968   1.054  23.120  13.111 -0.0809 -0.0352  0.1987
 1492PEP     CB55969   1.485  23.049  13.122 -0.0476  0.5460  0.3309
 1492PEP     CB55970   1.753  23.215  12.921 -0.1642 -0.0109 -0.2852
 1492PEP     CB55971   1.852  23.647  12.919 -0.4064 -0.0215 -0.1822
 1492PEP     CB55972   1.853  24.147  13.152  0.0803 -0.1463 -0.0134
 1492PEP     CB55973   1.558  24.503  13.306  0.2845  0.2169 -0.2173
 1492PEP     CB55974   1.106  24.483  13.231  0.0924  0.0557  0.2207
 1492PEP     CB55975   0.690  24.318  13.018  0.3789  0.0962  0.0771
 1492PEP     CB55976   0.216  24.175  13.056  0.1862 -0.1681 -0.0915
 1492PEP     CB55977  -0.174  24.017  13.151  0.2506 -0.6006 -0.2586
 1492PEP     CB55978  -0.438  23.735  13.311 -0.1004  0.4084  0.0960
 1492PEP     CB55979  -0.614  23.283  13.370 -0.2331 -0.3257  0.0265
 1492PEP     CB55980  -0.593  22.927  13.039 -0.0775 -0.3343  0.3683
 1492PEP     CB55981  -0.488  22.885  12.699 -0.0215  0.2971  0.2867
 1492PEP     CB55982  -0.574  23.024  12.280  0.1705 -0.0166 -0.2045
 1492PEP     CB55983  -0.451  23.180  11.926  0.0116  0.3072 -0.0942
 1492PEP     CB55984  -0.290  23.534  11.746 -0.0060 -0.1991  0.1743
 1492PEP     CB55985  -0.151  23.834  11.509  0.3244  0.0380  0.0091
 1492PEP     CB55986   0.190  23.984  11.208  0.0118 -0.4012 -0.4491
 1492PEP     CB55987   0.665  24.026  11.275  0.0521  0.1753 -0.0089
 1492PEP     CB55988   1.034  24.154  11.471  0.1463  0.1988  0.0231
 1492PEP     CB55989   1.424  24.446  11.324  0.3504 -0.0172  0.0453
 1492PEP     CB55990   1.457  24.467  10.882  0.1060  0.0877  0.0673
 1492PEP     CB55991   1.121  24.733  10.665 -0.0843 -0.3266  0.3178
 1492PEP     CB55992   0.685  24.919  10.864 -0.3017  0.0294 -0.2774
 1492PEP     CB55993   0.334  25.017  11.010 -0.2768  0.3212  0.3029
 1492PEP     CB55994   0.145  24.999  11.377  0.0276 -0.1792 -0.2023
 1492PEP     CB55995  -0.075  25.374  11.538 -0.4058  0.3958 -0.3492
 1492PEP     CB55996  -0.142  25.719  11.315  0.2953  0.0571  0.2877
 1492PEP     CB55997  -0.000  25.931  11.000 -0.0164 -0.2152  0.2981
 1492PEP     CB55998   0.288  26.267  10.877 -0.0665  0.1327 -0.1415
 1492PEP     CB55999   0.611  26.675  10.983  0.0988  0.1885 -0.4542
 1492PEP     CB56000   0.857  26.892  11.248  0.0670  0.1408 -0.4008
 1493PEP     CB56001   0.524  14.760  14.711 -0.3110 -0.3086 -0.2690
 1493PEP     CB56002   0.813  14.595  14.427  0.4010  0.0257  0.1584
 1493PEP     CB56003   1.093  14.467  13.983  0.1680 -0.2759  0.2173
 1493PEP     CB56004   1.290  14.599  13.699  0.4901 -0.2464  0.1758
 1493PEP     CB56005   1.167  15.006  13.456 -0.1449 -0.1504  0.1374
 1493PEP     CB56006   0.882  15.206  13.607 -0.0132 -0.4342  0.2494
 1493PEP     CB56007   0.644  15.484  13.952  0.1772  0.1892 -0.1205
 1493PEP     CB56008   0.519  15.785  14.305 -0.0377 -0.0764 -0.0780
 1493PEP     CB56009   0.198  16.005  14.470  0.3503  0.2158  0.2082
 1493PEP     CB56010  -0.116  15.992  14.886 -0.4654 -0.1650  0.0440
 1493PEP     CB56011  -0.400  15.769  15.175  0.0875  0.0977 -0.1529
 1493PEP     CB56012  -0.498  15.463  15.589 -0.0108 -0.1077 -0.4990
 1493PEP     CB56013  -0.450  15.284  15.995 -0.1237 -0.4022  0.0186
 1493PEP     CB56014  -0.228  15.214  16.456 -0.0057  0.2338  0.2330
 1493PEP     CB56015  -0.163  15.274  16.940  0.2287 -0.0521  0.0725
 1493PEP     CB56016  -0.426  15.069  17.208  0.0701  0.3266  0.1045
 1493PEP     CB56017  -0.829  14.858  17.227  0.3106  0.0718 -0.0309
 1493PEP     CB56018  -1.220  14.863  16.983 -0.2534  0.1929 -0.2578
 1493PEP     CB56019  -1.374  14.590  16.759 -0.0453  0.3006  0.2426
 1493PEP     CB56020  -1.144  14.210  16.568  0.3833 -0.2518  0.3760
 1493PEP     CB56021  -0.818  13.998  16.694  0.0360 -0.2077  0.3480
 1493PEP     CB56022  -0.618  13.589  16.663 -0.0772  0.3915  0.1565
 1493PEP     CB56023  -0.584  13.164  16.436  0.1203  0.3298 -0.1996
 1493PEP     CB56024  -0.800  12.765  16.430  0.3155 -0.1230 -0.1005
 1493PEP     CB56025  -1.043  12.460  16.592  0.0904  0.0752  0.2243
 1493PEP     CB56026  -1.318  12.181  16.533 -0.0923 -0.2434  0.2975
 1493PEP     CB56027  -1.637  11.924  16.587 -0.2620 -0.3070 -0.2657
 1493PEP     CB56028  -1.810  11.578  16.828 -0.0946 -0.5553 -0.0750
 1493PEP     CB56029  -1.553  11.357  17.163 -0.2650  0.2779 -0.2489
 1493PEP     CB56030  -1.155  11.241  17.237 -0.0705  0.1508 -0.2909
 1493PEP     CB56031  -0.931  11.319  16.897 -0.3560  0.3199  0.0978
 1493PEP     CB56032  -0.767  11.456  16.513 -0.2892  0.1631  0.0528
 1493PEP     CB56033  -0.584  11.597  16.147 -0.1184 -0.2271 -0.1107
 1493PEP     CB56034  -0.436  11.550  15.721 -0.1888 -0.4338 -0.2602
 1493PEP     CB56035  -0.524  11.715  15.369  0.4404  0.1370 -0.1280
 1493PEP     CB56036  -0.646  12.155  15.164 -0.1818  0.1085 -0.1935
 1493PEP     CB56037  -0.597  12.580  14.946  0.0883 -0.2460 -0.1042
 1493PEP     CB56038  -0.766  13.001  14.885 -0.2644 -0.4195  0.0693
 1493PEP     CB56039  -1.037  13.214  14.914  0.0035  0.1296 -0.2272
 1493PEP     CB56040  -1.463  13.259  14.668  0.3061 -0.1196 -0.2466
 1494PEP     CB56041   5.440  10.373   6.420  0.1394 -0.0183 -0.0752
 1494PEP     CB56042   5.431  10.063   6.000 -0.6125  0.2553 -0.0039
 1494PEP     CB56043   5.641   9.986   5.667 -0.1843 -0.1137  0.1697
 1494PEP     CB56044   5.897  10.236   5.436  0.0197 -0.0867  0.3275
 1494PEP     CB56045   6.131  10.636   5.254  0.1786  0.1723 -0.0035
 1494PEP     CB56046   6.184  10.950   4.879  0.3299  0.0575 -0.0275
 1494PEP     CB56047   6.394  11.220   4.532 -0.0963 -0.2459 -0.4195
 1494PEP     CB56048   6.498  11.102   4.109  0.0451  0.2368 -0.3214
 1494PEP     CB56049   6.481  10.956   3.639 -0.0117  0.2735  0.2103
 1494PEP     CB56050   6.467  10.993   3.158  0.0010  0.0313 -0.1262
 1494PEP     CB56051   6.724  11.106   2.830 -0.0966  0.1937  0.1787
 1494PEP     CB56052   6.842  11.123   2.407  0.2315  0.2213 -0.5580
 1494PEP     CB56053   7.079  10.925   2.173 -0.2988 -0.6463  0.0055
 1494PEP     CB56054   7.496  10.764   2.256 -0.0133  0.0260 -0.0961
 1494PEP     CB56055   8.025  10.860   2.379 -0.1185 -0.1099 -0.1186
 1494PEP     CB56056   8.277  11.318   2.523  0.3824 -0.2694 -0.0137
 1494PEP     CB56057   8.607  11.597   2.808  0.1428 -0.0542 -0.1278
 1494PEP     CB56058   9.006  11.502   2.889 -0.3480 -0.0228  0.1846
 1494PEP     CB56059   9.445  11.462   2.896 -0.0458 -0.2503  0.0415
 1494PEP     CB56060   9.962  11.349   2.913 -0.1250  0.1055 -0.0582
 1494PEP     CB56061  10.249  11.356   3.280  0.2013 -0.0362  0.0374
 1494PEP     CB56062  10.428  11.359   3.789  0.0092  0.2664  0.3938
 1494PEP     CB56063  10.427  11.112   4.217  0.4347 -0.1478 -0.0581
 1494PEP     CB56064  10.231  11.056   4.688 -0.4005 -0.0322  0.0800
 1494PEP     CB56065  10.104  10.802   5.135 -0.2064 -0.1319  0.0364
 1494PEP     CB56066  10.093  10.488   5.520 -0.0594  0.0015  0.3106
 1494PEP     CB56067  10.213  10.235   5.814 -0.4375  0.4609 -0.4156
 1494PEP     CB56068  10.383  10.149   6.227  0.0072 -0.1026 -0.3043
 1494PEP     CB56069  10.564   9.862   6.440  0.0135  0.0699 -0.0862
 1494PEP     CB56070  10.420   9.580   6.744  0.1998 -0.4783  0.1229
 1494PEP     CB56071  10.192   9.241   6.652 -0.0503 -0.3268 -0.0541
 1494PEP     CB56072   9.867   9.258   6.274  0.2913  0.0180 -0.0540
 1494PEP     CB56073   9.613   9.576   6.068 -0.4442 -0.2929  0.1022
 1494PEP     CB56074   9.171   9.580   6.087 -0.0163 -0.3394 -0.1744
 1494PEP     CB56075   8.808   9.326   6.287  0.3607 -0.0531  0.0068
 1494PEP     CB56076   8.394   9.218   6.186 -0.0007 -0.2516 -0.1585
 1494PEP     CB56077   7.973   8.943   6.117 -0.2074  0.2132 -0.1058
 1494PEP     CB56078   7.560   9.179   6.165  0.0937  0.1301 -0.0081
 1494PEP     CB56079   7.123   9.374   6.104 -0.2649 -0.0816 -0.0334
 1494PEP     CB56080   6.951   9.815   6.076 -0.4746  0.0708  0.0327
 1495PEP     CB56081  20.511  20.655   7.343 -0.1274 -0.1819 -0.5420
 1495PEP     CB56082  20.104  20.754   7.151 -0.3259  0.2594  0.0717
 1495PEP     CB56083  19.833  20.457   6.855 -0.3503 -0.3260 -0.0218
 1495PEP     CB56084  19.694  20.071   6.982 -0.1917 -0.0784  0.0756
 1495PEP     CB56085  19.941  19.815   7.166  0.1977 -0.3402 -0.1243
 1495PEP     CB56086  20.103  19.804   7.504 -0.2755  0.3792 -0.2107
 1495PEP     CB56087  20.316  19.418   7.677 -0.1679 -0.1594  0.3402
 1495PEP     CB56088  20.410  19.358   8.097 -0.2666 -0.1041  0.1292
 1495PEP     CB56089  20.405  19.684   8.395 -0.4310 -0.5979  0.1279
 1495PEP     CB56090  20.554  20.210   8.273 -0.1307 -0.2127 -0.1238
 1495PEP     CB56091  20.732  20.403   7.876  0.1602  0.1129  0.0253
 1495PEP     CB56092  20.997  20.372   7.472 -0.0660  0.2800 -0.1188
 1495PEP     CB56093  21.339  20.267   7.195  0.0229 -0.2331  0.2128
 1495PEP     CB56094  21.793  20.168   7.006  0.1292  0.2190  0.1309
 1495PEP     CB56095  22.137  20.010   7.168  0.0248 -0.0551  0.0798
 1495PEP     CB56096  22.244  19.673   7.355 -0.0399  0.2029 -0.1205
 1495PEP     CB56097  22.310  19.385   7.653  0.0875 -0.1443  0.2992
 1495PEP     CB56098  22.371  19.214   8.112 -0.1399  0.3916 -0.3216
 1495PEP     CB56099  22.546  18.948   8.473  0.0157 -0.1699  0.5019
 1495PEP     CB56100  22.533  18.457   8.649 -0.1183 -0.2592  0.1311
 1495PEP     CB56101  22.289  18.162   8.641 -0.0213 -0.1197 -0.1913
 1495PEP     CB56102  21.885  18.104   8.716 -0.1433  0.0143  0.0870
 1495PEP     CB56103  21.486  18.362   8.840  0.0962  0.3763  0.0368
 1495PEP     CB56104  21.155  18.595   9.122  0.3074  0.1155  0.1956
 1495PEP     CB56105  20.956  18.737   9.471  0.1511  0.1150 -0.0845
 1495PEP     CB56106  20.778  18.912   9.818  0.2210  0.2144  0.1909
 1495PEP     CB56107  20.736  18.790  10.279  0.1227 -0.2497  0.1068
 1495PEP     CB56108  21.014  18.551  10.548 -0.3315  0.0213 -0.3211
 1495PEP     CB56109  21.337  18.354  10.305  0.5080 -0.3902 -0.0697
 1495PEP     CB56110  21.464  18.012  10.010  0.2768  0.0776  0.0535
 1495PEP     CB56111  21.529  17.517  10.025 -0.3279  0.4744  0.1379
 1495PEP     CB56112  21.784  17.176  10.127  0.0075  0.1556 -0.1544
 1495PEP     CB56113  21.816  16.796  10.318  0.0215 -0.4826  0.4053
 1495PEP     CB56114  22.007  16.503  10.488  0.0968  0.0798 -0.0769
 1495PEP     CB56115  22.272  16.095  10.578  0.0955 -0.0073 -0.3923
 1495PEP     CB56116  22.233  15.645  10.858 -0.4966 -0.0303  0.0218
 1495PEP     CB56117  22.400  15.361  11.261  0.1047  0.3038  0.3508
 1495PEP     CB56118  22.732  15.083  11.281  0.2733  0.2922 -0.1155
 1495PEP     CB56119  22.936  14.713  11.567  0.2440 -0.0231 -0.0838
 1495PEP     CB56120  23.006  14.305  11.846  0.4257  0.2483  0.0515
 1496PEP     CB56121  19.087   2.756   2.517  0.2751  0.5059  0.1532
 1496PEP     CB56122  18.825   3.170   2.537 -0.1344  0.1335 -0.1918
 1496PEP     CB56123  18.712   3.660   2.383 -0.2666  0.1479  0.3894
 1496PEP     CB56124  18.672   4.065   2.474  0.2571 -0.1697 -0.1702
 1496PEP     CB56125  18.249   4.311   2.365  0.2296  0.0192  0.3969
 1496PEP     CB56126  17.813   4.288   2.063 -0.1429 -0.3724  0.0180
 1496PEP     CB56127  17.357   4.330   1.887  0.4855  0.0816  0.0556
 1496PEP     CB56128  17.086   4.430   1.525  0.2844  0.1346  0.3384
 1496PEP     CB56129  16.995   4.386   1.152 -0.1896  0.0457  0.0547
 1496PEP     CB56130  16.781   4.051   0.930 -0.1939  0.1774  0.2942
 1496PEP     CB56131  16.575   3.749   0.979  0.0530  0.2085 -0.0286
 1496PEP     CB56132  16.157   3.756   1.290 -0.1744 -0.0927 -0.0994
 1496PEP     CB56133  15.837   3.721   1.587  0.3022 -0.0223 -0.0217
 1496PEP     CB56134  15.661   3.452   1.762 -0.4653  0.2362  0.2496
 1496PEP     CB56135  15.472   3.082   1.609  0.0728 -0.4369  0.0026
 1496PEP     CB56136  15.541   2.647   1.503  0.0022  0.1509  0.0021
 1496PEP     CB56137  15.683   2.199   1.446 -0.0483  0.1364  0.0908
 1496PEP     CB56138  15.770   1.893   1.283  0.0592 -0.1002  0.4384
 1496PEP     CB56139  15.853   1.448   1.198 -0.2619 -0.1594  0.1136
 1496PEP     CB56140  15.799   1.114   0.941  0.1042 -0.0214  0.1962
 1496PEP     CB56141  15.610   0.756   0.903  0.1447  0.1377  0.3082
 1496PEP     CB56142  15.205   0.648   1.203  0.0790  0.0453  0.0926
 1496PEP     CB56143  14.917   0.837   1.373  0.2382 -0.1435  0.0814
 1496PEP     CB56144  14.718   1.220   1.603  0.0611  0.1845 -0.0908
 1496PEP     CB56145  14.620   1.660   1.809 -0.1241 -0.0329  0.1551
 1496PEP     CB56146  14.636   2.078   1.658 -0.2960 -0.1143  0.0387
 1496PEP     CB56147  14.604   2.350   1.316  0.3436  0.0351  0.1022
 1496PEP     CB56148  14.610   2.745   1.169 -0.1064  0.1306  0.5322
 1496PEP     CB56149  14.286   3.127   1.055 -0.3806 -0.1578  0.1490
 1496PEP     CB56150  13.957   3.170   0.840  0.1928  0.0400 -0.0256
 1496PEP     CB56151  13.592   3.050   0.775 -0.5089 -0.0489  0.5130
 1496PEP     CB56152  13.208   2.896   0.686 -0.0020  0.1087 -0.0089
 1496PEP     CB56153  12.755   2.941   0.605  0.1332 -0.4307  0.2188
 1496PEP     CB56154  12.431   2.843   0.875 -0.3314  0.0582 -0.0895
 1496PEP     CB56155  12.550   2.761   1.284 -0.1487  0.0937 -0.3574
 1496PEP     CB56156  12.572   2.694   1.699  0.2313  0.0919 -0.1410
 1496PEP     CB56157  12.858   2.704   2.102  0.1618 -0.3715 -0.1730
 1496PEP     CB56158  13.188   2.935   2.220 -0.1221  0.1232 -0.1985
 1496PEP     CB56159  13.529   3.088   2.423  0.3400 -0.3315 -0.0612
 1496PEP     CB56160  13.745   3.362   2.720 -0.1006 -0.4884  0.1329
 1497PEP     CB56161   3.732  10.660   7.787  0.1947 -0.2646 -0.0976
 1497PEP     CB56162   4.075  10.650   7.479 -0.0757  0.6798  0.3368
 1497PEP     CB56163   4.409  10.747   7.208  0.2106  0.1464 -0.0327
 1497PEP     CB56164   4.665  10.614   6.891  0.0536  0.1362  0.2282
 1497PEP     CB56165   5.034  10.401   6.770 -0.3066 -0.2045  0.0103
 1497PEP     CB56166   5.297  10.146   6.885 -0.2536  0.1050  0.1515
 1497PEP     CB56167   5.554   9.911   7.179  0.0963  0.1064 -0.4684
 1497PEP     CB56168   5.376   9.484   7.433 -0.3530  0.1961  0.2133
 1497PEP     CB56169   5.364   9.076   7.524 -0.0988 -0.2566  0.1484
 1497PEP     CB56170   5.513   8.757   7.318  0.3854  0.1613 -0.0934
 1497PEP     CB56171   5.912   8.711   7.159 -0.0322 -0.2228  0.2460
 1497PEP     CB56172   6.345   9.034   7.012 -0.4824  0.1290 -0.0131
 1497PEP     CB56173   6.585   9.408   6.919  0.2280 -0.2154 -0.1596
 1497PEP     CB56174   6.643   9.886   6.835 -0.0329  0.3566  0.0837
 1497PEP     CB56175   6.530  10.153   6.479  0.5458 -0.0002  0.3978
 1497PEP     CB56176   6.127  10.279   6.400  0.1910  0.2118 -0.1343
 1497PEP     CB56177   5.787  10.070   6.643 -0.2293  0.4059  0.4230
 1497PEP     CB56178   5.861   9.745   6.862 -0.0055  0.3081  0.2906
 1497PEP     CB56179   5.890   9.330   6.883 -0.1425  0.0610  0.1551
 1497PEP     CB56180   5.854   8.925   6.669 -0.1739  0.0910  0.1772
 1497PEP     CB56181   5.975   8.729   6.301 -0.0398  0.0645  0.5312
 1497PEP     CB56182   6.051   8.577   5.887  0.3939  0.2859 -0.0580
 1497PEP     CB56183   6.031   8.157   5.695  0.2113 -0.3702  0.1767
 1497PEP     CB56184   5.889   7.859   5.997 -0.0891 -0.3261  0.0461
 1497PEP     CB56185   6.013   7.993   6.461  0.1668  0.4292  0.0020
 1497PEP     CB56186   6.245   8.306   6.499 -0.1651  0.3105  0.1795
 1497PEP     CB56187   6.405   8.650   6.490 -0.0405 -0.0437 -0.0112
 1497PEP     CB56188   6.807   8.772   6.392 -0.1534 -0.4411 -0.2811
 1497PEP     CB56189   7.141   8.843   6.060  0.0767 -0.1768 -0.1226
 1497PEP     CB56190   7.521   8.792   5.801  0.5720  0.1505  0.5057
 1497PEP     CB56191   7.715   8.995   5.379  0.1519 -0.3345  0.0052
 1497PEP     CB56192   7.407   9.224   5.084 -0.3317  0.3290 -0.1229
 1497PEP     CB56193   6.930   9.075   5.059 -0.1469  0.0958 -0.0820
 1497PEP     CB56194   6.880   8.739   5.263 -0.3498  0.0223 -0.1446
 1497PEP     CB56195   7.167   8.390   5.444  0.0944 -0.4945 -0.4206
 1497PEP     CB56196   7.413   8.069   5.606 -0.1766  0.0059  0.0289
 1497PEP     CB56197   7.639   7.718   5.845 -0.1538 -0.2070  0.3112
 1497PEP     CB56198   7.977   7.457   5.811  0.1111 -0.2437 -0.1270
 1497PEP     CB56199   8.412   7.249   5.913  0.0539 -0.0870  0.2517
 1497PEP     CB56200   8.593   6.838   5.832  0.1338 -0.1752 -0.0323
 1498PEP     CB56201   0.863   7.814  14.331 -0.1728  0.0316  0.1885
 1498PEP     CB56202   1.020   7.382  14.089  0.0724 -0.0836  0.3760
 1498PEP     CB56203   1.244   6.997  13.943  0.4355  0.0759 -0.0496
 1498PEP     CB56204   1.395   6.979  13.530  0.2924 -0.2857 -0.2954
 1498PEP     CB56205   1.191   7.282  13.335 -0.4202 -0.1216  0.0251
 1498PEP     CB56206   0.827   7.505  13.628 -0.3092  0.2490  0.1029
 1498PEP     CB56207   0.544   7.746  13.881 -0.0046 -0.1043  0.2713
 1498PEP     CB56208   0.334   7.887  14.301 -0.0551  0.0867  0.0642
 1498PEP     CB56209   0.441   7.736  14.710  0.3054 -0.2518 -0.0435
 1498PEP     CB56210   0.715   7.684  14.958  0.1169  0.3645 -0.2577
 1498PEP     CB56211   1.228   7.643  15.155 -0.2675  0.0003 -0.1217
 1498PEP     CB56212   1.569   7.450  15.394 -0.2712 -0.1044 -0.0397
 1498PEP     CB56213   1.953   7.381  15.544 -0.2303 -0.1238 -0.1175
 1498PEP     CB56214   2.321   7.257  15.697  0.1044 -0.0986 -0.0893
 1498PEP     CB56215   2.744   7.376  15.687  0.1843  0.2842 -0.2406
 1498PEP     CB56216   3.125   7.477  15.496 -0.0268  0.2314  0.4165
 1498PEP     CB56217   3.401   7.458  15.170 -0.0991 -0.1829 -0.2220
 1498PEP     CB56218   3.596   7.427  14.822 -0.0844  0.3286 -0.2223
 1498PEP     CB56219   3.678   7.105  14.533  0.0979 -0.1364 -0.0242
 1498PEP     CB56220   3.383   6.836  14.237  0.3937 -0.1513 -0.3534
 1498PEP     CB56221   3.275   6.470  14.147 -0.0918 -0.0432  0.1099
 1498PEP     CB56222   3.317   6.012  14.395  0.1193  0.2147  0.4865
 1498PEP     CB56223   3.580   5.714  14.364 -0.0149 -0.3083 -0.1018
 1498PEP     CB56224   3.973   5.574  14.571  0.0631 -0.1028 -0.1478
 1498PEP     CB56225   4.167   5.718  14.949  0.2654  0.1889 -0.1684
 1498PEP     CB56226   4.345   5.537  15.212 -0.5124 -0.3585  0.0905
 1498PEP     CB56227   4.693   5.310  15.234 -0.3094  0.2763  0.2267
 1498PEP     CB56228   5.023   5.052  15.321  0.0004  0.0863 -0.1913
 1498PEP     CB56229   5.127   4.681  15.180 -0.0523  0.9482  0.0248
 1498PEP     CB56230   4.982   4.300  14.985  0.2385  0.5743 -0.0922
 1498PEP     CB56231   5.059   3.767  14.900  0.2844 -0.0364  0.0109
 1498PEP     CB56232   5.196   3.285  14.829  0.0183 -0.3986 -0.2446
 1498PEP     CB56233   5.444   2.903  14.972 -0.3450 -0.2169 -0.1844
 1498PEP     CB56234   5.728   2.729  15.431  0.1236 -0.4050 -0.0507
 1498PEP     CB56235   6.068   2.685  15.733  0.1180  0.0363  0.3725
 1498PEP     CB56236   6.149   2.366  15.985 -0.2078 -0.0517 -0.2592
 1498PEP     CB56237   6.195   1.948  16.184 -0.1014  0.1577 -0.0904
 1498PEP     CB56238   6.244   1.534  16.207 -0.1383  0.1622  0.2731
 1498PEP     CB56239   6.101   1.135  16.140 -0.2375  0.5218 -0.3348
 1498PEP     CB56240   5.670   1.048  15.828 -0.4417  0.0020 -0.2992
 1499PEP     CB56241   0.292   7.658   3.512 -0.0551  0.2845  0.1701
 1499PEP     CB56242   0.549   7.303   3.441  0.0154  0.0426  0.2586
 1499PEP     CB56243   0.845   7.190   3.146  0.1013  0.0666  0.1047
 1499PEP     CB56244   1.077   6.751   3.127  0.1021 -0.1913 -0.1507
 1499PEP     CB56245   0.852   6.342   3.169  0.0517 -0.3918 -0.2171
 1499PEP     CB56246   0.687   6.090   2.860 -0.4569  0.1140  0.2065
 1499PEP     CB56247   0.594   6.099   2.397  0.0043 -0.5189  0.3014
 1499PEP     CB56248   0.720   5.905   2.018 -0.0173  0.4367 -0.0832
 1499PEP     CB56249   1.026   5.607   2.055  0.3120  0.2598 -0.0743
 1499PEP     CB56250   1.185   5.325   2.355  0.2788 -0.1850 -0.2058
 1499PEP     CB56251   1.315   5.026   2.684 -0.1037 -0.1642 -0.0663
 1499PEP     CB56252   1.216   4.639   2.684 -0.3520 -0.2666 -0.1416
 1499PEP     CB56253   1.415   4.342   2.441  0.0368  0.3972  0.0786
 1499PEP     CB56254   1.569   3.931   2.394 -0.2494  0.0712  0.1900
 1499PEP     CB56255   1.805   3.586   2.748 -0.2149  0.2074 -0.0976
 1499PEP     CB56256   2.060   3.660   3.112  0.0803  0.5219  0.0240
 1499PEP     CB56257   2.406   4.038   3.167 -0.1754 -0.2208 -0.0078
 1499PEP     CB56258   2.317   4.540   3.060  0.0446 -0.1664 -0.1566
 1499PEP     CB56259   2.099   4.807   2.811 -0.1057  0.0467  0.0177
 1499PEP     CB56260   1.798   4.867   2.511  0.0877  0.1703 -0.0157
 1499PEP     CB56261   1.382   4.871   2.239  0.3180 -0.0456  0.3629
 1499PEP     CB56262   1.071   4.931   1.962  0.3633 -0.1233  0.1290
 1499PEP     CB56263   0.926   4.736   1.602  0.4089 -0.2172  0.2969
 1499PEP     CB56264   0.625   4.477   1.396 -0.1596  0.4745 -0.0302
 1499PEP     CB56265   0.136   4.538   1.433 -0.2166 -0.2291  0.3049
 1499PEP     CB56266  -0.107   4.257   1.701  0.5123  0.0725  0.1024
 1499PEP     CB56267  -0.005   3.787   1.689 -0.1223  0.2842 -0.0240
 1499PEP     CB56268   0.381   3.572   1.635  0.4243 -0.1399 -0.3545
 1499PEP     CB56269   0.699   3.530   1.377  0.3538 -0.1369  0.3668
 1499PEP     CB56270   1.119   3.345   1.209  0.0710  0.0802 -0.1678
 1499PEP     CB56271   1.374   3.570   0.857 -0.0086 -0.1107  0.2829
 1499PEP     CB56272   1.142   3.996   0.697  0.0003  0.1248  0.2677
 1499PEP     CB56273   0.735   4.031   0.628 -0.0802 -0.1575  0.3434
 1499PEP     CB56274   0.518   3.794   0.498 -0.1285  0.3454  0.2686
 1499PEP     CB56275   0.636   3.335   0.378 -0.1185  0.0584  0.4833
 1499PEP     CB56276   0.571   2.951   0.508  0.0224 -0.4789  0.1201
 1499PEP     CB56277   0.586   2.699   0.821 -0.4662 -0.3549  0.1397
 1499PEP     CB56278   0.403   2.614   1.247  0.3952 -0.2736  0.2845
 1499PEP     CB56279   0.201   2.746   1.643 -0.1186 -0.5344 -0.0897
 1499PEP     CB56280  -0.159   2.677   1.893 -0.0793  0.0991  0.0588
 1500PEP     CB56281  12.144  18.874  19.832 -0.3238  0.1733 -0.2038
 1500PEP     CB56282  12.267  18.781  19.487  0.0961 -0.3009  0.1206
 1500PEP     CB56283  12.704  18.754  19.087  0.0557  0.1931  0.0724
 1500PEP     CB56284  13.017  19.010  18.863  0.1117 -0.0022 -0.0979
 1500PEP     CB56285  13.413  19.089  18.957 -0.3655 -0.5230  0.2286
 1500PEP     CB56286  13.634  18.925  19.405  0.1477  0.3757  0.4757
 1500PEP     CB56287  13.881  18.556  19.508  0.0076 -0.2666  0.3050
 1500PEP     CB56288  13.883  18.133  19.446 -0.0973  0.1422  0.2017
 1500PEP     CB56289  13.761  17.714  19.606 -0.0101 -0.1966 -0.4809
 1500PEP     CB56290  13.422  17.581  19.721 -0.1462  0.0546 -0.1688
 1500PEP     CB56291  12.991  17.667  19.647 -0.1242  0.1997  0.1948
 1500PEP     CB56292  12.806  18.045  19.718  0.0473  0.1152 -0.4316
 1500PEP     CB56293  13.025  18.467  19.747  0.0489 -0.1356 -0.0422
 1500PEP     CB56294  13.468  18.520  19.759  0.3614 -0.5157  0.1334
 1500PEP     CB56295  13.764  18.477  20.018  0.1818  0.1308  0.3926
 1500PEP     CB56296  13.636  18.600  20.415  0.2025  0.3707 -0.0597
 1500PEP     CB56297  13.261  18.926  20.512 -0.1642  0.0569 -0.0246
 1500PEP     CB56298  13.063  19.302  20.262 -0.5551  0.4773  0.1789
 1500PEP     CB56299  13.256  19.468  19.946 -0.1380  0.1477  0.1487
 1500PEP     CB56300  13.642  19.385  19.669 -0.1615  0.0880  0.3844
 1500PEP     CB56301  13.916  19.099  19.766 -0.0252  0.0512  0.1498
 1500PEP     CB56302  13.849  18.932  20.053  0.0318  0.0879 -0.0329
 1500PEP     CB56303  13.418  18.941  20.071  0.3757 -0.0231 -0.1862
 1500PEP     CB56304  13.172  18.943  19.689  0.3130  0.0231 -0.2350
 1500PEP     CB56305  13.160  18.673  19.235 -0.2822 -0.0931 -0.3454
 1500PEP     CB56306  13.360  18.272  19.195 -0.1351  0.1696 -0.0871
 1500PEP     CB56307  13.318  18.047  19.581 -0.1693 -0.5070  0.1439
 1500PEP     CB56308  13.462  18.087  19.981 -0.2229  0.3021  0.1131
 1500PEP     CB56309  13.772  17.838  20.133  0.0965  0.1075 -0.0320
 1500PEP     CB56310  14.126  17.641  19.924  0.7424  0.2767  0.1676
 1500PEP     CB56311  14.528  17.377  19.960  0.1019  0.1146  0.0145
 1500PEP     CB56312  14.996  17.344  19.914 -0.2807 -0.1696  0.0223
 1500PEP     CB56313  15.491  17.533  19.628  0.1274  0.2436 -0.0344
 1500PEP     CB56314  15.809  17.836  19.700  0.1517 -0.0355 -0.0217
 1500PEP     CB56315  16.081  18.019  19.986 -0.2175 -0.1459  0.0351
 1500PEP     CB56316  16.234  18.419  20.340  0.2409 -0.2461 -0.1929
 1500PEP     CB56317  16.109  18.780  20.445  0.0710  0.2965  0.3379
 1500PEP     CB56318  16.258  19.185  20.455 -0.1763 -0.1016 -0.1195
 1500PEP     CB56319  16.665  19.378  20.258 -0.0514 -0.0878 -0.0337
 1500PEP     CB56320  17.060  19.175  20.306 -0.0407  0.1307 -0.0399
 1501PEP     CB56321  17.974   7.070   1.246  0.1994  0.0220 -0.1889
 1501PEP     CB56322  17.802   7.455   1.461  0.0724  0.0162  0.1978
 1501PEP     CB56323  17.292   7.590   1.538  0.0315  0.0564 -0.1628
 1501PEP     CB56324  16.961   7.294   1.585 -0.0153 -0.2711 -0.0542
 1501PEP     CB56325  16.520   7.160   1.482  0.0301  0.0447 -0.0907
 1501PEP     CB56326  16.055   7.181   1.423 -0.5196  0.1072  0.2856
 1501PEP     CB56327  15.667   7.050   1.354 -0.2553 -0.2540  0.0980
 1501PEP     CB56328  15.257   7.114   1.386  0.2587 -0.3836  0.3042
 1501PEP     CB56329  14.829   7.387   1.197 -0.3300 -0.1582 -0.1145
 1501PEP     CB56330  14.591   7.590   0.952 -0.1291 -0.0794 -0.1386
 1501PEP     CB56331  14.224   7.835   0.913  0.0874 -0.1892 -0.0000
 1501PEP     CB56332  13.755   7.913   0.964  0.0473 -0.4977 -0.0910
 1501PEP     CB56333  13.406   8.031   1.330  0.6151  0.0666 -0.0622
 1501PEP     CB56334  13.260   8.461   1.442  0.0702  0.2145  0.0556
 1501PEP     CB56335  12.905   8.651   1.413  0.1014  0.1173  0.1902
 1501PEP     CB56336  12.698   8.561   1.021  0.1795 -0.3377  0.0809
 1501PEP     CB56337  12.951   8.519   0.657 -0.1066 -0.1782  0.3949
 1501PEP     CB56338  12.950   8.292   0.371 -0.2153  0.0975  0.4602
 1501PEP     CB56339  12.874   8.304  -0.106  0.2368  0.0856 -0.0506
 1501PEP     CB56340  13.145   8.564  -0.364 -0.2221 -0.1885 -0.3770
 1501PEP     CB56341  13.602   8.456  -0.247  0.1348  0.1302  0.5299
 1501PEP     CB56342  13.600   8.112  -0.034  0.0571 -0.1053 -0.2436
 1501PEP     CB56343  13.216   7.943   0.051  0.1085  0.0377  0.2627
 1501PEP     CB56344  12.967   7.746   0.387  0.2631  0.3342 -0.0995
 1501PEP     CB56345  12.707   7.540   0.697  0.1014  0.1954  0.1505
 1501PEP     CB56346  12.393   7.288   0.934 -0.0013  0.2597 -0.3800
 1501PEP     CB56347  12.098   7.110   1.132 -0.0535 -0.1752  0.2273
 1501PEP     CB56348  11.833   6.773   1.418 -0.6174  0.0052 -0.2443
 1501PEP     CB56349  11.431   6.582   1.567  0.1934  0.2977 -0.1732
 1501PEP     CB56350  11.016   6.702   1.539  0.0202  0.1983  0.0048
 1501PEP     CB56351  10.600   6.958   1.404  0.0597  0.2712  0.1500
 1501PEP     CB56352  10.264   7.277   1.386 -0.2275  0.0341 -0.1685
 1501PEP     CB56353   9.961   7.257   1.660 -0.1706  0.0793 -0.1603
 1501PEP     CB56354   9.795   6.956   2.014 -0.1421 -0.1450  0.3760
 1501PEP     CB56355   9.794   6.531   2.052 -0.0885  0.2119  0.1607
 1501PEP     CB56356  10.078   6.252   1.853 -0.3034  0.1153  0.1609
 1501PEP     CB56357  10.323   6.175   1.503 -0.2003  0.0357 -0.1879
 1501PEP     CB56358  10.560   6.355   1.233  0.5365  0.4663 -0.0882
 1501PEP     CB56359  10.756   6.341   0.808 -0.0610  0.1476 -0.1725
 1501PEP     CB56360  10.795   6.536   0.391  0.0709 -0.1639  0.1591
 1502PEP     CB56361  16.430  15.793  10.171 -0.1581 -0.1789 -0.3220
 1502PEP     CB56362  16.680  16.174  10.111 -0.3264 -0.1396  0.0610
 1502PEP     CB56363  16.773  16.519   9.794 -0.2909  0.6992  0.1474
 1502PEP     CB56364  17.110  16.713   9.789 -0.2949  0.1369 -0.2385
 1502PEP     CB56365  17.527  16.877   9.918  0.2680  0.0901 -0.1367
 1502PEP     CB56366  17.832  17.244   9.984  0.2898 -0.1369  0.0031
 1502PEP     CB56367  18.040  17.623  10.155  0.4618  0.2806  0.2725
 1502PEP     CB56368  18.192  17.983  10.164 -0.0627 -0.2034 -0.0952
 1502PEP     CB56369  18.385  18.348  10.145  0.3356  0.0913  0.0623
 1502PEP     CB56370  18.535  18.681  10.311  0.1853 -0.3407 -0.2096
 1502PEP     CB56371  18.849  18.964  10.180 -0.2721  0.0110 -0.2539
 1502PEP     CB56372  19.117  19.266   9.954 -0.2110  0.1883 -0.0521
 1502PEP     CB56373  19.520  19.256   9.749 -0.3991  0.1966  0.1550
 1502PEP     CB56374  19.766  19.333   9.448 -0.1874 -0.2264 -0.0323
 1502PEP     CB56375  20.193  19.238   9.273 -0.4420 -0.2426  0.2294
 1502PEP     CB56376  20.302  18.971   8.931 -0.1467 -0.0478 -0.2405
 1502PEP     CB56377  20.002  18.741   8.625  0.2839  0.0192  0.1579
 1502PEP     CB56378  19.611  18.621   8.840 -0.1140  0.4274  0.3379
 1502PEP     CB56379  19.484  18.757   9.235 -0.0821 -0.1443 -0.0520
 1502PEP     CB56380  19.878  18.869   9.400  0.0872  0.1563  0.1813
 1502PEP     CB56381  20.172  19.125   9.720  0.2184  0.0019 -0.0729
 1502PEP     CB56382  20.101  19.261  10.111  0.1511 -0.0437  0.0759
 1502PEP     CB56383  19.802  19.532  10.312  0.0975 -0.2623  0.0718
 1502PEP     CB56384  19.645  19.901  10.295 -0.4698  0.4220  0.0402
 1502PEP     CB56385  19.396  20.124  10.420 -0.1561 -0.4672  0.1574
 1502PEP     CB56386  19.073  20.448  10.628 -0.1802 -0.2206 -0.2511
 1502PEP     CB56387  18.737  20.357  10.910  0.0354  0.2172 -0.0010
 1502PEP     CB56388  18.576  20.497  11.229  0.2112  0.0864 -0.2632
 1502PEP     CB56389  18.427  20.800  11.444 -0.1962  0.0785  0.1724
 1502PEP     CB56390  18.317  21.162  11.235  0.1399 -0.1096  0.1142
 1502PEP     CB56391  18.000  21.166  10.969  0.0927  0.0298 -0.1408
 1502PEP     CB56392  17.721  20.900  10.711 -0.1275  0.1343 -0.0452
 1502PEP     CB56393  17.534  20.534  10.503  0.1460 -0.3197  0.2032
 1502PEP     CB56394  17.490  20.248  10.258 -0.0970  0.1620 -0.2571
 1502PEP     CB56395  17.282  20.035  10.005  0.2910 -0.0422  0.1108
 1502PEP     CB56396  16.816  19.876   9.993  0.1388  0.1031  0.1372
 1502PEP     CB56397  16.473  20.170  10.207 -0.1595 -0.0520  0.0348
 1502PEP     CB56398  16.571  20.601  10.361 -0.1837  0.0199  0.0510
 1502PEP     CB56399  16.678  21.067  10.409 -0.1475  0.4634  0.2780
 1502PEP     CB56400  16.744  21.547  10.342 -0.3042 -0.1319 -0.0246
 1503PEP     CB56401  18.891  21.880   3.382 -0.2165 -0.0644  0.0475
 1503PEP     CB56402  18.665  22.146   3.197  0.4362  0.0070  0.4030
 1503PEP     CB56403  18.592  22.401   2.839  0.0983 -0.2855 -0.3015
 1503PEP     CB56404  18.703  22.382   2.448  0.0861  0.0623  0.0374
 1503PEP     CB56405  18.625  22.357   2.031  0.1736  0.3283 -0.0782
 1503PEP     CB56406  18.653  22.492   1.599 -0.1049  0.0429 -0.4898
 1503PEP     CB56407  18.929  22.411   1.335  0.0671  0.0710  0.2984
 1503PEP     CB56408  19.217  22.060   1.348  0.1513  0.3018  0.2138
 1503PEP     CB56409  19.390  21.675   1.575  0.7144  0.2405 -0.1263
 1503PEP     CB56410  19.633  21.462   1.860  0.0304 -0.0183  0.0156
 1503PEP     CB56411  19.808  21.065   2.025  0.0884 -0.1347  0.1467
 1503PEP     CB56412  19.794  20.649   1.882  0.3486  0.2044  0.0890
 1503PEP     CB56413  19.413  20.481   1.838  0.5084 -0.1337  0.2568
 1503PEP     CB56414  19.007  20.701   1.940  0.0145  0.0352  0.0604
 1503PEP     CB56415  18.693  20.919   2.201 -0.0639  0.1279 -0.0270
 1503PEP     CB56416  18.314  21.134   1.955 -0.0894 -0.0405 -0.0371
 1503PEP     CB56417  18.082  20.891   1.600  0.3801  0.5136  0.0421
 1503PEP     CB56418  18.274  20.444   1.481  0.0870 -0.1982 -0.1082
 1503PEP     CB56419  18.707  20.226   1.374  0.0892 -0.0871  0.0928
 1503PEP     CB56420  19.108  20.361   1.454  0.0596 -0.3234  0.1591
 1503PEP     CB56421  19.518  20.357   1.386 -0.2602  0.1722  0.2236
 1503PEP     CB56422  19.971  20.411   1.280 -0.4570  0.1694 -0.2531
 1503PEP     CB56423  20.199  20.461   0.805 -0.4113  0.4778 -0.0174
 1503PEP     CB56424  20.506  20.282   0.563  0.2232 -0.0686  0.2404
 1503PEP     CB56425  20.640  20.336   0.186 -0.1561 -0.0735  0.0660
 1503PEP     CB56426  20.722  19.945  -0.058  0.1573 -0.1461 -0.3476
 1503PEP     CB56427  20.902  19.616  -0.047 -0.2040  0.1397  0.0484
 1503PEP     CB56428  20.921  19.265  -0.154  0.0837 -0.2228  0.4258
 1503PEP     CB56429  21.158  18.883  -0.125  0.0328  0.3280 -0.2496
 1503PEP     CB56430  21.403  18.601  -0.351  0.2748  0.0838 -0.0857
 1503PEP     CB56431  21.433  18.364  -0.769 -0.2116  0.2264 -0.2617
 1503PEP     CB56432  21.289  18.110  -1.005 -0.2147  0.1753  0.0443
 1503PEP     CB56433  21.082  18.301  -1.418 -0.6764 -0.4238 -0.6211
 1503PEP     CB56434  21.295  18.693  -1.698 -0.0677 -0.5390 -0.0964
 1503PEP     CB56435  21.655  18.830  -2.008  0.5245  0.2450  0.1053
 1503PEP     CB56436  22.055  18.973  -1.961 -0.4505  0.1312  0.1301
 1503PEP     CB56437  22.435  18.821  -2.160 -0.2578 -0.2744  0.0616
 1503PEP     CB56438  22.827  18.887  -2.309 -0.0787 -0.1963 -0.0358
 1503PEP     CB56439  23.196  18.864  -2.375 -0.2355  0.1835  0.2709
 1503PEP     CB56440  23.596  18.700  -2.440 -0.0717 -0.1296 -0.3222
 1504PEP     CB56441   8.654   4.911  21.093 -0.0213  0.3370  0.4549
 1504PEP     CB56442   9.067   4.783  20.881  0.1487 -0.0530  0.2096
 1504PEP     CB56443   9.298   4.670  20.551 -0.0113  0.1696  0.2855
 1504PEP     CB56444   9.469   4.476  20.212 -0.2308 -0.0267 -0.0205
 1504PEP     CB56445   9.533   4.388  19.808 -0.1378 -0.2283 -0.0046
 1504PEP     CB56446   9.371   4.446  19.369  0.3532  0.2318  0.1407
 1504PEP     CB56447   9.213   4.840  19.185  0.0237  0.1960  0.0382
 1504PEP     CB56448   8.884   5.165  19.155 -0.4662  0.3576  0.2418
 1504PEP     CB56449   8.573   5.372  18.883 -0.2812  0.1584 -0.0997
 1504PEP     CB56450   8.331   5.563  18.570  0.2094  0.1803  0.0354
 1504PEP     CB56451   8.453   5.895  18.335  0.2775  0.0463  0.2407
 1504PEP     CB56452   8.644   5.910  17.961 -0.1552  0.0948 -0.0674
 1504PEP     CB56453   9.053   5.821  17.771 -0.0061 -0.0467  0.2067
 1504PEP     CB56454   9.188   5.546  17.491 -0.2260 -0.0022  0.5208
 1504PEP     CB56455   9.372   5.109  17.359  0.2030  0.0691  0.1274
 1504PEP     CB56456   9.311   4.661  17.423  0.3331  0.1025 -0.3033
 1504PEP     CB56457   9.128   4.309  17.374 -0.0499  0.0991 -0.3781
 1504PEP     CB56458   9.203   3.833  17.418 -0.1164  0.1113  0.5295
 1504PEP     CB56459   9.020   3.486  17.563 -0.0587 -0.1610  0.0957
 1504PEP     CB56460   9.076   3.107  17.741 -0.4161  0.2078  0.3458
 1504PEP     CB56461   9.461   2.829  17.736  0.2177  0.0221  0.0930
 1504PEP     CB56462   9.607   2.538  17.425 -0.2233  0.1070  0.0221
 1504PEP     CB56463   9.412   2.480  17.087  0.1732  0.0730 -0.0145
 1504PEP     CB56464   9.496   2.553  16.668  0.0375  0.0191 -0.1319
 1504PEP     CB56465   9.860   2.763  16.472 -0.0876 -0.1201 -0.0735
 1504PEP     CB56466  10.232   2.920  16.767 -0.3642 -0.1444  0.0619
 1504PEP     CB56467  10.336   3.095  17.164  0.1144 -0.0195  0.0164
 1504PEP     CB56468  10.298   3.449  17.386 -0.2498 -0.2722 -0.1656
 1504PEP     CB56469  10.098   3.524  17.782 -0.1072 -0.1489  0.1530
 1504PEP     CB56470   9.866   3.451  18.124  0.1189 -0.4589 -0.0660
 1504PEP     CB56471   9.856   3.452  18.534 -0.4129  0.1370  0.3428
 1504PEP     CB56472  10.053   3.634  18.928 -0.0550  0.0506  0.2747
 1504PEP     CB56473  10.105   3.641  19.299  0.1567  0.0627  0.1207
 1504PEP     CB56474  10.173   3.607  19.772  0.0578 -0.0494  0.1668
 1504PEP     CB56475  10.500   3.536  19.952  0.0253  0.2130 -0.1809
 1504PEP     CB56476  10.899   3.688  20.031  0.1167  0.0758  0.1332
 1504PEP     CB56477  11.281   3.651  20.204  0.3479  0.0251  0.1096
 1504PEP     CB56478  11.556   3.403  20.287  0.0591 -0.2048  0.0159
 1504PEP     CB56479  11.634   3.028  20.469  0.2814 -0.0258  0.2585
 1504PEP     CB56480  11.714   2.717  20.733  0.3340 -0.0621 -0.0294
 1505PEP     CB56481   3.900   5.363  17.291 -0.1285 -0.3078  0.1115
 1505PEP     CB56482   4.134   5.157  16.932  0.1127  0.0237  0.2751
 1505PEP     CB56483   4.088   5.317  16.574  0.2776 -0.1407  0.2226
 1505PEP     CB56484   3.954   5.763  16.413  0.0585  0.1824 -0.0601
 1505PEP     CB56485   3.561   5.983  16.239  0.1774  0.0257 -0.2364
 1505PEP     CB56486   3.137   5.943  16.231 -0.0870  0.3012  0.0811
 1505PEP     CB56487   2.731   5.776  16.048 -0.0258  0.1659 -0.3696
 1505PEP     CB56488   2.376   5.910  15.928 -0.0370 -0.0303 -0.0025
 1505PEP     CB56489   1.903   6.051  15.717 -0.0458 -0.0382  0.1530
 1505PEP     CB56490   1.440   5.896  15.615 -0.3597  0.2458  0.1047
 1505PEP     CB56491   1.137   5.701  15.368 -0.1572 -0.0575  0.1816
 1505PEP     CB56492   0.687   5.702  15.399  0.4944  0.1040  0.1676
 1505PEP     CB56493   0.527   5.820  15.776  0.0033 -0.4590 -0.1280
 1505PEP     CB56494   0.702   5.829  16.219 -0.1921 -0.1325  0.4672
 1505PEP     CB56495   0.701   5.913  16.608 -0.1462 -0.2526 -0.0767
 1505PEP     CB56496   0.658   5.795  17.038  0.1077 -0.5232 -0.0060
 1505PEP     CB56497   0.288   6.031  17.313  0.0874  0.0805 -0.1625
 1505PEP     CB56498   0.055   6.378  17.192 -0.1360 -0.1246 -0.0564
 1505PEP     CB56499   0.102   6.768  16.885 -0.5479  0.3969  0.0064
 1505PEP     CB56500   0.222   7.080  16.545 -0.1546  0.0086 -0.0975
 1505PEP     CB56501   0.389   7.435  16.217  0.0064  0.2405  0.0827
 1505PEP     CB56502   0.574   7.716  15.828 -0.3172 -0.1375 -0.1638
 1505PEP     CB56503   0.506   7.770  15.422 -0.1534 -0.0260 -0.0571
 1505PEP     CB56504   0.223   7.996  15.155  0.0444 -0.1401 -0.1493
 1505PEP     CB56505  -0.225   8.230  15.099  0.1381 -0.0656 -0.2447
 1505PEP     CB56506  -0.653   8.221  15.249  0.0307  0.2076  0.0658
 1505PEP     CB56507  -1.032   7.982  15.380 -0.0043 -0.1933  0.3622
 1505PEP     CB56508  -1.374   7.750  15.677  0.3302 -0.2073  0.1232
 1505PEP     CB56509  -1.812   7.620  15.635  0.1477 -0.1806 -0.0060
 1505PEP     CB56510  -2.242   7.583  15.583  0.1094 -0.2378 -0.2341
 1505PEP     CB56511  -2.543   7.266  15.498  0.3746  0.8013  0.1238
 1505PEP     CB56512  -2.545   6.843  15.685  0.1855 -0.1313 -0.5375
 1505PEP     CB56513  -2.447   6.585  15.332  0.4550  0.1450 -0.3131
 1505PEP     CB56514  -2.789   6.395  14.960 -0.2256  0.1331  0.2533
 1505PEP     CB56515  -2.952   6.596  14.534 -0.1492 -0.1922 -0.0512
 1505PEP     CB56516  -3.360   6.836  14.517 -0.2279  0.2411  0.1433
 1505PEP     CB56517  -3.679   6.797  14.836 -0.2423 -0.0199  0.0666
 1505PEP     CB56518  -3.827   6.473  15.000 -0.3605  0.2303  0.4502
 1505PEP     CB56519  -3.803   6.036  15.090 -0.2928  0.0991  0.2061
 1505PEP     CB56520  -3.807   5.644  15.116  0.3350 -0.0610 -0.0686
 1506PEP     CB56521  17.112  19.507  10.085 -0.1142 -0.0067 -0.0609
 1506PEP     CB56522  17.172  19.791  10.447  0.0523 -0.2325 -0.1965
 1506PEP     CB56523  17.166  20.008  10.910  0.1108  0.1672 -0.0504
 1506PEP     CB56524  17.037  20.238  11.204 -0.3381 -0.0696  0.1840
 1506PEP     CB56525  16.664  20.292  11.431  0.0624  0.0117  0.6069
 1506PEP     CB56526  16.358  20.479  11.784  0.3895  0.3561 -0.2182
 1506PEP     CB56527  16.501  20.533  12.215 -0.0868  0.4869 -0.2053
 1506PEP     CB56528  16.828  20.226  12.427  0.1245 -0.1991 -0.3462
 1506PEP     CB56529  17.185  20.039  12.428 -0.0480 -0.1261  0.2722
 1506PEP     CB56530  17.529  20.113  12.627 -0.2760  0.0379 -0.1259
 1506PEP     CB56531  17.952  20.229  12.821 -0.0463 -0.3161  0.3294
 1506PEP     CB56532  18.245  20.350  13.109  0.1207 -0.3918  0.1920
 1506PEP     CB56533  18.598  20.652  13.205  0.0667  0.0777 -0.1484
 1506PEP     CB56534  19.028  20.708  13.203  0.2395  0.2191  0.3252
 1506PEP     CB56535  19.435  20.667  13.425 -0.3647 -0.0090 -0.0673
 1506PEP     CB56536  19.771  20.811  13.563 -0.0792  0.3567 -0.1796
 1506PEP     CB56537  20.216  20.755  13.695 -0.1561  0.2228  0.2949
 1506PEP     CB56538  20.525  20.982  13.595  0.0221 -0.1586 -0.0935
 1506PEP     CB56539  20.576  21.411  13.644  0.2370  0.0333  0.1001
 1506PEP     CB56540  20.433  21.723  13.805 -0.0813 -0.0353 -0.1595
 1506PEP     CB56541  20.339  22.086  13.742 -0.2935  0.0871  0.3970
 1506PEP     CB56542  20.517  22.476  13.630 -0.0612  0.2183  0.1322
 1506PEP     CB56543  20.570  22.944  13.497 -0.3011 -0.0978 -0.3014
 1506PEP     CB56544  20.836  23.318  13.358 -0.0309  0.3677  0.0451
 1506PEP     CB56545  21.074  23.369  12.936 -0.0589 -0.0511 -0.3228
 1506PEP     CB56546  21.083  23.091  12.634  0.1141  0.2600 -0.6634
 1506PEP     CB56547  20.910  22.987  12.276  0.3179  0.2411  0.2838
 1506PEP     CB56548  21.112  22.937  11.856  0.1044 -0.2081 -0.2325
 1506PEP     CB56549  21.227  23.240  11.595 -0.2522 -0.3005  0.3956
 1506PEP     CB56550  21.276  23.707  11.658  0.3497  0.0815 -0.0975
 1506PEP     CB56551  21.194  23.979  11.975 -0.1472 -0.0804  0.0990
 1506PEP     CB56552  21.039  24.042  12.429 -0.2058 -0.1634 -0.1525
 1506PEP     CB56553  21.172  23.932  12.852  0.1807  0.0505 -0.3025
 1506PEP     CB56554  21.376  24.154  13.270  0.2786 -0.0225 -0.5070
 1506PEP     CB56555  21.600  24.238  13.635 -0.0302 -0.1299 -0.3667
 1506PEP     CB56556  21.834  23.944  13.937  0.1679  0.0904 -0.2524
 1506PEP     CB56557  22.132  23.617  13.847 -0.1493 -0.0080  0.0524
 1506PEP     CB56558  22.291  23.531  13.377 -0.0414 -0.1351  0.1082
 1506PEP     CB56559  22.115  23.636  12.926  0.0383 -0.2202 -0.0221
 1506PEP     CB56560  21.787  23.685  12.673  0.0484  0.4949 -0.0484
 1507PEP     CB56561  21.378   7.383  18.123 -0.2428  0.1546 -0.0488
 1507PEP     CB56562  21.332   7.574  17.705  0.4901 -0.1003  0.0040
 1507PEP     CB56563  21.116   7.936  17.555 -0.3265 -0.3842 -0.0158
 1507PEP     CB56564  20.837   8.286  17.683  0.3112 -0.3094 -0.2031
 1507PEP     CB56565  20.445   8.613  17.887 -0.0642 -0.0528  0.2710
 1507PEP     CB56566  20.228   9.081  17.995 -0.5338 -0.2362  0.0250
 1507PEP     CB56567  20.144   9.521  18.045  0.1751  0.0207 -0.1893
 1507PEP     CB56568  19.973   9.776  18.379  0.1394  0.0270 -0.1448
 1507PEP     CB56569  19.967   9.765  18.817  0.1136  0.3743 -0.5278
 1507PEP     CB56570  19.708   9.582  19.076  0.1167 -0.2201 -0.4217
 1507PEP     CB56571  19.434   9.327  19.353 -0.0341 -0.1551  0.0808
 1507PEP     CB56572  19.223   8.987  19.660 -0.3669  0.1145  0.2799
 1507PEP     CB56573  19.100   8.524  19.698 -0.1130 -0.2551 -0.2489
 1507PEP     CB56574  19.027   8.021  19.671 -0.0241 -0.0728  0.1452
 1507PEP     CB56575  18.655   7.858  19.929 -0.3047  0.1926  0.0351
 1507PEP     CB56576  18.311   8.073  20.099 -0.2671 -0.2075 -0.0417
 1507PEP     CB56577  18.132   8.073  20.609  0.1166  0.2647  0.2267
 1507PEP     CB56578  18.427   7.951  20.920 -0.0538 -0.0751 -0.2845
 1507PEP     CB56579  18.621   7.671  21.044 -0.3513  0.0196 -0.1853
 1507PEP     CB56580  19.022   7.588  21.003 -0.4687  0.0141  0.4049
 1507PEP     CB56581  19.247   7.420  20.614 -0.3788 -0.2387 -0.1897
 1507PEP     CB56582  19.295   7.203  20.168 -0.0231  0.2032 -0.0412
 1507PEP     CB56583  19.465   7.185  19.642  0.4421 -0.1137 -0.0174
 1507PEP     CB56584  19.192   7.373  19.263  0.1332 -0.3633 -0.0953
 1507PEP     CB56585  18.901   7.540  19.291 -0.4277 -0.0342 -0.2363
 1507PEP     CB56586  18.630   7.454  19.586  0.0866 -0.2043 -0.1757
 1507PEP     CB56587  18.527   7.075  19.684  0.6535 -0.0131 -0.0519
 1507PEP     CB56588  18.623   6.571  19.578 -0.2423  0.0938  0.3180
 1507PEP     CB56589  18.519   6.100  19.628 -0.2233 -0.2341  0.1392
 1507PEP     CB56590  18.572   5.721  19.570  0.1418 -0.1535 -0.5073
 1507PEP     CB56591  18.883   5.440  19.538  0.2100  0.0365 -0.1975
 1507PEP     CB56592  19.221   5.221  19.343  0.1807  0.0464  0.0393
 1507PEP     CB56593  19.514   4.887  19.410 -0.2801 -0.0706 -0.0098
 1507PEP     CB56594  19.769   4.931  19.690 -0.2206  0.1700  0.1794
 1507PEP     CB56595  19.900   5.057  20.065  0.0402  0.1563 -0.0010
 1507PEP     CB56596  20.054   4.776  20.365  0.0268 -0.0201 -0.1735
 1507PEP     CB56597  20.451   4.582  20.301  0.0999  0.0390  0.1395
 1507PEP     CB56598  20.770   4.726  19.990 -0.1509 -0.1484 -0.2340
 1507PEP     CB56599  20.614   5.106  19.737 -0.0102 -0.2201 -0.1710
 1507PEP     CB56600  20.189   5.300  19.784 -0.0974 -0.2112  0.2190
 1508PEP     CB56601   7.738   5.187  15.989  0.0428  0.0541  0.1210
 1508PEP     CB56602   7.821   5.375  15.624 -0.0699 -0.2067  0.2547
 1508PEP     CB56603   8.094   5.440  15.273  0.7160  0.0066  0.0486
 1508PEP     CB56604   8.281   5.410  14.872  0.3059  0.3268 -0.0150
 1508PEP     CB56605   8.506   5.139  14.561  0.0254 -0.4907  0.0112
 1508PEP     CB56606   8.848   4.986  14.452 -0.0777  0.2093  0.0544
 1508PEP     CB56607   9.246   5.066  14.423 -0.1407  0.0748  0.0193
 1508PEP     CB56608   9.574   4.856  14.687  0.1017 -0.0480 -0.0369
 1508PEP     CB56609   9.637   4.453  14.655  0.0171 -0.2474  0.4237
 1508PEP     CB56610   9.550   4.129  14.357 -0.0489 -0.4924 -0.2983
 1508PEP     CB56611   9.630   3.615  14.244  0.3411  0.0998  0.4396
 1508PEP     CB56612   9.529   3.238  14.382 -0.3086  0.1797 -0.3576
 1508PEP     CB56613   9.243   2.814  14.378 -0.2632 -0.2402  0.3016
 1508PEP     CB56614   8.902   2.544  14.467 -0.1180  0.0721 -0.0032
 1508PEP     CB56615   8.529   2.446  14.342  0.1780  0.3599 -0.0384
 1508PEP     CB56616   8.180   2.702  14.399  0.0597  0.0600 -0.4308
 1508PEP     CB56617   7.736   2.950  14.167 -0.0926  0.2741 -0.3098
 1508PEP     CB56618   7.247   2.902  14.148 -0.2241  0.5076 -0.2992
 1508PEP     CB56619   6.763   2.851  14.082 -0.1589 -0.1839 -0.2712
 1508PEP     CB56620   6.367   2.724  14.199  0.0582  0.3166 -0.1722
 1508PEP     CB56621   6.126   2.917  14.580 -0.3710 -0.1865  0.4294
 1508PEP     CB56622   6.258   3.216  14.893 -0.0859 -0.0224  0.3172
 1508PEP     CB56623   6.479   3.563  14.748 -0.0391 -0.1640  0.0277
 1508PEP     CB56624   6.447   3.777  14.280  0.2504 -0.1307  0.2826
 1508PEP     CB56625   6.280   4.141  14.021 -0.1865  0.2316  0.0396
 1508PEP     CB56626   6.617   4.480  13.769  0.2558  0.2710  0.2378
 1508PEP     CB56627   7.050   4.405  13.875  0.3714 -0.1857 -0.0619
 1508PEP     CB56628   7.212   4.030  14.120  0.2635 -0.4311  0.0093
 1508PEP     CB56629   7.025   3.808  14.422 -0.3125  0.1129 -0.1120
 1508PEP     CB56630   6.795   4.014  14.802  0.1167  0.0437 -0.2299
 1508PEP     CB56631   6.581   4.305  14.774 -0.2473 -0.0731 -0.0190
 1508PEP     CB56632   6.149   4.344  14.554  0.0592  0.0513 -0.3430
 1508PEP     CB56633   5.972   3.887  14.436 -0.5236  0.1707 -0.1018
 1508PEP     CB56634   6.056   3.499  14.556 -0.2995  0.3002  0.1138
 1508PEP     CB56635   5.711   3.157  14.557  0.0385  0.0108 -0.2712
 1508PEP     CB56636   5.391   3.064  14.180 -0.0869 -0.2597 -0.0945
 1508PEP     CB56637   5.228   2.683  14.027 -0.2178  0.3511  0.0348
 1508PEP     CB56638   5.580   2.398  13.785 -0.3518  0.0926 -0.2970
 1508PEP     CB56639   6.012   2.476  13.826 -0.0003 -0.0789 -0.4329
 1508PEP     CB56640   6.304   2.859  13.734 -0.0314 -0.1320  0.2096
 1509PEP     CB56641   0.961   9.782  14.510  0.0489  0.0260 -0.1058
 1509PEP     CB56642   1.345   9.552  14.654 -0.1129  0.2361  0.0323
 1509PEP     CB56643   1.756   9.385  14.484  0.2267  0.4165 -0.0818
 1509PEP     CB56644   2.218   9.430  14.473  0.1754  0.3917  0.2588
 1509PEP     CB56645   2.526   9.784  14.508 -0.1499  0.0448 -0.1246
 1509PEP     CB56646   2.357  10.193  14.673  0.4030  0.1785  0.0623
 1509PEP     CB56647   2.170  10.502  14.380  0.1635  0.2078 -0.1126
 1509PEP     CB56648   2.177  10.346  13.903  0.2260 -0.2725 -0.0955
 1509PEP     CB56649   2.656  10.238  13.759 -0.0721  0.0880 -0.2857
 1509PEP     CB56650   3.077  10.357  13.765 -0.1140 -0.0191 -0.3415
 1509PEP     CB56651   3.313  10.365  13.395  0.0885  0.3125 -0.3983
 1509PEP     CB56652   3.167  10.690  13.024  0.2516 -0.2992  0.0194
 1509PEP     CB56653   3.013  11.207  12.995  0.0346 -0.2175 -0.1413
 1509PEP     CB56654   3.195  11.544  12.805 -0.0713 -0.0437 -0.2222
 1509PEP     CB56655   3.300  11.925  12.749 -0.3756 -0.3191  0.0763
 1509PEP     CB56656   3.685  12.173  12.841  0.4086  0.6545 -0.3151
 1509PEP     CB56657   3.647  12.303  13.295 -0.2481  0.0409  0.2005
 1509PEP     CB56658   3.384  12.005  13.463  0.1235 -0.1129 -0.0113
 1509PEP     CB56659   3.101  11.850  13.280  0.2493  0.1452 -0.2588
 1509PEP     CB56660   2.764  11.745  12.990 -0.2135  0.1252  0.0684
 1509PEP     CB56661   2.363  11.681  12.668 -0.4590  0.1150  0.1069
 1509PEP     CB56662   1.969  11.625  12.506 -0.0631  0.1489 -0.2836
 1509PEP     CB56663   1.628  11.394  12.515  0.0587 -0.0720 -0.3635
 1509PEP     CB56664   1.458  10.961  12.535 -0.2293  0.1922 -0.3826
 1509PEP     CB56665   1.056  10.698  12.422 -0.1468 -0.2474  0.0209
 1509PEP     CB56666   0.839  10.795  12.041 -0.1689 -0.3450 -0.0265
 1509PEP     CB56667   0.921  10.764  11.578 -0.3289  0.2066  0.2133
 1509PEP     CB56668   1.340  10.469  11.422  0.0364 -0.0888  0.1851
 1509PEP     CB56669   1.652  10.385  11.746 -0.3556  0.2711  0.2697
 1509PEP     CB56670   1.612  10.465  12.136 -0.0292  0.1637 -0.0652
 1509PEP     CB56671   1.817  10.617  12.598  0.2904 -0.0875 -0.2185
 1509PEP     CB56672   1.621  10.682  12.956  0.2577 -0.3526 -0.1762
 1509PEP     CB56673   1.443  10.577  13.348  0.0806  0.1566 -0.1654
 1509PEP     CB56674   1.449  10.825  13.665 -0.1695  0.2052  0.1166
 1509PEP     CB56675   1.293  11.255  13.739 -0.2058 -0.1618 -0.2586
 1509PEP     CB56676   1.220  11.668  13.742  0.0249 -0.3308 -0.1760
 1509PEP     CB56677   1.486  12.053  13.900  0.0259 -0.2859 -0.0587
 1509PEP     CB56678   1.491  12.515  14.124 -0.4017 -0.3611  0.1961
 1509PEP     CB56679   1.258  12.855  14.095  0.2005 -0.1768 -0.1830
 1509PEP     CB56680   1.012  12.908  13.763  0.7441  0.2024 -0.3242
 1510PEP     CB56681  20.435  21.217   7.030 -0.0647 -0.2220  0.3533
 1510PEP     CB56682  20.047  21.353   7.395  0.4240 -0.2913 -0.0829
 1510PEP     CB56683  19.846  21.705   7.397 -0.1436  0.2172 -0.1880
 1510PEP     CB56684  19.850  22.134   7.440  0.1706  0.3010  0.3045
 1510PEP     CB56685  19.574  22.426   7.524 -0.0914 -0.0668  0.4784
 1510PEP     CB56686  19.075  22.579   7.605 -0.2867  0.2277  0.3095
 1510PEP     CB56687  18.686  22.694   7.374 -0.2275  0.2690 -0.2223
 1510PEP     CB56688  18.361  22.855   7.134 -0.4884  0.3014  0.4641
 1510PEP     CB56689  18.078  22.834   6.815 -0.0917 -0.3186 -0.0947
 1510PEP     CB56690  17.774  22.955   6.472  0.2320  0.0818 -0.1100
 1510PEP     CB56691  17.519  22.833   6.135 -0.2033 -0.1533  0.4944
 1510PEP     CB56692  17.344  23.088   5.847 -0.0087  0.2450 -0.0753
 1510PEP     CB56693  17.359  23.457   5.592  0.1099 -0.0217  0.1050
 1510PEP     CB56694  17.449  23.871   5.537 -0.2374  0.1398 -0.0562
 1510PEP     CB56695  17.537  24.268   5.794 -0.1534 -0.3704 -0.2865
 1510PEP     CB56696  17.536  24.800   5.983 -0.0157  0.4362  0.2882
 1510PEP     CB56697  17.181  25.006   6.204 -0.3336 -0.0831 -0.5992
 1510PEP     CB56698  16.820  24.851   6.476  0.1196 -0.0388 -0.2652
 1510PEP     CB56699  16.574  24.565   6.666 -0.3692  0.0359 -0.2032
 1510PEP     CB56700  16.210  24.417   6.917  0.0622  0.0012 -0.0249
 1510PEP     CB56701  15.847  24.624   7.023  0.1190 -0.0638 -0.3502
 1510PEP     CB56702  15.612  25.008   7.028  0.0775  0.3904 -0.0682
 1510PEP     CB56703  15.717  25.313   6.638  0.0471 -0.2164  0.2755
 1510PEP     CB56704  16.001  25.259   6.380  0.0117 -0.1884 -0.3715
 1510PEP     CB56705  16.342  25.393   6.194 -0.0110  0.0468 -0.2507
 1510PEP     CB56706  16.680  25.475   5.902  0.1004  0.2601  0.1919
 1510PEP     CB56707  17.143  25.494   6.010 -0.2390 -0.0878 -0.0087
 1510PEP     CB56708  17.338  25.674   6.125 -0.4977 -0.3057  0.0950
 1510PEP     CB56709  17.862  25.655   6.380  0.1033 -0.0364  0.0384
 1510PEP     CB56710  18.093  25.338   6.426  0.2092  0.1597  0.0723
 1510PEP     CB56711  18.168  24.931   6.359 -0.1228 -0.2364  0.4401
 1510PEP     CB56712  18.459  24.659   6.460  0.2871  0.0373 -0.3444
 1510PEP     CB56713  18.896  24.496   6.461  0.1095  0.1673 -0.1344
 1510PEP     CB56714  19.289  24.463   6.652 -0.0463  0.4046 -0.1255
 1510PEP     CB56715  19.690  24.552   6.694 -0.1468 -0.0816 -0.1369
 1510PEP     CB56716  19.989  24.148   6.785 -0.1476  0.0013  0.0201
 1510PEP     CB56717  20.084  23.864   6.965  0.2524  0.3139 -0.2102
 1510PEP     CB56718  20.324  23.473   7.099 -0.4953 -0.1922  0.2570
 1510PEP     CB56719  20.228  23.106   7.436 -0.3595  0.1249  0.4712
 1510PEP     CB56720  20.012  22.814   7.676  0.5070 -0.3369 -0.2574
 1511PEP     CB56721   2.612   7.859   6.602 -0.2237 -0.0906 -0.0455
 1511PEP     CB56722   2.370   7.588   6.374  0.3796  0.1926  0.0143
 1511PEP     CB56723   2.375   7.236   6.028  0.1554 -0.0665 -0.1876
 1511PEP     CB56724   2.193   6.911   5.696  0.1924 -0.1238 -0.0634
 1511PEP     CB56725   1.813   6.566   5.707  0.0059  0.3474  0.3852
 1511PEP     CB56726   1.451   6.767   5.882 -0.0299  0.0400 -0.1008
 1511PEP     CB56727   1.412   6.929   6.256  0.4983 -0.0949 -0.2887
 1511PEP     CB56728   1.676   6.733   6.583  0.1272  0.2875 -0.0481
 1511PEP     CB56729   2.176   6.665   6.614  0.0080 -0.0173  0.3343
 1511PEP     CB56730   2.515   6.844   6.859  0.0893 -0.1093  0.0797
 1511PEP     CB56731   2.828   6.756   7.186 -0.0390  0.0377 -0.2225
 1511PEP     CB56732   3.147   6.590   7.434 -0.6387 -0.2334  0.1107
 1511PEP     CB56733   3.456   6.688   7.693 -0.1714  0.3500  0.2429
 1511PEP     CB56734   3.729   6.572   7.998 -0.2496  0.1635 -0.0450
 1511PEP     CB56735   3.868   6.660   8.388 -0.0506  0.0947  0.0681
 1511PEP     CB56736   4.094   6.917   8.721 -0.0623  0.0069 -0.0770
 1511PEP     CB56737   4.333   7.306   8.855  0.2019 -0.1381 -0.3044
 1511PEP     CB56738   4.326   7.746   8.720  0.0704  0.1422 -0.1531
 1511PEP     CB56739   4.001   8.147   8.697  0.7059 -0.0358  0.1311
 1511PEP     CB56740   3.673   8.308   9.006 -0.0884 -0.0052  0.2180
 1511PEP     CB56741   3.323   8.263   9.270 -0.0378  0.0781  0.3007
 1511PEP     CB56742   3.067   7.901   9.476  0.1359  0.1444  0.0344
 1511PEP     CB56743   2.903   7.494   9.419  0.0186  0.0141  0.0525
 1511PEP     CB56744   2.847   7.038   9.170  0.0982 -0.0083 -0.0052
 1511PEP     CB56745   2.613   6.592   9.119 -0.0256  0.2871  0.1496
 1511PEP     CB56746   2.513   6.279   8.799  0.1011 -0.2177 -0.1083
 1511PEP     CB56747   2.594   6.395   8.460  0.3835  0.1422  0.0471
 1511PEP     CB56748   2.879   6.348   8.131  0.2438 -0.2305  0.0596
 1511PEP     CB56749   3.155   6.672   8.135 -0.2590  0.1036 -0.0980
 1511PEP     CB56750   3.352   6.917   8.426  0.0373 -0.0835  0.0763
 1511PEP     CB56751   3.479   7.199   8.798 -0.4515  0.1613 -0.0804
 1511PEP     CB56752   3.344   7.328   9.247 -0.2464  0.1999  0.3101
 1511PEP     CB56753   3.294   7.205   9.689  0.0507 -0.1493  0.0114
 1511PEP     CB56754   3.104   7.055  10.163  0.0096 -0.2056 -0.0526
 1511PEP     CB56755   2.857   6.782  10.298 -0.1954 -0.1862 -0.1133
 1511PEP     CB56756   2.508   6.512  10.279  0.0359 -0.4243  0.0193
 1511PEP     CB56757   2.108   6.349  10.140  0.4179  0.0040 -0.4064
 1511PEP     CB56758   1.958   6.190   9.678 -0.0964 -0.1253 -0.0922
 1511PEP     CB56759   1.674   6.339   9.419  0.5021  0.3197 -0.3980
 1511PEP     CB56760   1.373   6.720   9.439 -0.3775 -0.1794  0.3097
 1512PEP     CB56761  12.232  14.445  17.756 -0.1679 -0.0489 -0.1835
 1512PEP     CB56762  12.272  14.331  18.172  0.1121 -0.0292 -0.0994
 1512PEP     CB56763  12.328  14.119  18.544  0.0491  0.2367 -0.2567
 1512PEP     CB56764  12.542  13.623  18.622 -0.0125 -0.2947 -0.0799
 1512PEP     CB56765  12.915  13.432  18.468  0.1427  0.1937 -0.1988
 1512PEP     CB56766  13.288  13.526  18.132  0.1156 -0.1152 -0.4431
 1512PEP     CB56767  13.453  13.910  17.964  0.0295 -0.5706 -0.0563
 1512PEP     CB56768  13.696  14.236  18.132  0.1544  0.0459  0.2637
 1512PEP     CB56769  14.136  14.305  17.966 -0.0964 -0.1391  0.1862
 1512PEP     CB56770  14.337  14.627  17.620  0.1647 -0.3317  0.0677
 1512PEP     CB56771  14.397  14.565  17.149 -0.0811 -0.1939  0.4691
 1512PEP     CB56772  14.200  14.158  16.909  0.4364  0.0353  0.3433
 1512PEP     CB56773  13.832  14.073  17.045  0.2807 -0.1518 -0.0008
 1512PEP     CB56774  13.649  14.272  17.476  0.1672 -0.0566 -0.2155
 1512PEP     CB56775  13.282  14.414  17.789  0.1024  0.0413 -0.3650
 1512PEP     CB56776  13.070  14.699  18.049  0.0805 -0.2369 -0.2188
 1512PEP     CB56777  12.933  15.135  18.055 -0.1026 -0.0118 -0.2105
 1512PEP     CB56778  13.094  15.545  17.926 -0.0173 -0.1730  0.0518
 1512PEP     CB56779  13.325  15.780  17.539  0.3507  0.1653  0.2084
 1512PEP     CB56780  13.571  15.723  17.111  0.1682 -0.2825  0.0360
 1512PEP     CB56781  13.844  15.413  16.887  0.0447  0.1592  0.2005
 1512PEP     CB56782  13.624  15.059  16.822  0.1317  0.1045  0.3601
 1512PEP     CB56783  13.402  14.968  17.210  0.0339  0.0067  0.0293
 1512PEP     CB56784  13.397  14.955  17.651  0.2200  0.3211  0.3304
 1512PEP     CB56785  13.448  15.110  18.073  0.0213 -0.1413  0.4445
 1512PEP     CB56786  13.687  15.290  18.378 -0.1130  0.1767 -0.1999
 1512PEP     CB56787  14.151  15.463  18.430  0.1460  0.5491 -0.0370
 1512PEP     CB56788  14.502  15.312  18.214  0.2640 -0.3190 -0.2415
 1512PEP     CB56789  14.534  14.937  18.026 -0.3222  0.2468  0.1844
 1512PEP     CB56790  14.485  14.586  18.176 -0.3119  0.1349  0.2752
 1512PEP     CB56791  14.541  14.138  18.301 -0.2442  0.0656  0.1060
 1512PEP     CB56792  14.890  13.852  18.368  0.0377 -0.1116  0.1231
 1512PEP     CB56793  15.207  13.702  18.120 -0.1944 -0.2404  0.3096
 1512PEP     CB56794  15.498  13.363  18.008 -0.0376  0.0097  0.1631
 1512PEP     CB56795  15.523  12.947  18.182 -0.3618  0.0238 -0.2560
 1512PEP     CB56796  15.416  12.684  18.500 -0.1962 -0.2570 -0.0720
 1512PEP     CB56797  15.342  12.297  18.766  0.0733 -0.1065 -0.0340
 1512PEP     CB56798  15.226  11.886  18.805 -0.3354  0.2284 -0.1240
 1512PEP     CB56799  15.161  11.476  18.617  0.2165  0.1413  0.1532
 1512PEP     CB56800  15.332  11.173  18.342 -0.3567  0.0374  0.3149
 1513PEP     CB56801  10.723  18.706  11.323 -0.1044  0.1819 -0.1511
 1513PEP     CB56802  10.464  18.831  11.729  0.1360  0.2436 -0.1898
 1513PEP     CB56803  10.106  19.044  12.004 -0.0280  0.4337  0.0082
 1513PEP     CB56804   9.832  18.918  12.260  0.0407 -0.1929  0.1070
 1513PEP     CB56805   9.498  18.575  12.229  0.2549 -0.3874  0.2390
 1513PEP     CB56806   9.174  18.405  12.141  0.2251 -0.0889 -0.2044
 1513PEP     CB56807   8.928  18.344  11.767  0.3028 -0.1897  0.0436
 1513PEP     CB56808   8.606  18.654  11.649 -0.3541 -0.3106  0.4405
 1513PEP     CB56809   8.680  19.110  11.646 -0.0561 -0.1993 -0.3471
 1513PEP     CB56810   8.879  19.408  11.956 -0.2799 -0.3074  0.3254
 1513PEP     CB56811   9.123  19.342  12.332 -0.2559  0.1319 -0.2047
 1513PEP     CB56812   9.370  19.416  12.675 -0.1038  0.1467 -0.0813
 1513PEP     CB56813   9.634  19.341  13.070 -0.1974 -0.6095 -0.1482
 1513PEP     CB56814   9.882  19.601  13.311  0.0725  0.3704  0.0149
 1513PEP     CB56815   9.844  19.971  13.453  0.0367 -0.1856 -0.0322
 1513PEP     CB56816   9.571  20.257  13.360  0.0898  0.1903  0.0420
 1513PEP     CB56817   9.098  20.227  13.324 -0.2266 -0.0103  0.6192
 1513PEP     CB56818   8.680  20.344  13.231  0.2944  0.1777  0.0146
 1513PEP     CB56819   8.427  20.569  12.924  0.0755  0.1019  0.1044
 1513PEP     CB56820   8.542  20.702  12.550  0.0194 -0.1212 -0.3346
 1513PEP     CB56821   8.791  20.471  12.236 -0.1581 -0.2641 -0.3933
 1513PEP     CB56822   8.776  20.036  12.283 -0.1992  0.3857  0.1758
 1513PEP     CB56823   9.142  19.879  12.538  0.3045  0.4314  0.2387
 1513PEP     CB56824   9.393  19.873  12.961  0.0765  0.2479 -0.0573
 1513PEP     CB56825   9.282  19.800  13.342 -0.1936 -0.2550 -0.1716
 1513PEP     CB56826   9.024  19.574  13.628 -0.1781 -0.0329  0.0441
 1513PEP     CB56827   8.828  19.427  14.085 -0.1651  0.1567 -0.0285
 1513PEP     CB56828   8.550  19.258  14.372 -0.3068  0.1292 -0.0170
 1513PEP     CB56829   8.417  19.198  14.850 -0.0627  0.3661  0.3030
 1513PEP     CB56830   8.189  19.274  15.203  0.1244  0.2152 -0.0259
 1513PEP     CB56831   8.133  19.420  15.590  0.2808  0.0865  0.6230
 1513PEP     CB56832   8.170  19.780  16.002 -0.2136  0.1584 -0.0755
 1513PEP     CB56833   8.329  19.923  16.419  0.1394 -0.2864 -0.0340
 1513PEP     CB56834   8.374  19.684  16.838  0.2070 -0.2463  0.3534
 1513PEP     CB56835   8.279  19.504  17.196  0.0283 -0.4727 -0.0819
 1513PEP     CB56836   8.138  19.391  17.563 -0.3279  0.4618  0.1334
 1513PEP     CB56837   7.970  19.441  17.926  0.0437  0.2481  0.0465
 1513PEP     CB56838   7.796  19.475  18.354  0.0708  0.3238 -0.1225
 1513PEP     CB56839   7.485  19.360  18.734 -0.3890 -0.0126 -0.3050
 1513PEP     CB56840   7.367  19.232  19.131 -0.5971  0.0706 -0.1163
 1514PEP     CB56841  19.916   5.823   9.149  0.4360  0.2580  0.0704
 1514PEP     CB56842  19.679   5.795   8.766  0.2498 -0.0247  0.2456
 1514PEP     CB56843  19.224   5.926   8.608  0.0936 -0.2301 -0.3359
 1514PEP     CB56844  18.983   6.216   8.834  0.3580  0.1196 -0.0333
 1514PEP     CB56845  19.293   6.443   9.232 -0.4236  0.0488  0.2197
 1514PEP     CB56846  19.723   6.410   9.062 -0.0847  0.1815  0.1225
 1514PEP     CB56847  19.908   6.237   8.665  0.1261 -0.1925 -0.1377
 1514PEP     CB56848  20.087   6.325   8.277  0.0170 -0.2209 -0.2061
 1514PEP     CB56849  20.174   6.506   7.930  0.0527  0.0804  0.2199
 1514PEP     CB56850  20.478   6.736   7.552 -0.1042  0.1513 -0.0001
 1514PEP     CB56851  20.474   6.857   7.070 -0.0416  0.1890  0.1097
 1514PEP     CB56852  20.353   6.626   6.674  0.1818  0.0401  0.3093
 1514PEP     CB56853  20.131   6.302   6.414 -0.3449 -0.2245 -0.1191
 1514PEP     CB56854  19.841   6.037   6.528  0.1284 -0.1911  0.1773
 1514PEP     CB56855  19.477   5.784   6.567  0.1319 -0.0118  0.0360
 1514PEP     CB56856  19.392   5.483   6.290 -0.1617  0.1692 -0.2016
 1514PEP     CB56857  19.415   5.400   5.779 -0.3028  0.2518  0.0089
 1514PEP     CB56858  19.796   5.225   5.552  0.3276  0.1316  0.1170
 1514PEP     CB56859  20.190   5.039   5.674  0.5602 -0.2183  0.0122
 1514PEP     CB56860  20.337   4.625   5.871 -0.0576  0.1139  0.0184
 1514PEP     CB56861  20.508   4.351   5.981  0.0815 -0.2944  0.0716
 1514PEP     CB56862  20.467   3.877   6.023 -0.1499  0.0744  0.2551
 1514PEP     CB56863  20.367   3.397   6.122 -0.2102 -0.0793  0.2082
 1514PEP     CB56864  20.293   2.979   6.268 -0.1614 -0.0360 -0.2266
 1514PEP     CB56865  20.390   2.536   6.208 -0.2286  0.1860  0.2504
 1514PEP     CB56866  20.172   2.076   6.200  0.2135 -0.3130  0.6005
 1514PEP     CB56867  20.209   1.620   6.154 -0.2985 -0.4171  0.0501
 1514PEP     CB56868  20.062   1.177   5.972  0.1723 -0.1669  0.3232
 1514PEP     CB56869  19.956   0.699   5.869 -0.1152 -0.0378  0.2513
 1514PEP     CB56870  19.724   0.336   6.089  0.1417 -0.3907 -0.2407
 1514PEP     CB56871  19.494   0.194   6.405  0.1037  0.1045  0.0488
 1514PEP     CB56872  19.210   0.163   6.756  0.0178  0.4386 -0.1547
 1514PEP     CB56873  19.103   0.397   7.079 -0.0942 -0.0381  0.0491
 1514PEP     CB56874  19.317   0.784   7.265 -0.0344 -0.5269  0.2341
 1514PEP     CB56875  19.586   0.986   7.399  0.1382  0.0357  0.0122
 1514PEP     CB56876  19.810   1.336   7.388 -0.2955  0.0944  0.1980
 1514PEP     CB56877  20.079   1.574   7.594 -0.1627 -0.2356  0.1726
 1514PEP     CB56878  20.386   1.480   7.868 -0.1877 -0.1157 -0.2665
 1514PEP     CB56879  20.733   1.568   8.136  0.1265 -0.0826  0.1966
 1514PEP     CB56880  21.127   1.711   8.213 -0.0818  0.2852  0.2912
 1515PEP     CB56881  19.871   5.325   3.803  0.1224 -0.1430 -0.2631
 1515PEP     CB56882  19.826   4.946   3.565 -0.1678  0.2243 -0.2737
 1515PEP     CB56883  19.852   4.489   3.635 -0.2282  0.3653 -0.4125
 1515PEP     CB56884  19.947   4.164   3.868 -0.3893 -0.1701  0.1842
 1515PEP     CB56885  20.247   3.920   4.100  0.1945 -0.1546 -0.1814
 1515PEP     CB56886  20.729   4.054   4.291 -0.3309  0.1261  0.1088
 1515PEP     CB56887  20.723   4.372   4.612 -0.1266  0.3201 -0.1200
 1515PEP     CB56888  20.314   4.720   4.686  0.1581 -0.4285 -0.0315
 1515PEP     CB56889  19.921   4.689   4.519 -0.3260  0.1252 -0.1822
 1515PEP     CB56890  19.644   4.267   4.422 -0.2130  0.1711  0.2073
 1515PEP     CB56891  19.839   3.860   4.406  0.1701  0.0571 -0.0573
 1515PEP     CB56892  19.784   3.600   4.072  0.1454 -0.0137 -0.0346
 1515PEP     CB56893  19.623   3.850   3.662  0.0010  0.0866 -0.0492
 1515PEP     CB56894  19.428   4.206   3.788  0.0837  0.0002 -0.0178
 1515PEP     CB56895  19.112   4.631   3.750 -0.1044 -0.0246  0.3966
 1515PEP     CB56896  18.940   5.061   3.920 -0.0220 -0.4812  0.2210
 1515PEP     CB56897  18.841   5.525   4.009 -0.1446  0.3968 -0.1285
 1515PEP     CB56898  18.557   5.738   3.856  0.1956 -0.1376 -0.1924
 1515PEP     CB56899  18.134   5.892   3.733  0.0974 -0.0291 -0.4855
 1515PEP     CB56900  17.889   6.261   3.605  0.2359 -0.3396 -0.0277
 1515PEP     CB56901  17.547   6.449   3.395 -0.3835 -0.3331 -0.1380
 1515PEP     CB56902  17.387   6.430   3.033 -0.0690 -0.3803  0.3673
 1515PEP     CB56903  17.490   6.595   2.577 -0.1230  0.1524 -0.4086
 1515PEP     CB56904  17.836   6.657   2.159  0.0725  0.3222  0.0792
 1515PEP     CB56905  18.189   6.851   2.187 -0.1839 -0.0497 -0.0609
 1515PEP     CB56906  18.384   6.838   2.621  0.0718  0.2549  0.0624
 1515PEP     CB56907  18.314   6.707   3.094 -0.4796 -0.1278 -0.0330
 1515PEP     CB56908  18.379   6.362   3.344  0.5129 -0.2305  0.0682
 1515PEP     CB56909  18.378   5.883   3.318 -0.2452 -0.0157 -0.2669
 1515PEP     CB56910  18.140   5.505   3.383  0.2669  0.2012 -0.0385
 1515PEP     CB56911  17.782   5.476   3.526  0.0894 -0.0835 -0.0564
 1515PEP     CB56912  17.555   5.520   3.880  0.1854 -0.1127  0.0343
 1515PEP     CB56913  17.311   5.597   4.322 -0.0621 -0.3194  0.0221
 1515PEP     CB56914  17.163   5.263   4.663 -0.0722  0.1997  0.1435
 1515PEP     CB56915  17.241   4.895   4.886 -0.1859  0.1781 -0.0334
 1515PEP     CB56916  17.271   4.604   5.203  0.3048 -0.0548 -0.0071
 1515PEP     CB56917  17.041   4.501   5.564 -0.2487  0.0124 -0.2286
 1515PEP     CB56918  16.883   4.786   5.908  0.1661 -0.1517 -0.0375
 1515PEP     CB56919  16.967   5.122   6.175 -0.0590 -0.0122 -0.0882
 1515PEP     CB56920  17.295   5.184   6.621 -0.0064  0.0329  0.3134
 1516PEP     CB56921   3.021  13.459   0.891 -0.4236 -0.1625 -0.5224
 1516PEP     CB56922   3.128  13.529   1.348  0.2819 -0.3369 -0.1062
 1516PEP     CB56923   3.156  13.822   1.726 -0.1389 -0.5441  0.3230
 1516PEP     CB56924   3.324  14.133   1.908 -0.0589  0.3875 -0.2125
 1516PEP     CB56925   3.215  14.428   2.156 -0.0390 -0.2746  0.3683
 1516PEP     CB56926   3.154  14.543   2.523 -0.0944  0.1426 -0.1030
 1516PEP     CB56927   2.963  14.429   2.919 -0.1466 -0.1107 -0.3466
 1516PEP     CB56928   3.117  14.342   3.339  0.0303 -0.1275 -0.2637
 1516PEP     CB56929   3.594  14.225   3.473 -0.3838  0.1319 -0.3819
 1516PEP     CB56930   3.954  14.401   3.388 -0.1109 -0.2924 -0.0685
 1516PEP     CB56931   4.157  14.800   3.207 -0.0895  0.1420 -0.3723
 1516PEP     CB56932   4.334  15.182   3.152 -0.1465  0.0575 -0.0186
 1516PEP     CB56933   4.643  15.401   2.839 -0.3509  0.0165 -0.0053
 1516PEP     CB56934   5.030  15.611   2.715 -0.1660 -0.3049 -0.0043
 1516PEP     CB56935   5.510  15.771   2.517  0.5271  0.0298 -0.0295
 1516PEP     CB56936   5.817  15.655   2.247  0.2237 -0.0513  0.0846
 1516PEP     CB56937   6.135  15.583   1.837  0.3860 -0.1653  0.3130
 1516PEP     CB56938   6.241  15.172   1.603 -0.4864 -0.2867 -0.0618
 1516PEP     CB56939   6.432  14.835   1.661 -0.3232 -0.2903 -0.1236
 1516PEP     CB56940   6.828  14.796   1.889  0.1127 -0.0658 -0.3527
 1516PEP     CB56941   7.083  15.127   1.970 -0.0664 -0.0069 -0.0150
 1516PEP     CB56942   7.320  15.468   1.767  0.2670 -0.1474 -0.2568
 1516PEP     CB56943   7.604  15.855   1.827  0.0023  0.2713  0.0790
 1516PEP     CB56944   7.679  16.281   1.800 -0.5218  0.3481  0.0302
 1516PEP     CB56945   7.722  16.654   2.068 -0.3926 -0.3537 -0.1625
 1516PEP     CB56946   7.800  16.929   2.410  0.1198  0.0030  0.0042
 1516PEP     CB56947   8.025  16.973   2.844 -0.1340 -0.2305 -0.4069
 1516PEP     CB56948   8.028  17.205   3.194  0.0359  0.0110  0.1833
 1516PEP     CB56949   7.700  17.588   3.072  0.3275 -0.1856  0.1480
 1516PEP     CB56950   7.692  17.849   2.700  0.4657 -0.2431 -0.6243
 1516PEP     CB56951   8.030  17.981   2.640  0.0806  0.0034 -0.1228
 1516PEP     CB56952   8.390  18.074   2.717  0.3305 -0.0175 -0.0405
 1516PEP     CB56953   8.744  18.265   2.738 -0.1718  0.0173  0.1248
 1516PEP     CB56954   9.004  18.160   2.920 -0.0240  0.3450 -0.0589
 1516PEP     CB56955   9.415  18.094   3.105 -0.0117 -0.4144  0.0999
 1516PEP     CB56956   9.773  18.317   3.362 -0.2144  0.4512 -0.2282
 1516PEP     CB56957   9.995  18.629   3.563  0.1212 -0.0986  0.0658
 1516PEP     CB56958  10.054  18.820   3.898  0.0047 -0.2662  0.3354
 1516PEP     CB56959  10.311  19.038   4.102  0.1013  0.3107  0.4368
 1516PEP     CB56960  10.673  19.009   4.382 -0.2114 -0.2746  0.2018
 1517PEP     CB56961  11.857  14.720  18.044 -0.0344  0.1201 -0.2239
 1517PEP     CB56962  11.455  14.760  17.879 -0.0229  0.3557 -0.1322
 1517PEP     CB56963  11.096  14.912  17.609  0.0760  0.1730 -0.3431
 1517PEP     CB56964  10.750  15.124  17.502 -0.2627 -0.3063  0.2789
 1517PEP     CB56965  10.570  15.316  17.203 -0.1918  0.0296 -0.3838
 1517PEP     CB56966  10.531  15.743  17.008 -0.3762  0.0754 -0.3315
 1517PEP     CB56967  10.573  16.219  17.181  0.1308 -0.3472 -0.0165
 1517PEP     CB56968  10.827  16.426  17.480 -0.1529  0.1085 -0.1207
 1517PEP     CB56969  11.156  16.689  17.419  0.4552  0.0383 -0.5064
 1517PEP     CB56970  11.453  16.627  16.998 -0.2575  0.1518 -0.0678
 1517PEP     CB56971  11.405  16.439  16.609 -0.2177 -0.0249 -0.1346
 1517PEP     CB56972  11.086  16.123  16.593 -0.0317  0.0457  0.0943
 1517PEP     CB56973  11.010  15.846  16.904 -0.2607 -0.2708 -0.1070
 1517PEP     CB56974  11.123  15.838  17.309  0.3451  0.0388 -0.0807
 1517PEP     CB56975  11.149  15.903  17.827 -0.0793 -0.2061  0.1075
 1517PEP     CB56976  11.530  16.150  18.025  0.1041 -0.2192 -0.4308
 1517PEP     CB56977  11.867  16.469  18.057  0.1443  0.1190  0.0166
 1517PEP     CB56978  12.037  16.792  17.833 -0.0399 -0.0359 -0.1673
 1517PEP     CB56979  12.177  17.121  17.633  0.0276  0.0260  0.0723
 1517PEP     CB56980  12.409  17.473  17.450  0.0803 -0.2126 -0.0925
 1517PEP     CB56981  12.577  17.823  17.285 -0.1031 -0.2116 -0.2477
 1517PEP     CB56982  12.417  18.145  17.064  0.0036 -0.0700  0.1008
 1517PEP     CB56983  12.149  18.019  16.827  0.0053  0.1250 -0.0357
 1517PEP     CB56984  12.105  17.847  16.428  0.0262  0.3335 -0.2071
 1517PEP     CB56985  12.254  17.994  16.039 -0.5385  0.1582 -0.3886
 1517PEP     CB56986  12.272  18.425  15.954 -0.0044  0.3531 -0.2189
 1517PEP     CB56987  12.182  18.963  15.907  0.4491  0.1047  0.1645
 1517PEP     CB56988  11.842  19.094  15.706 -0.1131  0.3601 -0.5112
 1517PEP     CB56989  11.687  18.911  15.352  0.0310  0.1392  0.1596
 1517PEP     CB56990  11.700  18.450  15.115 -0.2217 -0.3448  0.1490
 1517PEP     CB56991  11.772  18.075  14.926  0.2353  0.0264 -0.0163
 1517PEP     CB56992  11.865  17.789  14.432  0.2173  0.0246 -0.1358
 1517PEP     CB56993  11.841  17.474  14.156 -0.2213  0.0793  0.2758
 1517PEP     CB56994  11.761  17.329  13.856 -0.1607  0.0513 -0.0719
 1517PEP     CB56995  11.467  17.351  13.560  0.2156  0.0422 -0.1967
 1517PEP     CB56996  11.116  17.428  13.500  0.1033  0.2163 -0.1659
 1517PEP     CB56997  10.842  17.683  13.410  0.0510 -0.0056 -0.4495
 1517PEP     CB56998  10.550  17.960  13.118 -0.1849  0.0960 -0.2807
 1517PEP     CB56999  10.266  17.882  12.914  0.1997 -0.0134 -0.0791
 1517PEP     CB57000  10.234  17.583  12.609 -0.5732 -0.1543 -0.1495
 1518PEP     CB57001  21.931   7.514   3.059  0.2620  0.1954 -0.0572
 1518PEP     CB57002  21.715   8.010   3.014  0.3035 -0.2643  0.0527
 1518PEP     CB57003  21.858   8.351   3.288 -0.2693  0.0136  0.1511
 1518PEP     CB57004  22.122   8.659   3.388 -0.0309 -0.2462  0.1283
 1518PEP     CB57005  22.532   8.801   3.568 -0.0782 -0.1912 -0.0151
 1518PEP     CB57006  22.853   8.885   3.791 -0.1269  0.0944  0.3906
 1518PEP     CB57007  23.198   8.843   4.035  0.2686  0.6708  0.2657
 1518PEP     CB57008  23.601   9.038   4.121 -0.0641  0.1138  0.2759
 1518PEP     CB57009  23.896   9.018   3.789  0.4111 -0.0766  0.1450
 1518PEP     CB57010  24.207   8.849   3.563  0.3126  0.1883 -0.2061
 1518PEP     CB57011  24.407   8.690   3.161 -0.2671  0.2847 -0.1251
 1518PEP     CB57012  24.401   8.627   2.784 -0.0721 -0.1335  0.1576
 1518PEP     CB57013  24.710   8.345   2.571  0.0290  0.1310  0.1665
 1518PEP     CB57014  25.021   8.437   2.207 -0.3623  0.3744  0.0249
 1518PEP     CB57015  24.895   8.724   1.902  0.2306  0.0351 -0.0842
 1518PEP     CB57016  24.573   8.720   1.632  0.1597  0.0127  0.0883
 1518PEP     CB57017  24.104   8.543   1.637  0.1552  0.2468  0.4372
 1518PEP     CB57018  23.841   8.231   1.877 -0.1169  0.2476 -0.2628
 1518PEP     CB57019  23.597   8.101   2.176  0.1227 -0.2914  0.2772
 1518PEP     CB57020  23.464   7.794   2.492 -0.1857  0.0955 -0.2704
 1518PEP     CB57021  23.134   7.494   2.637  0.1580  0.1352 -0.4392
 1518PEP     CB57022  22.695   7.531   2.845  0.3744 -0.0307  0.4976
 1518PEP     CB57023  22.365   7.634   2.871 -0.0495  0.2231 -0.1950
 1518PEP     CB57024  22.175   8.061   3.015 -0.0404 -0.2398 -0.1690
 1518PEP     CB57025  22.238   8.455   2.923 -0.1041 -0.3310  0.1943
 1518PEP     CB57026  22.220   8.904   2.958  0.0560 -0.3892 -0.0907
 1518PEP     CB57027  22.189   9.190   3.314 -0.2285  0.2033  0.0512
 1518PEP     CB57028  22.127   9.053   3.788  0.3459  0.2655  0.0630
 1518PEP     CB57029  22.212   8.584   3.917  0.0633  0.0340  0.1162
 1518PEP     CB57030  22.295   8.234   3.621 -0.2710 -0.0107  0.0767
 1518PEP     CB57031  22.471   8.275   3.315  0.0074  0.1001 -0.1644
 1518PEP     CB57032  22.800   8.586   3.152 -0.1058 -0.2296 -0.2765
 1518PEP     CB57033  22.836   9.062   3.281  0.2942 -0.2853 -0.1075
 1518PEP     CB57034  22.587   9.302   3.596  0.0480  0.0507 -0.0033
 1518PEP     CB57035  22.432   9.516   3.895  0.0165 -0.3371  0.0079
 1518PEP     CB57036  22.525   9.859   4.217 -0.1324  0.0367  0.3235
 1518PEP     CB57037  22.636  10.190   4.410  0.0701  0.1941 -0.1359
 1518PEP     CB57038  22.797  10.370   4.768  0.1554 -0.0258  0.1920
 1518PEP     CB57039  22.885  10.225   5.090 -0.0083  0.1052  0.0798
 1518PEP     CB57040  22.853   9.985   5.442 -0.0533  0.0205  0.0784
 1519PEP     CB57041   3.416  17.963   9.705 -0.4572 -0.2240  0.1399
 1519PEP     CB57042   3.887  18.160   9.752 -0.6252  0.0214 -0.4860
 1519PEP     CB57043   4.243  18.300   9.947 -0.5510  0.1503 -0.4551
 1519PEP     CB57044   4.518  18.534  10.059  0.2293  0.4505  0.1043
 1519PEP     CB57045   4.550  19.054  10.142  0.0272 -0.3959  0.0291
 1519PEP     CB57046   4.251  19.330  10.297  0.1788  0.1770 -0.2821
 1519PEP     CB57047   3.962  19.177  10.579 -0.0735 -0.2797 -0.1003
 1519PEP     CB57048   4.182  19.170  11.002  0.2022 -0.0918  0.0484
 1519PEP     CB57049   4.245  19.573  11.197  0.0699  0.1669 -0.2233
 1519PEP     CB57050   4.138  20.050  10.969  0.0675 -0.0576 -0.2671
 1519PEP     CB57051   3.885  20.193  10.623 -0.0049 -0.0930  0.2418
 1519PEP     CB57052   3.474  20.114  10.509 -0.0941 -0.0983  0.0418
 1519PEP     CB57053   3.038  20.129  10.548  0.0067 -0.0265 -0.1218
 1519PEP     CB57054   2.532  20.120  10.661 -0.1085 -0.1915  0.1839
 1519PEP     CB57055   2.281  20.189  10.934  0.0994  0.1035 -0.3198
 1519PEP     CB57056   2.153  20.232  11.395 -0.2558 -0.2070  0.1850
 1519PEP     CB57057   1.880  20.365  11.698 -0.0744  0.1208  0.0980
 1519PEP     CB57058   1.761  20.668  11.966 -0.1082  0.3492 -0.2594
 1519PEP     CB57059   1.779  21.072  12.016 -0.5097  0.0925  0.0364
 1519PEP     CB57060   1.811  21.384  12.226  0.0403  0.0291  0.3406
 1519PEP     CB57061   1.495  21.438  12.533  0.4083 -0.4031 -0.1629
 1519PEP     CB57062   1.329  21.098  12.750  0.1900 -0.0099  0.0491
 1519PEP     CB57063   0.861  20.825  12.597  0.3395  0.0791  0.9178
 1519PEP     CB57064   0.804  20.468  12.828 -0.0399 -0.0765 -0.0869
 1519PEP     CB57065   0.576  20.013  12.771 -0.0657  0.4297  0.1999
 1519PEP     CB57066   0.308  19.935  12.991 -0.2332  0.2957  0.1195
 1519PEP     CB57067  -0.135  20.123  13.172 -0.2309  0.1060  0.2471
 1519PEP     CB57068  -0.588  20.309  13.283 -0.3838  0.0650 -0.2118
 1519PEP     CB57069  -0.975  20.368  13.482  0.1445  0.1694 -0.0156
 1519PEP     CB57070  -1.118  20.733  13.639 -0.4681  0.0400 -0.2601
 1519PEP     CB57071  -1.244  20.906  14.040 -0.2550  0.2040  0.2527
 1519PEP     CB57072  -1.444  20.596  14.360  0.3273  0.3354  0.1204
 1519PEP     CB57073  -1.460  20.116  14.340 -0.0944 -0.0740 -0.2070
 1519PEP     CB57074  -1.528  19.864  14.027 -0.1995  0.4089 -0.2679
 1519PEP     CB57075  -1.388  19.572  13.839 -0.0778 -0.0722  0.0059
 1519PEP     CB57076  -1.213  19.225  13.606 -0.4194  0.1931 -0.1310
 1519PEP     CB57077  -0.892  19.053  13.400 -0.0534  0.0659 -0.1829
 1519PEP     CB57078  -0.563  18.883  13.140 -0.0143 -0.0398  0.2578
 1519PEP     CB57079  -0.152  18.764  13.049 -0.1713  0.1303 -0.2439
 1519PEP     CB57080   0.041  18.504  12.784  0.2173  0.2037  0.2200
 1520PEP     CB57081   4.204  12.483  20.094 -0.1786 -0.5772 -0.1621
 1520PEP     CB57082   4.535  12.736  20.359  0.2857  0.1038  0.0418
 1520PEP     CB57083   4.635  13.200  20.417 -0.0774 -0.3252  0.1653
 1520PEP     CB57084   4.943  13.525  20.146  0.1687  0.5874  0.5396
 1520PEP     CB57085   5.034  13.602  19.725 -0.1308 -0.1845 -0.1012
 1520PEP     CB57086   4.917  13.519  19.310  0.0527 -0.0414 -0.2436
 1520PEP     CB57087   4.740  13.514  18.963 -0.0040  0.1231 -0.0481
 1520PEP     CB57088   4.478  13.408  18.594 -0.6354 -0.0291  0.2201
 1520PEP     CB57089   4.224  13.697  18.314 -0.0634 -0.1377 -0.4276
 1520PEP     CB57090   4.229  13.823  17.871 -0.0804 -0.0606  0.4908
 1520PEP     CB57091   4.189  14.066  17.582 -0.1582 -0.1547 -0.1377
 1520PEP     CB57092   4.140  14.168  17.172 -0.1883 -0.2050 -0.1031
 1520PEP     CB57093   4.227  14.464  16.908 -0.0547 -0.0222 -0.2952
 1520PEP     CB57094   4.383  14.905  16.981 -0.3002  0.4269 -0.3206
 1520PEP     CB57095   4.404  15.205  17.306  0.2314 -0.0875 -0.2066
 1520PEP     CB57096   4.585  15.339  17.689 -0.2305  0.1720 -0.1774
 1520PEP     CB57097   4.897  15.233  18.001 -0.0865 -0.1457 -0.0114
 1520PEP     CB57098   5.287  15.071  18.119  0.0629 -0.0323 -0.1586
 1520PEP     CB57099   5.517  14.647  18.209  0.2545 -0.2806  0.1100
 1520PEP     CB57100   5.455  14.269  18.468  0.0056 -0.4139  0.0835
 1520PEP     CB57101   5.330  13.849  18.484  0.1903 -0.2626 -0.1781
 1520PEP     CB57102   5.337  13.468  18.637 -0.0681  0.1399 -0.1648
 1520PEP     CB57103   5.522  13.120  18.881  0.2516  0.1108  0.1042
 1520PEP     CB57104   5.387  12.647  19.002  0.4349  0.3390 -0.1165
 1520PEP     CB57105   5.446  12.220  19.098 -0.5276 -0.2193 -0.1625
 1520PEP     CB57106   5.437  12.051  19.412  0.0817 -0.2218  0.0098
 1520PEP     CB57107   5.551  12.039  19.865 -0.0923 -0.2550 -0.0079
 1520PEP     CB57108   5.441  11.721  20.235  0.2507 -0.2274 -0.2295
 1520PEP     CB57109   5.291  11.329  20.445  0.0430  0.0515 -0.2688
 1520PEP     CB57110   4.915  11.174  20.581 -0.2001  0.1553 -0.0695
 1520PEP     CB57111   4.534  10.920  20.403 -0.2255  0.1918  0.0515
 1520PEP     CB57112   4.158  10.877  20.542  0.1411  0.0212  0.1263
 1520PEP     CB57113   3.882  10.612  20.716  0.1365 -0.3247 -0.1028
 1520PEP     CB57114   3.706  10.387  21.050 -0.2194  0.2404 -0.0080
 1520PEP     CB57115   3.434  10.099  21.261 -0.2145 -0.2416  0.0615
 1520PEP     CB57116   3.240   9.666  21.429  0.4282 -0.3077 -0.1503
 1520PEP     CB57117   3.071   9.245  21.550  0.0426  0.2266  0.1123
 1520PEP     CB57118   2.831   9.103  21.920  0.1673  0.0941 -0.0128
 1520PEP     CB57119   2.973   9.091  22.433  0.0258  0.1296 -0.0669
 1520PEP     CB57120   3.113   9.141  22.825 -0.1033 -0.2107  0.0252
 1521PEP     CB57121   8.601   0.462  18.929  0.0084  0.2422 -0.0628
 1521PEP     CB57122   8.356   0.772  18.648  0.0070 -0.0006 -0.4067
 1521PEP     CB57123   8.191   1.236  18.646  0.1838  0.0220  0.0905
 1521PEP     CB57124   7.764   1.508  18.688 -0.4116  0.2164 -0.1493
 1521PEP     CB57125   7.366   1.422  18.860  0.1868  0.1416  0.0471
 1521PEP     CB57126   7.100   1.079  19.044 -0.0246 -0.0214  0.2068
 1521PEP     CB57127   6.975   0.675  18.947 -0.1573 -0.2532 -0.3306
 1521PEP     CB57128   6.963   0.234  18.988 -0.4571 -0.0061  0.1298
 1521PEP     CB57129   7.294  -0.164  18.974  0.2420  0.2778  0.1170
 1521PEP     CB57130   7.643  -0.291  19.228 -0.0347 -0.3825 -0.3892
 1521PEP     CB57131   7.662  -0.649  19.559  0.2890 -0.4753  0.1121
 1521PEP     CB57132   7.480  -1.090  19.416  0.2650 -0.0575  0.0045
 1521PEP     CB57133   7.396  -1.105  18.960  0.2626  0.4658 -0.0215
 1521PEP     CB57134   7.522  -0.847  18.642 -0.2155 -0.1488  0.0830
 1521PEP     CB57135   7.877  -0.734  18.546 -0.4665 -0.0514  0.1169
 1521PEP     CB57136   8.157  -0.315  18.475 -0.1460 -0.0163 -0.2568
 1521PEP     CB57137   8.435  -0.056  18.670  0.0867  0.0750  0.2579
 1521PEP     CB57138   8.688  -0.029  19.044  0.0858 -0.0591  0.0176
 1521PEP     CB57139   8.614  -0.049  19.492 -0.2273  0.0382  0.1301
 1521PEP     CB57140   8.290   0.065  19.817 -0.2489  0.1654  0.3639
 1521PEP     CB57141   7.980   0.395  19.792  0.3904  0.1514  0.0404
 1521PEP     CB57142   7.865   0.604  19.475 -0.2195  0.0393 -0.3124
 1521PEP     CB57143   8.221   0.909  19.260 -0.0527 -0.0809 -0.2164
 1521PEP     CB57144   8.410   1.273  19.544  0.4290  0.4084  0.0702
 1521PEP     CB57145   8.541   1.155  19.920 -0.3461  0.1400  0.3082
 1521PEP     CB57146   8.714   0.875  20.222  0.0593 -0.3360  0.0967
 1521PEP     CB57147   8.832   0.954  20.579  0.0637  0.1463  0.0293
 1521PEP     CB57148   8.881   0.925  20.968  0.1484  0.1431  0.6540
 1521PEP     CB57149   9.114   0.935  21.270  0.0301 -0.1016 -0.0655
 1521PEP     CB57150   9.506   1.282  21.389 -0.0374  0.0898  0.2202
 1521PEP     CB57151   9.459   1.801  21.287  0.0514 -0.1906  0.2088
 1521PEP     CB57152   8.993   1.889  21.185  0.3101  0.3785 -0.0725
 1521PEP     CB57153   8.709   2.066  21.500 -0.0579 -0.3294 -0.1568
 1521PEP     CB57154   8.881   2.252  21.954  0.0858 -0.1800  0.2321
 1521PEP     CB57155   9.079   2.513  22.221  0.2452  0.1357 -0.3356
 1521PEP     CB57156   9.182   2.913  22.465 -0.1952  0.2333 -0.0744
 1521PEP     CB57157   9.127   3.339  22.647 -0.1800 -0.0520  0.0802
 1521PEP     CB57158   9.403   3.677  22.834 -0.0098  0.1387  0.2918
 1521PEP     CB57159   9.872   3.814  22.657  0.1625  0.2731  0.3236
 1521PEP     CB57160  10.000   4.090  22.228  0.1518 -0.0918 -0.2517
 1522PEP     CB57161   2.253  13.737  13.655 -0.3256 -0.1789  0.0442
 1522PEP     CB57162   2.151  13.300  13.631  0.2209  0.0980 -0.2667
 1522PEP     CB57163   2.142  13.049  13.263 -0.0165  0.1964 -0.3250
 1522PEP     CB57164   2.057  12.796  12.995 -0.0366  0.3068  0.1826
 1522PEP     CB57165   2.366  12.635  12.762 -0.4089  0.0412  0.0794
 1522PEP     CB57166   2.781  12.630  12.909 -0.3659 -0.0202  0.4907
 1522PEP     CB57167   3.060  12.392  13.230  0.4389 -0.1824  0.2596
 1522PEP     CB57168   2.919  12.289  13.695  0.2136  0.4203 -0.2317
 1522PEP     CB57169   2.530  12.364  13.878  0.2704 -0.1259  0.0208
 1522PEP     CB57170   2.285  12.783  13.810 -0.0959 -0.2068  0.3126
 1522PEP     CB57171   2.545  13.195  13.874 -0.1161 -0.2961  0.2262
 1522PEP     CB57172   2.892  13.162  14.255  0.0224  0.1745  0.3862
 1522PEP     CB57173   2.886  12.914  14.684 -0.0216  0.0404 -0.1632
 1522PEP     CB57174   3.194  12.615  14.724  0.2359 -0.3847  0.1517
 1522PEP     CB57175   3.370  12.202  14.664 -0.2765  0.0245  0.2325
 1522PEP     CB57176   3.659  11.872  14.529  0.2389  0.3786 -0.0031
 1522PEP     CB57177   3.998  11.781  14.325 -0.0724  0.0151  0.0092
 1522PEP     CB57178   4.284  11.741  13.948 -0.2322 -0.4816 -0.2245
 1522PEP     CB57179   4.389  11.678  13.498  0.2268  0.0305  0.0726
 1522PEP     CB57180   4.730  11.498  13.287  0.0869  0.1432 -0.4804
 1522PEP     CB57181   4.940  11.571  12.913 -0.0449  0.1848 -0.0941
 1522PEP     CB57182   4.871  11.335  12.544  0.0233 -0.0220  0.0332
 1522PEP     CB57183   4.961  10.857  12.672 -0.3108  0.1050 -0.1748
 1522PEP     CB57184   4.853  10.575  13.071  0.3440  0.3218  0.3041
 1522PEP     CB57185   4.856  10.746  13.441 -0.1187  0.1892 -0.3317
 1522PEP     CB57186   5.042  11.117  13.450  0.1985 -0.2293  0.0558
 1522PEP     CB57187   5.289  11.425  13.441  0.0234  0.0790 -0.2361
 1522PEP     CB57188   5.682  11.445  13.693 -0.0930  0.0958 -0.4208
 1522PEP     CB57189   5.681  11.234  14.214 -0.0521 -0.1137  0.3840
 1522PEP     CB57190   5.453  11.074  14.532 -0.0774 -0.0642  0.3567
 1522PEP     CB57191   5.238  10.693  14.742  0.0227 -0.1225 -0.0221
 1522PEP     CB57192   4.837  10.524  14.888  0.1468  0.1169  0.0300
 1522PEP     CB57193   4.381  10.525  14.763 -0.3163  0.2136  0.1084
 1522PEP     CB57194   4.052  10.460  14.463  0.1322  0.1581  0.1135
 1522PEP     CB57195   3.722  10.571  14.123 -0.2586  0.1545 -0.1130
 1522PEP     CB57196   3.591  10.516  13.779 -0.1936 -0.1185 -0.0244
 1522PEP     CB57197   3.826  10.312  13.440  0.1952  0.1318 -0.1547
 1522PEP     CB57198   4.233  10.264  13.195  0.4687 -0.1665  0.0541
 1522PEP     CB57199   4.634  10.083  13.206  0.2009  0.1433  0.3204
 1522PEP     CB57200   5.045  10.189  13.378 -0.0337 -0.4211 -0.2596
 1523PEP     CB57201  15.616  17.372  11.332  0.4783 -0.2226  0.2536
 1523PEP     CB57202  15.745  17.783  11.554  0.4721  0.1412 -0.1145
 1523PEP     CB57203  15.832  18.039  11.942 -0.1193  0.1779  0.0822
 1523PEP     CB57204  15.602  18.338  12.226 -0.3944  0.1700  0.0783
 1523PEP     CB57205  15.474  18.211  12.654 -0.0413 -0.0534  0.1758
 1523PEP     CB57206  15.671  17.925  12.960  0.3109  0.1626  0.1867
 1523PEP     CB57207  15.983  17.639  13.080 -0.1458  0.2274 -0.0215
 1523PEP     CB57208  16.089  17.167  12.906 -0.2152 -0.2595  0.0397
 1523PEP     CB57209  16.172  16.751  13.091 -0.1564 -0.2528  0.4047
 1523PEP     CB57210  16.285  16.439  13.224 -0.2277  0.1496 -0.3597
 1523PEP     CB57211  16.353  16.069  13.361 -0.0280 -0.0016 -0.3925
 1523PEP     CB57212  16.354  15.622  13.465 -0.1219 -0.3847 -0.0064
 1523PEP     CB57213  16.531  15.296  13.377 -0.0982 -0.2469 -0.0808
 1523PEP     CB57214  16.876  15.114  13.318  0.1807 -0.1637  0.2601
 1523PEP     CB57215  17.309  14.930  13.115  0.1361 -0.0256 -0.1211
 1523PEP     CB57216  17.679  15.133  13.236 -0.1463 -0.3959 -0.0755
 1523PEP     CB57217  17.853  15.213  13.591  0.1127  0.3308  0.0207
 1523PEP     CB57218  17.805  14.960  13.982 -0.2681  0.1616  0.0146
 1523PEP     CB57219  17.691  14.955  14.434 -0.0096 -0.2202  0.0931
 1523PEP     CB57220  17.379  15.057  14.668 -0.0379 -0.2042  0.1239
 1523PEP     CB57221  16.989  15.314  14.767 -0.0325  0.1477 -0.4797
 1523PEP     CB57222  16.748  15.758  14.786  0.1631  0.3141  0.0696
 1523PEP     CB57223  16.624  16.100  15.183  0.1177  0.2115 -0.0931
 1523PEP     CB57224  16.767  16.377  15.355  0.0764  0.0420 -0.1573
 1523PEP     CB57225  16.882  16.873  15.413  0.0576  0.4149 -0.5735
 1523PEP     CB57226  17.234  17.162  15.346 -0.3256 -0.5757  0.5857
 1523PEP     CB57227  17.563  17.272  14.943  0.0723 -0.3353  0.0737
 1523PEP     CB57228  17.712  16.935  14.812 -0.1745 -0.4783  0.0891
 1523PEP     CB57229  17.602  16.572  14.608  0.1846  0.0007 -0.3680
 1523PEP     CB57230  17.434  16.220  14.618 -0.3535 -0.2664 -0.0722
 1523PEP     CB57231  17.233  15.970  14.896  0.0368  0.1931  0.4981
 1523PEP     CB57232  17.101  15.855  15.321 -0.3740 -0.1853 -0.0529
 1523PEP     CB57233  16.917  16.043  15.674  0.1384 -0.1041 -0.3473
 1523PEP     CB57234  17.073  16.166  16.026  0.0971  0.6017  0.4396
 1523PEP     CB57235  17.390  16.416  16.266 -0.1095 -0.3296 -0.1616
 1523PEP     CB57236  17.625  16.579  16.544  0.1453  0.1976  0.2257
 1523PEP     CB57237  17.851  16.398  16.837  0.2944 -0.1862  0.1900
 1523PEP     CB57238  18.194  16.150  16.764 -0.2735 -0.1142 -0.1143
 1523PEP     CB57239  18.118  15.810  16.373 -0.0300 -0.2898  0.0998
 1523PEP     CB57240  18.229  15.380  16.084  0.1149  0.2794 -0.3581
 1524PEP     CB57241  18.626  21.146   0.680 -0.4340 -0.0726  0.0938
 1524PEP     CB57242  19.063  21.118   0.905 -0.2005 -0.3738 -0.1607
 1524PEP     CB57243  19.527  21.173   0.884 -0.1385  0.0499  0.5074
 1524PEP     CB57244  19.754  21.435   0.668 -0.0287  0.4938  0.4203
 1524PEP     CB57245  19.982  21.747   0.743 -0.1109  0.1388 -0.1884
 1524PEP     CB57246  19.981  21.940   1.017  0.2628  0.0200  0.2867
 1524PEP     CB57247  19.745  22.272   1.252  0.1069 -0.3238  0.2861
 1524PEP     CB57248  19.311  22.418   1.051  0.2512 -0.1814  0.2431
 1524PEP     CB57249  18.948  22.580   0.898  0.2475  0.0554 -0.0963
 1524PEP     CB57250  18.546  22.531   1.043  0.1519 -0.1389 -0.1906
 1524PEP     CB57251  18.103  22.358   1.263 -0.1015 -0.0759  0.5682
 1524PEP     CB57252  17.714  22.369   1.521 -0.0834  0.1885  0.0626
 1524PEP     CB57253  17.352  22.428   1.814 -0.2107  0.0998  0.1803
 1524PEP     CB57254  17.096  22.318   2.194 -0.1600  0.1986 -0.2462
 1524PEP     CB57255  17.256  22.151   2.628 -0.6087 -0.3040 -0.2990
 1524PEP     CB57256  17.380  22.415   2.959  0.3568 -0.0785  0.0658
 1524PEP     CB57257  17.277  22.768   2.826 -0.3045 -0.1069  0.4395
 1524PEP     CB57258  17.455  22.924   2.460  0.0519  0.0374 -0.1188
 1524PEP     CB57259  17.732  22.747   2.167 -0.1018 -0.2290 -0.0190
 1524PEP     CB57260  17.782  22.322   2.088 -0.0628 -0.1546 -0.1610
 1524PEP     CB57261  17.831  22.014   2.429  0.2018 -0.1766  0.1583
 1524PEP     CB57262  17.729  22.042   2.870 -0.2874  0.4880 -0.2466
 1524PEP     CB57263  17.355  21.797   3.004 -0.0392 -0.2750  0.2442
 1524PEP     CB57264  17.051  21.704   2.789  0.2807  0.0153  0.0660
 1524PEP     CB57265  17.030  21.793   2.349 -0.0514 -0.0348 -0.1885
 1524PEP     CB57266  16.774  21.681   1.966  0.5770 -0.3185 -0.2154
 1524PEP     CB57267  16.622  21.312   1.671 -0.0054 -0.2317 -0.0053
 1524PEP     CB57268  16.615  20.935   1.760  0.0848  0.3306 -0.2175
 1524PEP     CB57269  16.936  20.743   2.140 -0.2531 -0.1135  0.0953
 1524PEP     CB57270  17.285  20.957   2.359 -0.0252 -0.0075 -0.2763
 1524PEP     CB57271  17.284  21.240   2.726  0.0394 -0.1448 -0.3738
 1524PEP     CB57272  17.081  21.328   3.220 -0.4159 -0.1974 -0.1422
 1524PEP     CB57273  17.135  21.116   3.682 -0.1130  0.3256  0.2379
 1524PEP     CB57274  17.141  20.923   4.079 -0.0435  0.1555  0.0520
 1524PEP     CB57275  17.451  20.718   4.399 -0.2692  0.3937 -0.5891
 1524PEP     CB57276  17.699  20.589   4.683 -0.1164 -0.2542  0.2745
 1524PEP     CB57277  17.705  20.502   5.211 -0.0994 -0.1015  0.1765
 1524PEP     CB57278  17.950  20.711   5.533  0.2696 -0.2796  0.0822
 1524PEP     CB57279  18.342  20.741   5.829  0.6170 -0.2279 -0.2868
 1524PEP     CB57280  18.698  20.922   6.109 -0.1766  0.2617 -0.1303
 1525PEP     CB57281  16.737  14.603   7.463  0.2133 -0.4191  0.1684
 1525PEP     CB57282  16.556  14.773   7.137 -0.1774  0.3451  0.4004
 1525PEP     CB57283  16.436  14.675   6.696 -0.1058  0.0245 -0.2064
 1525PEP     CB57284  16.445  14.282   6.457 -0.1431 -0.2456  0.2021
 1525PEP     CB57285  16.561  13.998   6.078 -0.2311  0.3803  0.1035
 1525PEP     CB57286  16.576  13.755   5.657  0.1525 -0.1639  0.0005
 1525PEP     CB57287  16.494  13.844   5.223 -0.0714  0.3124  0.0286
 1525PEP     CB57288  16.589  13.580   4.913  0.0011  0.0178  0.2096
 1525PEP     CB57289  16.609  13.275   4.707  0.5219 -0.1970 -0.1066
 1525PEP     CB57290  16.745  12.794   4.612 -0.5079  0.4961  0.0003
 1525PEP     CB57291  16.888  12.410   4.802  0.1431 -0.1022  0.1579
 1525PEP     CB57292  16.975  12.252   5.208  0.3806  0.1254  0.1068
 1525PEP     CB57293  17.318  12.227   5.393 -0.3852 -0.2061  0.0697
 1525PEP     CB57294  17.673  12.605   5.419  0.0003  0.1004 -0.3368
 1525PEP     CB57295  18.035  12.803   5.264 -0.3004  0.3986 -0.1224
 1525PEP     CB57296  18.317  13.162   5.157 -0.0879 -0.1226 -0.1442
 1525PEP     CB57297  18.776  13.264   5.155  0.1013  0.2711  0.1349
 1525PEP     CB57298  19.244  13.218   5.096 -0.2009 -0.3036  0.0288
 1525PEP     CB57299  19.633  13.093   4.791  0.2313 -0.2124 -0.5644
 1525PEP     CB57300  19.790  12.785   4.457  0.5507 -0.5680 -0.2217
 1525PEP     CB57301  19.763  12.509   4.120 -0.5547 -0.0359  0.3437
 1525PEP     CB57302  19.539  12.347   3.837  0.2073  0.1769  0.5705
 1525PEP     CB57303  19.306  12.093   3.655  0.0499  0.2514  0.0222
 1525PEP     CB57304  19.476  11.957   3.322  0.1515  0.1838  0.2475
 1525PEP     CB57305  19.731  11.969   2.951  0.1253  0.2710 -0.2616
 1525PEP     CB57306  19.843  12.121   2.573  0.0042  0.6197 -0.5520
 1525PEP     CB57307  19.711  12.422   2.257  0.3601 -0.0549  0.1322
 1525PEP     CB57308  19.700  12.867   2.152 -0.0650 -0.0548  0.1332
 1525PEP     CB57309  19.631  13.323   2.422 -0.0316 -0.1363 -0.0604
 1525PEP     CB57310  19.296  13.644   2.342  0.0808 -0.0625 -0.2243
 1525PEP     CB57311  18.840  13.756   2.314  0.1364 -0.0389  0.0324
 1525PEP     CB57312  18.528  13.735   2.660  0.0102  0.0339 -0.5244
 1525PEP     CB57313  18.604  13.425   2.846 -0.1761 -0.0927 -0.1238
 1525PEP     CB57314  18.468  13.117   2.521  0.2141  0.1080 -0.3525
 1525PEP     CB57315  18.494  13.257   2.067  0.1579 -0.0505  0.0732
 1525PEP     CB57316  18.486  13.710   1.941 -0.1115  0.1690 -0.1619
 1525PEP     CB57317  18.409  14.012   2.236 -0.6962 -0.0509  0.2982
 1525PEP     CB57318  18.520  14.324   2.584 -0.1462 -0.0929  0.0026
 1525PEP     CB57319  18.914  14.688   2.623  0.0658 -0.0666 -0.0298
 1525PEP     CB57320  19.324  14.656   2.552  0.1876  0.0066 -0.1563
 1526PEP     CB57321  18.108  14.651   3.037  0.2500  0.0903 -0.2798
 1526PEP     CB57322  18.038  14.556   2.577  0.0648 -0.0361 -0.2938
 1526PEP     CB57323  17.956  14.610   2.053  0.3469  0.2938  0.2645
 1526PEP     CB57324  17.762  14.408   1.623  0.3514  0.3951 -0.2897
 1526PEP     CB57325  17.447  14.202   1.431  0.3859 -0.2768  0.3437
 1526PEP     CB57326  17.177  13.860   1.497  0.1820 -0.1530  0.2018
 1526PEP     CB57327  17.026  13.496   1.501 -0.3797  0.1330  0.0864
 1526PEP     CB57328  17.139  13.042   1.344 -0.4389 -0.4594  0.1392
 1526PEP     CB57329  17.231  12.917   1.005 -0.1466 -0.1362  0.2966
 1526PEP     CB57330  17.368  12.451   0.764  0.2007 -0.0946  0.0276
 1526PEP     CB57331  17.496  12.257   0.369  0.0683 -0.1450 -0.2587
 1526PEP     CB57332  17.777  12.083   0.115 -0.1180 -0.0853  0.2875
 1526PEP     CB57333  17.955  12.211  -0.277  0.0158 -0.0642  0.4677
 1526PEP     CB57334  18.209  12.619  -0.425  0.0822 -0.0997 -0.1563
 1526PEP     CB57335  18.298  12.949  -0.713 -0.3132 -0.3620  0.1683
 1526PEP     CB57336  18.355  12.918  -1.165  0.1379  0.2053  0.0035
 1526PEP     CB57337  18.625  12.889  -1.515 -0.4391 -0.0952 -0.1896
 1526PEP     CB57338  18.949  12.748  -1.711 -0.2394 -0.0687  0.0797
 1526PEP     CB57339  19.335  12.690  -1.560 -0.0420  0.2965  0.1925
 1526PEP     CB57340  19.657  13.001  -1.292 -0.0524 -0.0961  0.1733
 1526PEP     CB57341  19.827  13.425  -1.347  0.0533 -0.2422 -0.1745
 1526PEP     CB57342  19.519  13.749  -1.681  0.2780  0.2209 -0.0057
 1526PEP     CB57343  19.399  13.642  -2.110 -0.0449  0.0445  0.3142
 1526PEP     CB57344  19.006  13.624  -2.385  0.0214 -0.2589 -0.1337
 1526PEP     CB57345  18.598  13.476  -2.325  0.2779  0.0786 -0.0009
 1526PEP     CB57346  18.296  13.197  -2.350  0.2005 -0.0853 -0.1902
 1526PEP     CB57347  18.082  13.005  -2.650 -0.0670  0.3848  0.0941
 1526PEP     CB57348  18.294  12.741  -2.950  0.0628 -0.4601 -0.0265
 1526PEP     CB57349  18.581  12.506  -3.102 -0.3811  0.0128 -0.0118
 1526PEP     CB57350  18.917  12.467  -3.395  0.1012 -0.0021  0.3602
 1526PEP     CB57351  19.268  12.619  -3.373 -0.0513  0.4959 -0.0164
 1526PEP     CB57352  19.755  12.530  -3.358 -0.0336 -0.2234 -0.0512
 1526PEP     CB57353  20.085  12.331  -3.323  0.0308  0.1703  0.1979
 1526PEP     CB57354  20.180  12.185  -2.884  0.3443  0.0116  0.2565
 1526PEP     CB57355  19.852  11.986  -2.553  0.0614  0.0927 -0.1280
 1526PEP     CB57356  19.552  11.836  -2.365 -0.1141 -0.1692 -0.2836
 1526PEP     CB57357  19.344  11.557  -2.460  0.4526 -0.0315 -0.4957
 1526PEP     CB57358  19.309  11.035  -2.514  0.0221  0.2421 -0.1722
 1526PEP     CB57359  19.225  10.693  -2.619 -0.0309 -0.0986 -0.1096
 1526PEP     CB57360  18.924  10.488  -2.885 -0.1639 -0.1112  0.1186
 1527PEP     CB57361   4.948  18.463   7.855  0.3277  0.0325  0.1105
 1527PEP     CB57362   4.627  18.646   7.918  0.0532  0.1709 -0.0044
 1527PEP     CB57363   4.242  18.944   7.989  0.5461  0.0083  0.3133
 1527PEP     CB57364   4.167  19.321   7.867  0.2601  0.0526  0.0523
 1527PEP     CB57365   4.483  19.642   7.858  0.0989  0.0099 -0.0602
 1527PEP     CB57366   4.801  19.636   7.548  0.0276 -0.2915  0.0826
 1527PEP     CB57367   4.970  19.302   7.289 -0.3082 -0.4999  0.4050
 1527PEP     CB57368   4.956  18.982   6.875 -0.0217 -0.0700 -0.1787
 1527PEP     CB57369   4.828  18.824   6.527  0.1245 -0.0431  0.0397
 1527PEP     CB57370   4.622  18.751   6.207 -0.0928 -0.0142 -0.1552
 1527PEP     CB57371   4.559  18.315   6.005  0.1076 -0.1639  0.3883
 1527PEP     CB57372   5.034  18.187   5.789  0.1411 -0.4039  0.2346
 1527PEP     CB57373   5.456  18.087   5.571  0.0721  0.1540 -0.0775
 1527PEP     CB57374   5.824  17.973   5.443 -0.3081  0.0535 -0.0244
 1527PEP     CB57375   6.240  17.843   5.296 -0.0696  0.2821  0.1764
 1527PEP     CB57376   6.304  17.405   5.161  0.0724 -0.0912  0.1610
 1527PEP     CB57377   5.973  17.045   5.184 -0.1019 -0.1423 -0.4215
 1527PEP     CB57378   5.537  17.167   5.232  0.6732 -0.0630 -0.0631
 1527PEP     CB57379   5.193  17.167   5.317  0.1740 -0.2732  0.2533
 1527PEP     CB57380   4.820  17.355   5.484 -0.2229  0.1663  0.1347
 1527PEP     CB57381   4.429  17.552   5.342 -0.0498 -0.2002  0.2776
 1527PEP     CB57382   4.326  17.412   4.834 -0.3564 -0.2184 -0.0791
 1527PEP     CB57383   4.633  17.142   4.603 -0.0795  0.4433 -0.1903
 1527PEP     CB57384   4.919  16.881   4.763  0.0919  0.3040 -0.2394
 1527PEP     CB57385   5.308  16.765   4.569 -0.0448 -0.0619  0.4146
 1527PEP     CB57386   5.627  16.784   4.197 -0.0630 -0.3787 -0.1957
 1527PEP     CB57387   5.821  17.048   3.915  0.0024 -0.2114  0.1019
 1527PEP     CB57388   5.873  17.200   3.501  0.6323 -0.3725 -0.5511
 1527PEP     CB57389   5.797  17.268   3.111 -0.1378  0.4689  0.0008
 1527PEP     CB57390   5.486  17.432   2.790 -0.0693  0.2036  0.1017
 1527PEP     CB57391   5.077  17.440   2.680  0.3420  0.2888 -0.0387
 1527PEP     CB57392   4.552  17.505   2.640 -0.0808 -0.0627  0.3851
 1527PEP     CB57393   4.170  17.761   2.582 -0.3352  0.1307  0.1650
 1527PEP     CB57394   3.758  17.888   2.509  0.2378  0.1249 -0.1186
 1527PEP     CB57395   3.338  17.855   2.693 -0.3668 -0.1417 -0.3585
 1527PEP     CB57396   2.961  17.497   2.744  0.0365 -0.0018 -0.0736
 1527PEP     CB57397   3.070  16.994   2.766  0.3953 -0.1060 -0.0471
 1527PEP     CB57398   3.251  16.827   2.509 -0.0133 -0.2448 -0.1147
 1527PEP     CB57399   3.319  16.837   2.033  0.2546 -0.6115  0.3216
 1527PEP     CB57400   3.435  17.103   1.636 -0.0214  0.3352  0.3275
 1528PEP     CB57401  19.966   0.742  12.042 -0.2769 -0.3093  0.1716
 1528PEP     CB57402  20.025   0.964  11.718 -0.1395 -0.4670 -0.1138
 1528PEP     CB57403  20.187   1.321  11.525 -0.2502 -0.1352 -0.1149
 1528PEP     CB57404  20.310   1.719  11.766  0.0016  0.0021  0.4087
 1528PEP     CB57405  20.271   2.057  11.883  0.2653 -0.2335 -0.1621
 1528PEP     CB57406  20.246   2.454  11.710 -0.1474 -0.0314  0.3121
 1528PEP     CB57407  20.489   2.773  11.485 -0.1337  0.0164 -0.3329
 1528PEP     CB57408  20.671   2.869  11.058 -0.0186  0.0694 -0.0855
 1528PEP     CB57409  20.996   3.105  10.862 -0.2662  0.0466  0.2841
 1528PEP     CB57410  21.156   3.329  10.512 -0.3502 -0.2903  0.0566
 1528PEP     CB57411  21.206   3.268  10.042  0.2625  0.2262  0.1801
 1528PEP     CB57412  21.029   3.074   9.717  0.2892 -0.0896 -0.2902
 1528PEP     CB57413  20.967   2.875   9.286 -0.2979  0.0604 -0.0870
 1528PEP     CB57414  21.228   2.866   8.907 -0.2342 -0.0535 -0.0964
 1528PEP     CB57415  21.373   2.797   8.545 -0.1040 -0.2307 -0.2560
 1528PEP     CB57416  21.655   2.380   8.488 -0.1206  0.2879 -0.0470
 1528PEP     CB57417  21.967   2.062   8.651  0.1124  0.0812  0.2980
 1528PEP     CB57418  22.190   1.782   8.387 -0.6743 -0.0378 -0.1388
 1528PEP     CB57419  22.047   1.559   8.011 -0.0564 -0.1502  0.1926
 1528PEP     CB57420  21.883   1.569   7.560 -0.1351 -0.0745 -0.3982
 1528PEP     CB57421  21.935   1.476   7.161  0.3101  0.2122  0.1367
 1528PEP     CB57422  22.269   1.336   6.885 -0.3714 -0.1620 -0.0137
 1528PEP     CB57423  22.693   1.281   6.823  0.0998 -0.4314 -0.0774
 1528PEP     CB57424  23.067   1.540   6.706 -0.0300  0.2682 -0.1725
 1528PEP     CB57425  23.180   1.781   6.338 -0.2909  0.0819 -0.0014
 1528PEP     CB57426  22.914   2.084   6.026 -0.1056 -0.1686 -0.0749
 1528PEP     CB57427  22.602   2.419   5.992 -0.0047 -0.0786 -0.3786
 1528PEP     CB57428  22.363   2.825   6.013 -0.1154 -0.3348  0.1510
 1528PEP     CB57429  21.939   2.976   5.922 -0.0480  0.1458 -0.4718
 1528PEP     CB57430  21.521   2.824   5.783 -0.2354 -0.0641  0.3442
 1528PEP     CB57431  21.076   2.774   5.571  0.0809 -0.2313 -0.0966
 1528PEP     CB57432  20.923   2.718   5.223 -0.2979  0.2431 -0.3156
 1528PEP     CB57433  20.719   2.430   4.983 -0.1304 -0.2852 -0.1036
 1528PEP     CB57434  20.500   2.156   4.762 -0.0031  0.4073  0.1289
 1528PEP     CB57435  20.191   2.219   4.358 -0.0206  0.0520 -0.2236
 1528PEP     CB57436  19.817   2.468   4.265 -0.2943 -0.2432 -0.2830
 1528PEP     CB57437  19.503   2.711   4.458 -0.0776 -0.1532 -0.2863
 1528PEP     CB57438  19.386   3.061   4.725  0.2499  0.0695 -0.0815
 1528PEP     CB57439  19.010   3.119   4.832  0.1422 -0.4376  0.3787
 1528PEP     CB57440  18.543   3.034   4.886 -0.1103 -0.3373  0.1671
 1529PEP     CB57441   4.293   7.029   7.117 -0.1503  0.0251 -0.3965
 1529PEP     CB57442   4.070   7.108   7.514 -0.0107  0.1562 -0.0481
 1529PEP     CB57443   4.049   6.930   7.872 -0.0888  0.1661 -0.1911
 1529PEP     CB57444   3.922   7.099   8.191 -0.0932  0.2998  0.1522
 1529PEP     CB57445   3.921   7.420   8.543  0.1455  0.2366  0.0234
 1529PEP     CB57446   3.603   7.837   8.730 -0.2275 -0.3822 -0.1380
 1529PEP     CB57447   3.363   8.257   8.661  0.2616  0.3297  0.0993
 1529PEP     CB57448   3.356   8.729   8.637  0.2846  0.2032  0.1123
 1529PEP     CB57449   3.395   9.129   8.655  0.2408  0.0529 -0.5053
 1529PEP     CB57450   3.524   9.551   8.824  0.1451 -0.1964 -0.3811
 1529PEP     CB57451   3.325   9.886   8.896  0.1513  0.1379  0.1475
 1529PEP     CB57452   2.957  10.182   9.075 -0.4302 -0.0797  0.3545
 1529PEP     CB57453   2.746  10.555   9.185  0.2083 -0.1564  0.0919
 1529PEP     CB57454   2.423  10.727   9.050  0.0358  0.1273 -0.1278
 1529PEP     CB57455   2.301  11.165   8.919 -0.1627  0.2517  0.0026
 1529PEP     CB57456   2.193  11.570   9.106  0.0407  0.0767  0.0548
 1529PEP     CB57457   2.055  11.943   9.414 -0.1367 -0.4093 -0.2304
 1529PEP     CB57458   2.087  12.336   9.530  0.4268  0.0795 -0.6687
 1529PEP     CB57459   1.848  12.632   9.693  0.0303  0.3030 -0.1169
 1529PEP     CB57460   1.621  12.998   9.689 -0.3361  0.3017  0.2624
 1529PEP     CB57461   1.517  13.450   9.550 -0.2185 -0.3415  0.1008
 1529PEP     CB57462   1.381  13.943   9.516  0.0141 -0.1750 -0.0136
 1529PEP     CB57463   1.352  14.398   9.446  0.2252  0.1228 -0.0495
 1529PEP     CB57464   1.598  14.727   9.549 -0.0467 -0.0690 -0.2421
 1529PEP     CB57465   2.094  14.622   9.652 -0.1789  0.1199 -0.2594
 1529PEP     CB57466   2.437  14.277   9.899  0.2122  0.3901 -0.1456
 1529PEP     CB57467   2.736  13.879  10.012 -0.2370  0.2320 -0.2193
 1529PEP     CB57468   2.716  13.541  10.288 -0.0880  0.1046  0.0535
 1529PEP     CB57469   2.503  13.467  10.684 -0.1969  0.2066 -0.1760
 1529PEP     CB57470   2.308  13.195  11.057  0.1668 -0.3414 -0.1086
 1529PEP     CB57471   2.555  12.777  11.002  0.3181 -0.1001  0.2403
 1529PEP     CB57472   3.014  12.725  10.858 -0.1383  0.3853 -0.0717
 1529PEP     CB57473   3.186  12.997  10.519 -0.0426  0.1977 -0.1140
 1529PEP     CB57474   3.035  13.189  10.120 -0.0949 -0.0171  0.3157
 1529PEP     CB57475   2.614  13.162  10.010 -0.0111 -0.1887 -0.0585
 1529PEP     CB57476   2.324  13.152  10.256  0.0756 -0.0586  0.4064
 1529PEP     CB57477   2.208  12.836  10.594  0.3740 -0.0599 -0.0435
 1529PEP     CB57478   2.504  12.442  10.524 -0.3463  0.2350  0.1533
 1529PEP     CB57479   2.531  12.199  10.144  0.1926 -0.0797  0.0833
 1529PEP     CB57480   2.589  12.265   9.811 -0.0958  0.0931  0.1439
 1530PEP     CB57481  17.118   5.254  11.837 -0.0297  0.1633 -0.0334
 1530PEP     CB57482  17.478   5.461  11.988 -0.3522  0.1176 -0.2481
 1530PEP     CB57483  17.788   5.588  12.223 -0.2526  0.0259  0.0982
 1530PEP     CB57484  18.073   5.558  12.544 -0.2657 -0.2243  0.2439
 1530PEP     CB57485  17.986   5.288  12.901 -0.0574 -0.3160  0.1655
 1530PEP     CB57486  17.717   4.928  12.772 -0.2393 -0.0477  0.1883
 1530PEP     CB57487  17.466   4.983  12.404 -0.0094  0.1348 -0.0369
 1530PEP     CB57488  17.605   4.988  11.928 -0.0509 -0.0257  0.1270
 1530PEP     CB57489  17.720   4.666  11.620 -0.2002  0.0283 -0.3682
 1530PEP     CB57490  17.688   4.232  11.571  0.2817  0.1428  0.2787
 1530PEP     CB57491  17.964   3.939  11.305  0.4077 -0.0435 -0.0068
 1530PEP     CB57492  18.368   4.029  11.091 -0.3506 -0.0224 -0.0422
 1530PEP     CB57493  18.509   4.492  10.970 -0.4972  0.2117  0.0315
 1530PEP     CB57494  18.366   4.836  11.216  0.1499 -0.3488  0.3364
 1530PEP     CB57495  17.980   5.003  11.301 -0.0361  0.1173 -0.2383
 1530PEP     CB57496  17.647   5.289  11.533  0.5652 -0.2391 -0.1934
 1530PEP     CB57497  17.302   5.488  11.469 -0.0914  0.2269  0.2304
 1530PEP     CB57498  16.883   5.624  11.533  0.0321  0.2557  0.2377
 1530PEP     CB57499  16.560   5.859  11.291 -0.2542  0.3396  0.2205
 1530PEP     CB57500  16.435   5.862  10.791  0.1290 -0.1617 -0.0132
 1530PEP     CB57501  16.567   5.737  10.357 -0.3103 -0.2532  0.1082
 1530PEP     CB57502  16.383   5.522   9.969 -0.3528 -0.1111 -0.6075
 1530PEP     CB57503  16.459   5.206   9.718  0.0160 -0.1638 -0.1159
 1530PEP     CB57504  16.506   5.016   9.313 -0.2636 -0.2496  0.1761
 1530PEP     CB57505  16.703   4.659   9.046  0.2215  0.0275  0.0973
 1530PEP     CB57506  16.789   4.399   8.739 -0.2156  0.2362  0.0610
 1530PEP     CB57507  16.580   4.077   8.712  0.0264 -0.0938  0.1935
 1530PEP     CB57508  16.315   3.903   9.099  0.0176  0.0017  0.1019
 1530PEP     CB57509  15.899   4.019   9.217  0.1609 -0.1444 -0.0625
 1530PEP     CB57510  15.611   4.350   8.971  0.1490 -0.1088  0.0784
 1530PEP     CB57511  15.742   4.633   8.855 -0.3162  0.2316  0.3924
 1530PEP     CB57512  16.108   4.973   8.821  0.0948 -0.3383 -0.0055
 1530PEP     CB57513  16.056   5.459   9.033  0.1087 -0.1509  0.0995
 1530PEP     CB57514  15.855   5.747   9.226 -0.2198 -0.1097  0.1043
 1530PEP     CB57515  15.864   6.076   9.387  0.0602 -0.4668 -0.2721
 1530PEP     CB57516  15.939   6.495   9.313 -0.0744 -0.1103 -0.1617
 1530PEP     CB57517  16.182   6.860   9.341  0.4704  0.0327  0.0329
 1530PEP     CB57518  16.497   7.145   9.173 -0.1296  0.1859 -0.1312
 1530PEP     CB57519  16.740   7.348   8.894  0.0245  0.0595  0.0497
 1530PEP     CB57520  17.017   7.629   8.988 -0.0235  0.0639  0.2751
 1531PEP     CB57521  21.334   4.145   3.475 -0.3182  0.0003 -0.1794
 1531PEP     CB57522  21.567   3.755   3.569 -0.0579  0.1901 -0.1128
 1531PEP     CB57523  21.790   3.440   3.847 -0.2053  0.0675  0.1404
 1531PEP     CB57524  22.052   3.271   4.057 -0.0218 -0.3196 -0.0476
 1531PEP     CB57525  22.455   3.444   4.047 -0.0235  0.2537  0.2516
 1531PEP     CB57526  22.863   3.406   4.032 -0.1369  0.4244  0.3001
 1531PEP     CB57527  23.253   3.145   4.039 -0.3584  0.0955 -0.0762
 1531PEP     CB57528  23.586   2.919   3.900 -0.1775 -0.1272 -0.2952
 1531PEP     CB57529  24.053   2.907   3.945 -0.0532  0.2667  0.0498
 1531PEP     CB57530  24.481   2.949   3.891  0.0262 -0.3637  0.0435
 1531PEP     CB57531  24.840   2.781   4.071  0.4324  0.1926  0.3327
 1531PEP     CB57532  25.162   2.712   4.195  0.0394  0.2415  0.1572
 1531PEP     CB57533  25.427   2.420   4.336 -0.3109 -0.1047  0.1248
 1531PEP     CB57534  25.551   1.947   4.147  0.0395 -0.1639  0.2203
 1531PEP     CB57535  25.793   1.592   4.122  0.0723 -0.0130 -0.4123
 1531PEP     CB57536  25.992   1.176   4.251  0.1891  0.0998  0.2602
 1531PEP     CB57537  26.076   0.816   4.390  0.1445 -0.1547 -0.2476
 1531PEP     CB57538  25.980   0.562   4.696  0.1011 -0.2156 -0.1578
 1531PEP     CB57539  25.648   0.757   4.987  0.2183  0.1952 -0.2334
 1531PEP     CB57540  25.404   1.182   5.082  0.1361  0.0304  0.0769
 1531PEP     CB57541  25.203   1.468   4.858 -0.2087 -0.1751  0.0986
 1531PEP     CB57542  24.927   1.605   4.595 -0.1501  0.1450  0.5410
 1531PEP     CB57543  24.635   1.328   4.363  0.0218 -0.1233  0.0636
 1531PEP     CB57544  24.457   0.965   4.462 -0.0798 -0.5041 -0.1300
 1531PEP     CB57545  24.139   0.746   4.595 -0.0210  0.1278  0.1249
 1531PEP     CB57546  23.720   0.759   4.636 -0.1522 -0.0939  0.4136
 1531PEP     CB57547  23.348   0.917   4.481  0.0317 -0.1936 -0.3220
 1531PEP     CB57548  22.859   0.797   4.485 -0.1449 -0.0687 -0.1803
 1531PEP     CB57549  22.436   0.573   4.343  0.0637 -0.3272  0.2841
 1531PEP     CB57550  22.452   0.218   4.319  0.0194 -0.3333  0.2756
 1531PEP     CB57551  22.707  -0.106   4.108 -0.0651  0.1084  0.4559
 1531PEP     CB57552  22.743  -0.573   4.136 -0.4062  0.0256 -0.3674
 1531PEP     CB57553  22.715  -1.132   4.034 -0.1855  0.2901  0.0450
 1531PEP     CB57554  22.623  -1.615   3.860 -0.2209  0.1337 -0.7642
 1531PEP     CB57555  22.651  -1.728   3.436  0.3738  0.0370 -0.4004
 1531PEP     CB57556  22.593  -1.438   3.112 -0.3483  0.1565 -0.1944
 1531PEP     CB57557  22.207  -1.132   3.029  0.2984 -0.0831 -0.1447
 1531PEP     CB57558  22.054  -0.675   2.906 -0.1586 -0.1969  0.0125
 1531PEP     CB57559  22.197  -0.289   3.024 -0.1335 -0.0979 -0.0362
 1531PEP     CB57560  22.101   0.018   3.359 -0.2234  0.0402  0.0854
 1532PEP     CB57561   6.068   2.521   4.454  0.3754  0.2920 -0.1021
 1532PEP     CB57562   5.875   2.930   4.538 -0.2141 -0.0891  0.0245
 1532PEP     CB57563   5.912   3.387   4.699 -0.0405  0.0201 -0.2504
 1532PEP     CB57564   5.639   3.705   4.842  0.2289  0.3901 -0.2780
 1532PEP     CB57565   5.809   4.175   4.953 -0.0435  0.2155  0.5196
 1532PEP     CB57566   6.053   4.388   5.230  0.2667  0.2695 -0.0406
 1532PEP     CB57567   6.155   4.649   5.547  0.3706 -0.2828 -0.1986
 1532PEP     CB57568   6.032   4.758   5.936 -0.0327  0.0006 -0.1321
 1532PEP     CB57569   5.631   4.967   6.186 -0.0675 -0.2390  0.0350
 1532PEP     CB57570   5.286   4.974   5.889 -0.0238  0.0326 -0.3384
 1532PEP     CB57571   5.227   4.915   5.422  0.1256  0.0967 -0.0017
 1532PEP     CB57572   4.953   4.740   5.214  0.2306  0.0086  0.4537
 1532PEP     CB57573   4.561   4.495   5.180 -0.0884 -0.3813 -0.3297
 1532PEP     CB57574   4.164   4.314   5.113 -0.0864 -0.2768 -0.4182
 1532PEP     CB57575   3.774   4.506   5.192  0.5560  0.0075  0.3911
 1532PEP     CB57576   3.655   5.010   5.250  0.2092  0.1478  0.0831
 1532PEP     CB57577   3.823   5.357   5.181  0.2372 -0.0562  0.0271
 1532PEP     CB57578   4.152   5.454   5.232  0.1347 -0.0257 -0.2728
 1532PEP     CB57579   4.600   5.552   5.411 -0.0451  0.2190  0.3122
 1532PEP     CB57580   5.024   5.477   5.713  0.0516 -0.1009 -0.0446
 1532PEP     CB57581   5.429   5.443   5.853 -0.0585  0.0540  0.5948
 1532PEP     CB57582   5.838   5.479   5.999 -0.2369 -0.2594  0.3751
 1532PEP     CB57583   6.248   5.554   5.998 -0.0635  0.2157  0.2928
 1532PEP     CB57584   6.479   5.902   5.889 -0.2960 -0.2699 -0.1203
 1532PEP     CB57585   6.399   6.304   5.737  0.2570  0.1409  0.1621
 1532PEP     CB57586   6.329   6.766   5.860 -0.2076  0.1398 -0.2493
 1532PEP     CB57587   6.185   7.186   6.059  0.0501 -0.0663 -0.0336
 1532PEP     CB57588   6.007   7.465   6.362 -0.2757 -0.3930  0.3824
 1532PEP     CB57589   5.850   7.584   6.790  0.1178  0.1180 -0.3765
 1532PEP     CB57590   5.564   7.449   7.190 -0.1326 -0.0859  0.3225
 1532PEP     CB57591   5.133   7.527   7.508 -0.0434  0.2855 -0.1194
 1532PEP     CB57592   4.670   7.592   7.441  0.1754  0.0240  0.0552
 1532PEP     CB57593   4.563   7.407   6.894 -0.1216  0.0472 -0.0014
 1532PEP     CB57594   4.660   7.002   6.674 -0.3162  0.0991  0.0272
 1532PEP     CB57595   4.521   6.737   6.454  0.1589 -0.1006 -0.2137
 1532PEP     CB57596   4.178   6.409   6.356 -0.1000  0.4835 -0.4718
 1532PEP     CB57597   3.959   6.172   6.543 -0.0235  0.0730  0.4946
 1532PEP     CB57598   3.564   6.106   6.403 -0.1215  0.4008  0.1746
 1532PEP     CB57599   3.549   6.395   6.125  0.0394  0.0386 -0.0282
 1532PEP     CB57600   3.915   6.528   5.911 -0.1575 -0.1879 -0.0330
 1533PEP     CB57601  16.216  21.767   0.659 -0.0889 -0.3154 -0.1589
 1533PEP     CB57602  16.572  21.540   0.897 -0.2283  0.0939  0.2591
 1533PEP     CB57603  17.003  21.537   1.049  0.0696 -0.0268  0.0227
 1533PEP     CB57604  17.434  21.702   1.017  0.0155  0.2898 -0.0532
 1533PEP     CB57605  17.773  21.688   0.822  0.0498  0.3969 -0.0505
 1533PEP     CB57606  18.124  21.563   0.506  0.0801  0.1782 -0.0203
 1533PEP     CB57607  18.522  21.621   0.495  0.4189 -0.1881  0.2137
 1533PEP     CB57608  18.794  21.546   0.865 -0.0404  0.0244  0.0671
 1533PEP     CB57609  19.161  21.632   1.125  0.0063  0.1518  0.2521
 1533PEP     CB57610  19.599  21.658   1.118 -0.0158 -0.0321 -0.3182
 1533PEP     CB57611  19.953  21.382   1.102 -0.1481 -0.0864 -0.4551
 1533PEP     CB57612  19.946  20.946   0.985  0.4219  0.4371  0.1495
 1533PEP     CB57613  19.660  20.601   0.910 -0.0790 -0.3150 -0.0929
 1533PEP     CB57614  19.215  20.592   1.009 -0.2356  0.0994 -0.0155
 1533PEP     CB57615  19.076  20.835   1.312  0.1143 -0.0508  0.2386
 1533PEP     CB57616  19.158  21.230   1.421  0.1171  0.2837  0.0288
 1533PEP     CB57617  18.875  21.662   1.507  0.3643  0.3380 -0.0412
 1533PEP     CB57618  18.754  21.891   1.224  0.3497  0.0180 -0.1482
 1533PEP     CB57619  18.894  22.041   0.924 -0.1547  0.1367  0.2830
 1533PEP     CB57620  18.998  22.086   0.495 -0.2414  0.0420 -0.0180
 1533PEP     CB57621  19.232  21.921   0.230  0.1798 -0.1097 -0.4966
 1533PEP     CB57622  19.493  21.650   0.225 -0.0949  0.2560  0.1879
 1533PEP     CB57623  19.845  21.362   0.147  0.0960 -0.0431 -0.3142
 1533PEP     CB57624  20.024  20.990   0.012 -0.3298 -0.1923 -0.2080
 1533PEP     CB57625  20.457  20.766   0.274 -0.0803 -0.0718 -0.1649
 1533PEP     CB57626  20.876  20.917   0.462  0.0833 -0.0815 -0.2140
 1533PEP     CB57627  20.877  21.316   0.618 -0.2923 -0.1686  0.3406
 1533PEP     CB57628  20.697  21.669   0.493  0.1725 -0.0173 -0.0063
 1533PEP     CB57629  20.421  21.897   0.651 -0.0303 -0.3422 -0.0120
 1533PEP     CB57630  20.424  22.272   0.969 -0.1297  0.4716  0.0861
 1533PEP     CB57631  20.629  22.715   0.935 -0.1944  0.1853 -0.1531
 1533PEP     CB57632  20.950  23.021   1.125  0.1190  0.0326  0.0490
 1533PEP     CB57633  20.905  23.411   0.965 -0.1030  0.0731  0.3426
 1533PEP     CB57634  20.785  23.781   0.711 -0.0901 -0.3754 -0.5060
 1533PEP     CB57635  20.689  24.109   0.472 -0.6123 -0.1585 -0.0225
 1533PEP     CB57636  20.623  24.108   0.060  0.0453 -0.0742 -0.1996
 1533PEP     CB57637  20.870  24.081  -0.315 -0.3786 -0.1274 -0.0671
 1533PEP     CB57638  20.875  23.744  -0.674 -0.2706 -0.0509  0.4384
 1533PEP     CB57639  21.045  23.386  -0.671  0.1043  0.0145  0.0647
 1533PEP     CB57640  21.444  23.267  -0.529 -0.1383 -0.4302  0.0006
 1534PEP     CB57641  19.010  18.936   7.484  0.0535  0.0212  0.1019
 1534PEP     CB57642  18.631  19.183   7.413 -0.1108 -0.0660 -0.3012
 1534PEP     CB57643  18.340  19.408   7.711 -0.3557 -0.1144 -0.1062
 1534PEP     CB57644  18.179  19.204   8.098  0.3158 -0.2035  0.2141
 1534PEP     CB57645  18.227  18.979   8.448 -0.1404  0.1112  0.0099
 1534PEP     CB57646  18.232  18.615   8.549 -0.1765 -0.0914  0.0692
 1534PEP     CB57647  18.242  18.262   8.525  0.3360  0.1616 -0.2434
 1534PEP     CB57648  18.225  18.071   8.220  0.0196  0.1152 -0.1362
 1534PEP     CB57649  18.034  18.032   7.818 -0.0299  0.2303 -0.1058
 1534PEP     CB57650  17.913  18.258   7.496  0.0528  0.0451 -0.3609
 1534PEP     CB57651  17.646  18.617   7.483 -0.0097 -0.3668 -0.1361
 1534PEP     CB57652  17.417  18.803   7.836 -0.0618 -0.0014  0.0595
 1534PEP     CB57653  17.245  18.666   8.126  0.2267 -0.0582  0.4595
 1534PEP     CB57654  17.132  18.527   8.580 -0.1402 -0.0648 -0.1070
 1534PEP     CB57655  16.979  18.527   9.048 -0.0836  0.3922 -0.1373
 1534PEP     CB57656  16.867  18.741   9.431  0.1030  0.1382 -0.0849
 1534PEP     CB57657  17.021  18.838   9.900 -0.1134  0.0293 -0.1612
 1534PEP     CB57658  17.026  19.082  10.322  0.2577 -0.0992 -0.0133
 1534PEP     CB57659  17.119  19.290  10.639 -0.0191  0.2260 -0.0457
 1534PEP     CB57660  16.903  19.319  11.069 -0.1257 -0.3127  0.0750
 1534PEP     CB57661  16.749  19.267  11.516 -0.2330  0.2733  0.0732
 1534PEP     CB57662  16.836  18.966  11.854 -0.1228 -0.0881  0.0047
 1534PEP     CB57663  16.679  18.695  12.248 -0.2312 -0.1495 -0.0635
 1534PEP     CB57664  16.577  18.825  12.675  0.2204  0.1164  0.3101
 1534PEP     CB57665  16.741  19.137  12.916  0.1718 -0.1405  0.4450
 1534PEP     CB57666  16.843  19.453  12.786 -0.0192  0.2890 -0.2569
 1534PEP     CB57667  16.667  19.836  12.701 -0.0557  0.0782 -0.0320
 1534PEP     CB57668  16.304  19.925  12.557 -0.0380  0.1344 -0.0381
 1534PEP     CB57669  16.002  19.657  12.434  0.0457  0.3295 -0.0150
 1534PEP     CB57670  15.885  19.495  12.030 -0.3851  0.0066  0.1269
 1534PEP     CB57671  16.035  19.358  11.671  0.1809 -0.1846 -0.0732
 1534PEP     CB57672  16.317  19.223  11.328 -0.1072  0.4088  0.1551
 1534PEP     CB57673  16.481  19.114  10.916 -0.1437 -0.2799 -0.0487
 1534PEP     CB57674  16.502  19.023  10.491 -0.1579  0.0209 -0.0945
 1534PEP     CB57675  16.500  18.869  10.080  0.2400  0.0560 -0.0941
 1534PEP     CB57676  16.231  18.748   9.843  0.3277 -0.0898  0.0197
 1534PEP     CB57677  15.920  18.714   9.574  0.4556  0.1683  0.2584
 1534PEP     CB57678  15.636  18.724   9.218 -0.0177 -0.0464 -0.0913
 1534PEP     CB57679  15.312  18.611   8.912 -0.2681 -0.0676 -0.1649
 1534PEP     CB57680  15.112  18.418   8.468  0.3480 -0.0301  0.1501
 1535PEP     CB57681  13.573  18.094  16.970 -0.1548  0.0562  0.1807
 1535PEP     CB57682  13.305  17.647  16.950 -0.0234 -0.1457 -0.3899
 1535PEP     CB57683  13.048  17.407  17.180 -0.1045 -0.0004  0.2866
 1535PEP     CB57684  12.892  17.437  17.607 -0.0484  0.1153  0.0719
 1535PEP     CB57685  12.966  17.254  17.956 -0.0925 -0.2255 -0.0206
 1535PEP     CB57686  12.952  16.936  18.267  0.0832 -0.1128 -0.1416
 1535PEP     CB57687  12.887  17.045  18.658 -0.1601 -0.1004 -0.2524
 1535PEP     CB57688  12.878  17.130  19.101  0.1129  0.1259  0.0521
 1535PEP     CB57689  12.622  17.370  19.480 -0.2721  0.1604 -0.4676
 1535PEP     CB57690  12.411  17.800  19.467 -0.1138 -0.0227  0.2008
 1535PEP     CB57691  12.168  17.962  19.173  0.1310  0.2441  0.0099
 1535PEP     CB57692  12.132  18.287  18.876  0.3327 -0.1065  0.2433
 1535PEP     CB57693  12.434  18.582  18.714  0.0561 -0.0634 -0.2129
 1535PEP     CB57694  12.863  18.630  18.502  0.2597  0.4934 -0.0229
 1535PEP     CB57695  13.326  18.845  18.524  0.1902 -0.2314  0.5734
 1535PEP     CB57696  13.723  18.947  18.478 -0.1484 -0.0248  0.1413
 1535PEP     CB57697  13.856  19.360  18.515 -0.3664  0.2258  0.0529
 1535PEP     CB57698  13.767  19.675  18.819 -0.0834 -0.0924  0.2195
 1535PEP     CB57699  13.747  19.539  19.210 -0.4005 -0.2162 -0.1233
 1535PEP     CB57700  14.096  19.255  19.342 -0.0621 -0.1033 -0.2587
 1535PEP     CB57701  14.439  19.059  19.529  0.0787 -0.3743 -0.2666
 1535PEP     CB57702  14.462  18.905  19.927  0.3545  0.0639 -0.1292
 1535PEP     CB57703  14.211  18.561  20.121 -0.2083 -0.4074  0.2149
 1535PEP     CB57704  14.310  18.110  20.214  0.1295  0.2812 -0.0767
 1535PEP     CB57705  14.424  17.693  20.417 -0.0394  0.0546 -0.0599
 1535PEP     CB57706  14.091  17.434  20.594 -0.2504  0.2527 -0.1581
 1535PEP     CB57707  13.618  17.574  20.676  0.5075  0.1418 -0.1497
 1535PEP     CB57708  13.220  17.344  20.675  0.0015  0.0346 -0.3254
 1535PEP     CB57709  13.164  16.895  20.534 -0.1992 -0.4573 -0.1969
 1535PEP     CB57710  13.484  16.558  20.447  0.0955 -0.1336 -0.0756
 1535PEP     CB57711  13.634  16.252  20.824  0.2816  0.1469 -0.4743
 1535PEP     CB57712  13.463  16.515  21.207 -0.0398  0.3099  0.0455
 1535PEP     CB57713  13.563  16.983  21.434  0.4274  0.2755  0.2971
 1535PEP     CB57714  13.884  17.235  21.491  0.1342  0.2839  0.2391
 1535PEP     CB57715  14.251  17.300  21.144  0.1541 -0.2803  0.0732
 1535PEP     CB57716  14.511  17.058  20.869 -0.3351 -0.1393 -0.1856
 1535PEP     CB57717  14.898  17.108  20.538  0.0145 -0.1709  0.2751
 1535PEP     CB57718  15.041  17.461  20.394 -0.3272 -0.1564 -0.4512
 1535PEP     CB57719  14.886  17.909  20.541 -0.1083 -0.0001 -0.2367
 1535PEP     CB57720  14.568  18.208  20.668  0.0208  0.0021  0.1884
 1536PEP     CB57721   2.052   5.165  11.777  0.1780 -0.2274  0.0923
 1536PEP     CB57722   1.662   4.884  11.643 -0.0839  0.2192  0.0310
 1536PEP     CB57723   1.476   4.732  11.256 -0.0774 -0.0661 -0.3537
 1536PEP     CB57724   1.262   4.432  10.999 -0.2929  0.1189  0.1371
 1536PEP     CB57725   0.841   4.219  11.155 -0.1805  0.1057 -0.0242
 1536PEP     CB57726   0.784   4.005  11.504 -0.4145 -0.1589 -0.1257
 1536PEP     CB57727   0.928   4.153  11.879  0.1876 -0.3218 -0.1236
 1536PEP     CB57728   1.070   4.631  11.985 -0.0399  0.2523  0.0377
 1536PEP     CB57729   1.187   5.007  11.724  0.2599  0.0545 -0.1942
 1536PEP     CB57730   1.356   5.402  11.658  0.0087  0.6357  0.3320
 1536PEP     CB57731   1.731   5.679  11.669 -0.1258  0.0390 -0.2285
 1536PEP     CB57732   2.166   5.659  11.697  0.1554 -0.2036 -0.2063
 1536PEP     CB57733   2.599   5.666  11.492  0.3340  0.1390  0.0993
 1536PEP     CB57734   3.082   5.676  11.413  0.0610  0.2932 -0.2046
 1536PEP     CB57735   3.396   5.567  11.207 -0.0104 -0.2535 -0.0716
 1536PEP     CB57736   3.712   5.704  10.934 -0.1600  0.1299 -0.3600
 1536PEP     CB57737   4.009   6.036  10.866 -0.0781  0.3560  0.3715
 1536PEP     CB57738   4.368   6.291  10.962  0.3211 -0.0921 -0.0148
 1536PEP     CB57739   4.760   6.399  10.808  0.1526  0.4456  0.2476
 1536PEP     CB57740   5.144   6.365  10.602  0.0723  0.1894  0.2703
 1536PEP     CB57741   5.476   6.106  10.728 -0.1825 -0.0866 -0.2250
 1536PEP     CB57742   5.427   5.630  10.748  0.1956  0.2860  0.2143
 1536PEP     CB57743   5.199   5.383  10.588  0.3346  0.4227  0.0470
 1536PEP     CB57744   4.910   5.097  10.398  0.2376 -0.0860  0.1019
 1536PEP     CB57745   4.470   5.069  10.229 -0.1325  0.6710  0.0336
 1536PEP     CB57746   4.177   4.774  10.062 -0.2734  0.1533  0.3594
 1536PEP     CB57747   3.937   4.388   9.974  0.1845  0.2583  0.3722
 1536PEP     CB57748   3.543   4.121  10.014  0.0578  0.3799  0.4019
 1536PEP     CB57749   3.506   3.707   9.945 -0.2688 -0.3994  0.2849
 1536PEP     CB57750   3.625   3.321   9.997 -0.3897 -0.1118  0.1800
 1536PEP     CB57751   3.660   2.930  10.268 -0.0814 -0.2403  0.1005
 1536PEP     CB57752   3.685   2.898  10.701  0.0007  0.1783  0.0029
 1536PEP     CB57753   3.891   3.034  11.025 -0.0622 -0.2197 -0.1661
 1536PEP     CB57754   4.334   3.315  11.135  0.2989  0.2282  0.1614
 1536PEP     CB57755   4.669   3.544  11.228 -0.2350 -0.0967 -0.2284
 1536PEP     CB57756   5.219   3.537  11.320 -0.1390  0.0596  0.1160
 1536PEP     CB57757   5.644   3.469  11.353  0.0821 -0.1182 -0.3087
 1536PEP     CB57758   6.019   3.200  11.508 -0.0059 -0.0608  0.2191
 1536PEP     CB57759   6.126   2.783  11.442 -0.2222  0.1266  0.0152
 1536PEP     CB57760   6.265   2.504  11.198  0.1446 -0.2417  0.2343
 1537PEP     CB57761  10.216  13.380  21.298 -0.4342 -0.2366  0.1647
 1537PEP     CB57762  10.547  13.697  21.145 -0.0197  0.1009 -0.0790
 1537PEP     CB57763  10.716  14.005  20.964  0.1052  0.2000 -0.0806
 1537PEP     CB57764  10.704  14.450  21.096 -0.5383 -0.4725 -0.1323
 1537PEP     CB57765  10.548  14.650  21.429 -0.4787 -0.2490  0.1085
 1537PEP     CB57766  10.227  14.667  21.579 -0.0684  0.0081  0.3865
 1537PEP     CB57767   9.818  14.564  21.331 -0.2145 -0.1447 -0.0103
 1537PEP     CB57768   9.687  14.432  20.962  0.1810  0.2713 -0.0978
 1537PEP     CB57769   9.270  14.411  20.607  0.3873 -0.0664  0.1920
 1537PEP     CB57770   8.897  14.182  20.428  0.1757  0.0203 -0.1047
 1537PEP     CB57771   8.608  13.896  20.431  0.0015 -0.3032  0.0934
 1537PEP     CB57772   8.218  13.743  20.451  0.0049  0.0626 -0.1416
 1537PEP     CB57773   7.858  13.636  20.667 -0.2420  0.1234  0.1482
 1537PEP     CB57774   7.459  13.404  20.740  0.0243  0.0240 -0.4034
 1537PEP     CB57775   6.990  13.344  20.559 -0.1092  0.1382  0.0769
 1537PEP     CB57776   6.807  13.200  20.182 -0.1062 -0.1306  0.0559
 1537PEP     CB57777   6.701  12.768  20.088  0.0111 -0.1223 -0.2671
 1537PEP     CB57778   6.661  12.381  20.358  0.1931 -0.0520  0.2926
 1537PEP     CB57779   6.389  12.107  20.269  0.0177  0.1588  0.0384
 1537PEP     CB57780   5.981  11.813  20.126  0.2154  0.0349 -0.0575
 1537PEP     CB57781   5.895  11.490  19.998 -0.3978 -0.0018  0.1578
 1537PEP     CB57782   6.006  11.163  19.857  0.0228  0.0861 -0.0979
 1537PEP     CB57783   6.145  10.628  19.746  0.2011  0.0923  0.0709
 1537PEP     CB57784   5.933  10.225  19.686 -0.0632  0.1052 -0.1965
 1537PEP     CB57785   5.471  10.204  19.768  0.1852  0.1614 -0.3331
 1537PEP     CB57786   5.084  10.416  19.999  0.1456 -0.0795 -0.3644
 1537PEP     CB57787   4.774  10.532  20.051  0.0069  0.1414  0.4032
 1537PEP     CB57788   4.383  10.770  19.957  0.0819  0.2339 -0.1501
 1537PEP     CB57789   3.943  10.913  20.009  0.1359 -0.2457 -0.4991
 1537PEP     CB57790   3.635  11.191  20.239 -0.0154  0.3341  0.0875
 1537PEP     CB57791   3.354  11.559  20.435 -0.0615  0.2074  0.4985
 1537PEP     CB57792   3.029  11.904  20.452 -0.0562 -0.1202  0.2393
 1537PEP     CB57793   2.725  12.176  20.722 -0.1074  0.0879 -0.5563
 1537PEP     CB57794   2.452  12.170  21.140  0.3179 -0.3004 -0.2438
 1537PEP     CB57795   2.054  12.308  21.353 -0.3082 -0.0434 -0.3734
 1537PEP     CB57796   1.707  12.333  21.469 -0.0884 -0.2441 -0.1163
 1537PEP     CB57797   1.298  12.423  21.474 -0.1192 -0.1668  0.4278
 1537PEP     CB57798   0.843  12.565  21.446 -0.1126 -0.0864 -0.2900
 1537PEP     CB57799   0.424  12.664  21.656 -0.1830  0.0952  0.0682
 1537PEP     CB57800  -0.019  12.572  21.509  0.1388  0.3556 -0.0271
 1538PEP     CB57801   2.703  13.869   6.986 -0.0041 -0.0335 -0.0582
 1538PEP     CB57802   2.436  14.285   6.910  0.0477  0.3656  0.1391
 1538PEP     CB57803   2.118  14.417   6.765  0.0215 -0.0395  0.3423
 1538PEP     CB57804   1.718  14.598   6.845  0.1136 -0.0677  0.1903
 1538PEP     CB57805   1.377  14.525   7.074  0.1412 -0.2395 -0.4306
 1538PEP     CB57806   1.083  14.678   7.400  0.0269 -0.2653  0.3629
 1538PEP     CB57807   0.913  14.802   7.890  0.0843  0.0758 -0.6031
 1538PEP     CB57808   0.849  15.031   8.281 -0.1613  0.1021 -0.2056
 1538PEP     CB57809   0.657  15.317   8.585 -0.1939  0.2178  0.0890
 1538PEP     CB57810   0.377  15.534   8.903 -0.2336 -0.1975 -0.2486
 1538PEP     CB57811   0.047  15.593   9.174 -0.1155  0.5306  0.0122
 1538PEP     CB57812  -0.366  15.699   9.277  0.0707 -0.0064  0.1839
 1538PEP     CB57813  -0.607  16.018   9.372 -0.0221 -0.1850  0.2241
 1538PEP     CB57814  -0.630  16.404   9.634 -0.0021  0.2569  0.0933
 1538PEP     CB57815  -0.819  16.638  10.017 -0.1000  0.0088 -0.2096
 1538PEP     CB57816  -1.130  16.424  10.231  0.1295 -0.2367 -0.2919
 1538PEP     CB57817  -1.267  15.943  10.246 -0.0770 -0.1155  0.0072
 1538PEP     CB57818  -1.320  15.596   9.956 -0.0899  0.6226  0.1740
 1538PEP     CB57819  -1.346  15.205   9.650 -0.4700  0.0672  0.0176
 1538PEP     CB57820  -1.226  15.019   9.205  0.0826 -0.0017  0.0275
 1538PEP     CB57821  -1.040  14.969   8.769  0.1024 -0.4194 -0.3575
 1538PEP     CB57822  -1.175  15.057   8.337  0.1776  0.0152 -0.0496
 1538PEP     CB57823  -1.362  15.485   8.169 -0.3811  0.2108  0.6017
 1538PEP     CB57824  -1.139  15.848   7.948  0.4559 -0.1083  0.2960
 1538PEP     CB57825  -0.991  16.034   7.544 -0.1856 -0.1987  0.0476
 1538PEP     CB57826  -0.858  16.412   7.413  0.2411  0.2238 -0.0033
 1538PEP     CB57827  -0.529  16.715   7.448 -0.2817  0.0856  0.3090
 1538PEP     CB57828  -0.578  17.097   7.738 -0.0408  0.4493  0.6242
 1538PEP     CB57829  -0.861  17.453   7.834  0.0248 -0.0136 -0.4564
 1538PEP     CB57830  -0.995  17.620   8.282  0.0258  0.4910  0.0022
 1538PEP     CB57831  -1.318  17.651   8.553  0.0691  0.0593 -0.1937
 1538PEP     CB57832  -1.541  17.576   9.019  0.0329  0.0031  0.2882
 1538PEP     CB57833  -1.614  17.443   9.435 -0.1136 -0.0761 -0.0084
 1538PEP     CB57834  -1.357  17.329   9.882  0.0150 -0.1472 -0.1161
 1538PEP     CB57835  -0.964  17.250  10.075  0.0633  0.3425 -0.3262
 1538PEP     CB57836  -0.630  17.025   9.820  0.2249 -0.1534 -0.2121
 1538PEP     CB57837  -0.697  16.842   9.362 -0.1595 -0.0241  0.0134
 1538PEP     CB57838  -1.056  16.951   9.113 -0.1033 -0.2582  0.0423
 1538PEP     CB57839  -1.517  17.111   8.947 -0.1236 -0.2981 -0.0705
 1538PEP     CB57840  -1.908  17.157   8.632  0.2630 -0.0639  0.0128
 1539PEP     CB57841  13.355   8.735   0.136 -0.1951  0.0134  0.0003
 1539PEP     CB57842  13.653   8.926  -0.128  0.3912  0.0441  0.0554
 1539PEP     CB57843  13.993   9.241  -0.145 -0.3166 -0.0471 -0.1241
 1539PEP     CB57844  14.112   9.524  -0.044  0.5523 -0.1308  0.3932
 1539PEP     CB57845  14.329   9.684   0.343 -0.5092 -0.0434  0.2210
 1539PEP     CB57846  14.506   9.881   0.762 -0.5415  0.0332 -0.0455
 1539PEP     CB57847  14.674  10.232   0.866  0.4766  0.0873  0.0556
 1539PEP     CB57848  14.974  10.576   0.697 -0.0600 -0.5716  0.5174
 1539PEP     CB57849  15.404  10.687   0.606  0.4501  0.3108  0.0857
 1539PEP     CB57850  15.763  10.904   0.628 -0.1997 -0.3276 -0.0116
 1539PEP     CB57851  15.972  11.217   0.884 -0.1609 -0.1899 -0.0264
 1539PEP     CB57852  15.958  11.609   1.178 -0.2175  0.0200 -0.1929
 1539PEP     CB57853  16.184  11.984   1.225  0.2791 -0.0787  0.5527
 1539PEP     CB57854  16.339  12.396   1.264  0.1776  0.0793 -0.1509
 1539PEP     CB57855  16.294  12.801   1.079 -0.2113  0.2616  0.0400
 1539PEP     CB57856  16.396  13.058   0.712  0.0004 -0.1388  0.4114
 1539PEP     CB57857  16.378  13.432   0.513  0.5805  0.4878 -0.0341
 1539PEP     CB57858  16.084  13.674   0.377  0.1713  0.1586 -0.1624
 1539PEP     CB57859  15.619  13.541   0.223  0.1261 -0.3768 -0.2447
 1539PEP     CB57860  15.376  13.119   0.145 -0.0405  0.4573 -0.1395
 1539PEP     CB57861  15.389  12.644   0.140 -0.1489 -0.1786 -0.0335
 1539PEP     CB57862  15.694  12.375  -0.011 -0.1897  0.0941  0.1616
 1539PEP     CB57863  15.880  12.297  -0.407  0.1610 -0.1585 -0.3478
 1539PEP     CB57864  16.230  12.227  -0.642  0.0370 -0.0434  0.2937
 1539PEP     CB57865  16.384  11.989  -0.950 -0.1073 -0.2132  0.0427
 1539PEP     CB57866  16.275  11.763  -1.395 -0.0399  0.2337 -0.4632
 1539PEP     CB57867  16.078  11.372  -1.518  0.0435 -0.0131  0.2602
 1539PEP     CB57868  15.816  11.187  -1.833  0.0507 -0.2107 -0.2734
 1539PEP     CB57869  15.582  11.295  -2.194 -0.0235  0.1311  0.1268
 1539PEP     CB57870  15.692  11.374  -2.636 -0.2422 -0.0691  0.0417
 1539PEP     CB57871  15.613  11.703  -2.896  0.2078 -0.2233 -0.0794
 1539PEP     CB57872  15.594  12.108  -2.719 -0.3027  0.1828  0.0603
 1539PEP     CB57873  15.326  12.247  -2.379 -0.0539  0.3599 -0.0901
 1539PEP     CB57874  14.924  12.396  -2.239 -0.0921  0.0383  0.1521
 1539PEP     CB57875  14.577  12.181  -2.122 -0.2026  0.3600  0.2257
 1539PEP     CB57876  14.218  11.936  -1.968 -0.1378  0.0680 -0.3002
 1539PEP     CB57877  14.037  11.575  -1.783  0.2429  0.1052  0.3458
 1539PEP     CB57878  13.810  11.139  -1.903 -0.2466 -0.0913  0.4664
 1539PEP     CB57879  13.392  11.112  -1.806 -0.0615 -0.0901 -0.0267
 1539PEP     CB57880  13.009  11.207  -1.886 -0.3133 -0.0259 -0.0738
 1540PEP     CB57881  16.603  13.083   7.074 -0.3722  0.1481 -0.1183
 1540PEP     CB57882  16.987  13.328   7.081  0.0104 -0.2232  0.4636
 1540PEP     CB57883  17.428  13.424   6.897 -0.0002  0.1406  0.1823
 1540PEP     CB57884  17.828  13.605   6.577  0.1736 -0.3144  0.1717
 1540PEP     CB57885  18.212  13.814   6.446 -0.2406  0.0560  0.5711
 1540PEP     CB57886  18.532  14.056   6.358  0.0632 -0.0184 -0.0783
 1540PEP     CB57887  18.638  14.443   6.293 -0.0308  0.1874 -0.4668
 1540PEP     CB57888  18.987  14.712   6.106  0.2876 -0.0173 -0.1614
 1540PEP     CB57889  19.363  14.710   6.188 -0.1051  0.3852  0.1167
 1540PEP     CB57890  19.603  14.284   6.291  0.2797 -0.1437 -0.2424
 1540PEP     CB57891  20.032  14.090   6.291  0.0027  0.0182 -0.0468
 1540PEP     CB57892  20.487  14.030   6.363  0.0366 -0.0038  0.4310
 1540PEP     CB57893  20.872  13.948   6.554 -0.4933 -0.2549  0.3419
 1540PEP     CB57894  21.157  13.728   6.789  0.1303  0.4668 -0.0689
 1540PEP     CB57895  21.222  13.444   7.122  0.1549 -0.1454  0.0503
 1540PEP     CB57896  21.225  13.516   7.547 -0.2066  0.1202 -0.1324
 1540PEP     CB57897  21.003  13.832   7.733  0.4492  0.3846 -0.2376
 1540PEP     CB57898  20.608  13.977   7.636 -0.4462 -0.3459 -0.2951
 1540PEP     CB57899  20.313  13.736   7.435 -0.1404  0.0845 -0.1516
 1540PEP     CB57900  19.918  13.372   7.360 -0.1720 -0.4152 -0.2244
 1540PEP     CB57901  19.765  12.953   7.550 -0.3018  0.2350 -0.2930
 1540PEP     CB57902  19.496  12.695   7.785 -0.1130 -0.3025 -0.1389
 1540PEP     CB57903  19.137  12.524   8.035 -0.2309  0.1889  0.2609
 1540PEP     CB57904  18.705  12.703   8.149  0.0388  0.0683 -0.1846
 1540PEP     CB57905  18.236  12.888   8.151 -0.4138  0.1256 -0.4084
 1540PEP     CB57906  18.042  13.144   8.411  0.0518  0.0432  0.0306
 1540PEP     CB57907  18.129  13.144   8.856 -0.1436  0.1137 -0.0381
 1540PEP     CB57908  18.364  12.843   9.160 -0.0475  0.0658 -0.5660
 1540PEP     CB57909  18.527  12.497   9.147 -0.1264 -0.0418 -0.1118
 1540PEP     CB57910  18.937  12.361   9.117 -0.3399  0.2151 -0.0798
 1540PEP     CB57911  19.241  12.176   9.152 -0.1048  0.3985  0.2602
 1540PEP     CB57912  19.422  11.844   9.061 -0.5293 -0.4374  0.1317
 1540PEP     CB57913  19.246  11.547   8.878  0.2701  0.0712  0.1259
 1540PEP     CB57914  18.803  11.513   8.777 -0.1607  0.0610 -0.1911
 1540PEP     CB57915  18.336  11.607   8.956 -0.3374  0.4489  0.2962
 1540PEP     CB57916  17.886  11.727   8.768  0.0577  0.2056  0.3598
 1540PEP     CB57917  17.893  12.144   8.627  0.0405 -0.0207  0.2207
 1540PEP     CB57918  17.792  12.289   8.217 -0.0158 -0.0334  0.2956
 1540PEP     CB57919  17.512  12.093   7.904  0.2492  0.4032  0.2257
 1540PEP     CB57920  17.301  11.775   7.689  0.2825 -0.0653 -0.1817
 1541PEP     CB57921   8.194  17.301  16.302  0.1712  0.1920 -0.2040
 1541PEP     CB57922   7.828  17.520  16.564 -0.0208  0.0478  0.2648
 1541PEP     CB57923   7.694  17.762  16.853  0.2411 -0.0082 -0.1712
 1541PEP     CB57924   7.667  18.177  17.058  0.0762  0.2585  0.2096
 1541PEP     CB57925   7.788  18.512  17.395  0.2671  0.2249 -0.0089
 1541PEP     CB57926   7.732  18.885  17.689  0.4286  0.2014  0.2890
 1541PEP     CB57927   7.535  19.242  17.760  0.2930 -0.0812  0.2280
 1541PEP     CB57928   7.504  19.678  17.796  0.0981  0.2428  0.0645
 1541PEP     CB57929   7.443  20.052  18.012  0.1274 -0.2306 -0.4114
 1541PEP     CB57930   7.676  20.365  18.122 -0.3509  0.2082  0.0699
 1541PEP     CB57931   7.872  20.731  18.200 -0.0212 -0.3461  0.1333
 1541PEP     CB57932   7.894  21.146  17.986  0.0584  0.0684  0.0449
 1541PEP     CB57933   7.830  21.639  17.994 -0.0185  0.2773  0.0937
 1541PEP     CB57934   7.850  22.029  18.260  0.4530 -0.3370 -0.0515
 1541PEP     CB57935   7.462  22.208  18.473  0.1662  0.2274 -0.1790
 1541PEP     CB57936   7.077  22.284  18.359 -0.0837  0.0824 -0.0768
 1541PEP     CB57937   6.803  22.268  18.042 -0.2826  0.1074  0.0852
 1541PEP     CB57938   6.330  22.139  17.764  0.1623  0.3716  0.0984
 1541PEP     CB57939   5.985  22.207  17.415 -0.1442  0.1182  0.0196
 1541PEP     CB57940   5.659  22.380  17.179  0.2844 -0.0755 -0.1644
 1541PEP     CB57941   5.316  22.150  17.013  0.2256  0.0096  0.2116
 1541PEP     CB57942   4.892  21.930  17.080 -0.0867 -0.2629  0.4448
 1541PEP     CB57943   4.591  21.723  17.366  0.0972  0.0767  0.0501
 1541PEP     CB57944   4.515  21.578  17.754 -0.0669  0.5746 -0.0005
 1541PEP     CB57945   4.696  21.621  18.144 -0.2425 -0.3323  0.2874
 1541PEP     CB57946   4.676  22.070  18.443 -0.2961 -0.1289  0.1206
 1541PEP     CB57947   4.698  22.501  18.595 -0.0997 -0.0618  0.2782
 1541PEP     CB57948   4.753  22.896  18.370 -0.3325  0.1822  0.0720
 1541PEP     CB57949   4.840  23.178  18.029  0.0127  0.1851  0.2535
 1541PEP     CB57950   5.114  23.468  17.828  0.4919  0.1768  0.3663
 1541PEP     CB57951   5.614  23.339  17.907 -0.2206 -0.0393 -0.2524
 1541PEP     CB57952   5.739  22.858  18.105 -0.2559 -0.2046 -0.2235
 1541PEP     CB57953   5.334  22.463  18.068 -0.2774 -0.4335  0.0094
 1541PEP     CB57954   4.935  22.614  17.946  0.0652 -0.0698 -0.0280
 1541PEP     CB57955   4.873  22.911  17.601 -0.2468 -0.5048 -0.0818
 1541PEP     CB57956   4.940  23.178  17.309 -0.2687 -0.0555 -0.3190
 1541PEP     CB57957   4.972  23.572  17.057  0.1731  0.2748  0.1072
 1541PEP     CB57958   5.078  23.775  16.686 -0.2873  0.3709  0.1015
 1541PEP     CB57959   5.042  23.965  16.278 -0.1960 -0.5245  0.1233
 1541PEP     CB57960   4.931  24.213  15.930 -0.0833  0.0778 -0.0232
 1542PEP     CB57961  18.945   2.089   3.656 -0.1231  0.2020 -0.2962
 1542PEP     CB57962  18.663   2.025   3.977  0.0201 -0.3894  0.1594
 1542PEP     CB57963  18.265   2.080   3.818  0.1390  0.1192  0.2183
 1542PEP     CB57964  18.225   2.076   3.313  0.0149 -0.1715  0.2949
 1542PEP     CB57965  18.563   2.021   3.161 -0.0021 -0.1121  0.1171
 1542PEP     CB57966  18.870   2.313   3.203 -0.1801 -0.1332  0.0988
 1542PEP     CB57967  18.977   2.651   3.031 -0.2783  0.0015  0.2450
 1542PEP     CB57968  19.373   2.904   3.251  0.2236 -0.4082 -0.3780
 1542PEP     CB57969  19.663   2.969   3.588  0.3316 -0.1015  0.1246
 1542PEP     CB57970  19.847   2.703   3.807 -0.3577 -0.0306  0.1768
 1542PEP     CB57971  19.987   2.267   3.756  0.1621 -0.3448 -0.1017
 1542PEP     CB57972  20.363   2.191   3.480  0.1520 -0.1269  0.5016
 1542PEP     CB57973  20.464   2.332   3.082 -0.2874  0.1311  0.1801
 1542PEP     CB57974  20.498   2.698   2.831 -0.0088 -0.1908 -0.1567
 1542PEP     CB57975  20.431   3.011   3.107  0.2607 -0.2190 -0.0814
 1542PEP     CB57976  20.121   3.104   3.434  0.0924  0.1007  0.1578
 1542PEP     CB57977  19.963   3.481   3.571  0.1054 -0.3470  0.0576
 1542PEP     CB57978  20.196   3.873   3.494 -0.2960 -0.0190  0.0002
 1542PEP     CB57979  20.639   3.969   3.314 -0.1699 -0.0250 -0.1459
 1542PEP     CB57980  20.675   3.769   2.954 -0.1348 -0.0643  0.1137
 1542PEP     CB57981  20.539   3.885   2.572 -0.1768  0.1660  0.0073
 1542PEP     CB57982  20.145   4.110   2.332  0.0941 -0.1164 -0.2374
 1542PEP     CB57983  19.852   4.022   1.928  0.2783  0.3126 -0.1015
 1542PEP     CB57984  19.954   4.170   1.493 -0.1525  0.3802 -0.0698
 1542PEP     CB57985  20.416   4.141   1.374  0.0687  0.0680 -0.1340
 1542PEP     CB57986  20.650   3.802   1.488  0.2783  0.2009 -0.1166
 1542PEP     CB57987  20.513   3.424   1.725  0.2412  0.3258 -0.0772
 1542PEP     CB57988  20.521   3.140   2.054  0.2760  0.3279 -0.1510
 1542PEP     CB57989  20.390   2.726   2.128  0.0373 -0.1677  0.5587
 1542PEP     CB57990  20.249   2.281   2.146 -0.1691 -0.2924 -0.2129
 1542PEP     CB57991  19.823   2.051   2.460 -0.4673  0.1443 -0.1407
 1542PEP     CB57992  19.495   2.307   2.672  0.4936 -0.0507 -0.0974
 1542PEP     CB57993  19.616   2.593   2.950  0.3652  0.0108 -0.0220
 1542PEP     CB57994  20.009   2.871   2.893  0.1072 -0.2131  0.3326
 1542PEP     CB57995  20.191   3.029   2.422 -0.0153 -0.0808 -0.1461
 1542PEP     CB57996  20.032   3.234   2.041 -0.0242  0.1670 -0.4071
 1542PEP     CB57997  19.637   3.137   1.783 -0.0681  0.0686 -0.0333
 1542PEP     CB57998  19.209   3.081   1.534 -0.0571  0.4262  0.4454
 1542PEP     CB57999  18.917   2.878   1.271 -0.4156  0.2225 -0.2030
 1542PEP     CB58000  18.660   2.752   0.849 -0.2065  0.4280  0.4455
 1543PEP     CB58001  21.754  21.063   1.071 -0.3768  0.4183 -0.0396
 1543PEP     CB58002  22.048  21.367   1.021 -0.1839 -0.0979  0.0316
 1543PEP     CB58003  22.136  21.715   0.787 -0.3842  0.1825  0.2828
 1543PEP     CB58004  22.428  22.105   0.765 -0.1027  0.0103 -0.0093
 1543PEP     CB58005  22.846  22.203   0.645  0.5993  0.4271 -0.0617
 1543PEP     CB58006  23.153  21.882   0.703 -0.5585  0.2182  0.1934
 1543PEP     CB58007  22.927  21.545   0.693 -0.1117 -0.2306 -0.2703
 1543PEP     CB58008  22.608  21.550   0.914 -0.1537 -0.2623  0.1216
 1543PEP     CB58009  22.330  21.685   1.350 -0.1425 -0.3735 -0.2858
 1543PEP     CB58010  21.942  21.494   1.565  0.1205 -0.0445 -0.3524
 1543PEP     CB58011  21.451  21.505   1.453 -0.2313 -0.0800  0.1532
 1543PEP     CB58012  21.339  21.702   1.005  0.0819 -0.1848 -0.0125
 1543PEP     CB58013  21.638  21.750   0.673  0.1093 -0.0889 -0.0787
 1543PEP     CB58014  22.022  21.865   0.319 -0.1419  0.1096  0.0596
 1543PEP     CB58015  22.459  21.858   0.329  0.3178 -0.1285  0.2470
 1543PEP     CB58016  22.763  21.645   0.149  0.3869  0.0995 -0.4050
 1543PEP     CB58017  23.103  21.445   0.169  0.5576  0.2467 -0.2657
 1543PEP     CB58018  23.413  21.440   0.511  0.4151  0.4933 -0.0253
 1543PEP     CB58019  23.451  21.606   0.946 -0.1948 -0.3112 -0.0065
 1543PEP     CB58020  23.338  21.695   1.390  0.1510  0.0405  0.0910
 1543PEP     CB58021  23.487  21.504   1.759 -0.1922 -0.0580  0.2822
 1543PEP     CB58022  23.873  21.463   1.960 -0.2796  0.4062 -0.1851
 1543PEP     CB58023  24.320  21.821   1.982 -0.2028 -0.1052 -0.0602
 1543PEP     CB58024  24.495  22.102   2.218 -0.2227  0.2684  0.0424
 1543PEP     CB58025  24.560  22.459   2.439 -0.1710 -0.3289  0.1257
 1543PEP     CB58026  24.719  22.584   2.825  0.4730 -0.0030  0.0581
 1543PEP     CB58027  25.022  22.363   3.075 -0.0785  0.3366  0.0375
 1543PEP     CB58028  25.113  21.924   3.202 -0.2406 -0.1508 -0.0752
 1543PEP     CB58029  25.443  21.830   3.453  0.3345  0.0072 -0.3161
 1543PEP     CB58030  25.465  21.941   3.912  0.0777  0.2154  0.1780
 1543PEP     CB58031  25.162  22.108   4.155 -0.2557 -0.3980 -0.1550
 1543PEP     CB58032  24.949  22.548   4.241  0.4418  0.0258 -0.0433
 1543PEP     CB58033  25.134  22.888   4.050 -0.0993  0.2048  0.1276
 1543PEP     CB58034  25.047  23.169   3.762 -0.0979  0.2977  0.2026
 1543PEP     CB58035  25.018  23.532   3.569  0.1022  0.1369  0.0251
 1543PEP     CB58036  25.160  23.931   3.323  0.0762  0.3064  0.0128
 1543PEP     CB58037  25.210  24.328   3.099  0.0227 -0.1506  0.0669
 1543PEP     CB58038  25.265  24.730   3.090 -0.1623 -0.0016  0.3540
 1543PEP     CB58039  25.562  25.047   3.226 -0.2256  0.0663 -0.2206
 1543PEP     CB58040  25.824  25.313   3.334  0.1580  0.1108 -0.1455
 1544PEP     CB58041  13.747  12.929  19.122 -0.0285  0.4429 -0.3825
 1544PEP     CB58042  13.705  13.337  19.032 -0.2581 -0.1330  0.0489
 1544PEP     CB58043  13.899  13.720  18.993 -0.2374  0.1204  0.0394
 1544PEP     CB58044  14.243  13.973  18.926 -0.1573 -0.2771  0.2074
 1544PEP     CB58045  14.522  14.182  19.174  0.4463 -0.3488 -0.1660
 1544PEP     CB58046  14.809  14.083  19.525 -0.1316 -0.1335 -0.0230
 1544PEP     CB58047  15.023  13.895  19.781 -0.1116  0.1558  0.1829
 1544PEP     CB58048  15.044  13.627  20.020  0.2097 -0.4377 -0.2246
 1544PEP     CB58049  14.788  13.301  20.208 -0.0629  0.0114  0.0945
 1544PEP     CB58050  14.516  12.956  20.355  0.3778 -0.0183 -0.1750
 1544PEP     CB58051  14.235  12.746  20.623  0.2451  0.3026 -0.1661
 1544PEP     CB58052  14.197  12.384  20.917  0.1207  0.1919 -0.3298
 1544PEP     CB58053  14.380  11.959  20.933  0.2892  0.1614  0.4199
 1544PEP     CB58054  14.748  11.729  20.958 -0.2672  0.2176 -0.1383
 1544PEP     CB58055  14.960  11.515  21.293 -0.0779  0.1085 -0.2409
 1544PEP     CB58056  15.226  11.596  21.634  0.0375  0.1076 -0.0899
 1544PEP     CB58057  15.580  11.346  21.819 -0.1229  0.1340  0.4429
 1544PEP     CB58058  15.813  10.932  21.990  0.2744  0.0863  0.0623
 1544PEP     CB58059  15.931  10.655  22.281 -0.5329 -0.2197  0.2032
 1544PEP     CB58060  16.262  10.602  22.513 -0.2393 -0.5661 -0.0916
 1544PEP     CB58061  16.496  10.980  22.554 -0.0763  0.0368 -0.1201
 1544PEP     CB58062  16.537  11.422  22.333  0.1152 -0.3707 -0.2075
 1544PEP     CB58063  16.669  11.745  22.096 -0.3364  0.2701  0.1859
 1544PEP     CB58064  16.497  11.887  21.674  0.4046 -0.5883  0.1414
 1544PEP     CB58065  16.421  11.579  21.328 -0.0800  0.1340 -0.1011
 1544PEP     CB58066  16.448  11.121  21.344  0.4476  0.0435  0.1956
 1544PEP     CB58067  16.471  10.919  21.737 -0.3425 -0.1005  0.1731
 1544PEP     CB58068  16.339  11.059  22.049  0.4216 -0.1239  0.1721
 1544PEP     CB58069  16.055  11.239  22.365 -0.2029  0.0174 -0.0999
 1544PEP     CB58070  15.615  11.333  22.355 -0.1693  0.0280  0.2003
 1544PEP     CB58071  15.262  11.106  22.391 -0.0549 -0.0489  0.1062
 1544PEP     CB58072  15.058  10.745  22.225  0.1756  0.1074 -0.3441
 1544PEP     CB58073  15.023  10.471  21.880 -0.2361 -0.2383  0.1654
 1544PEP     CB58074  14.964  10.406  21.412 -0.5237 -0.0491 -0.1104
 1544PEP     CB58075  14.735  10.318  20.992 -0.1147  0.4734 -0.2105
 1544PEP     CB58076  14.271  10.209  20.984 -0.4428  0.0047  0.0853
 1544PEP     CB58077  13.915   9.931  21.174  0.0001 -0.0208  0.0184
 1544PEP     CB58078  13.489   9.768  21.253  0.0828  0.0109 -0.1266
 1544PEP     CB58079  13.201   9.646  21.023 -0.2960 -0.0202  0.2645
 1544PEP     CB58080  12.816   9.799  20.983  0.1396 -0.2539 -0.2231
 1545PEP     CB58081  21.760  19.457  21.963  0.2639 -0.1761 -0.1826
 1545PEP     CB58082  22.017  19.529  22.277 -0.3910 -0.0171  0.4163
 1545PEP     CB58083  22.045  19.607  22.701 -0.0960 -0.0023  0.0553
 1545PEP     CB58084  22.312  19.650  23.067 -0.2057 -0.2029 -0.3665
 1545PEP     CB58085  22.557  19.417  23.274  0.0478  0.2921 -0.2574
 1545PEP     CB58086  22.489  19.089  23.438  0.1730 -0.1104 -0.0404
 1545PEP     CB58087  22.255  18.737  23.347  0.0852  0.0177 -0.1362
 1545PEP     CB58088  22.007  18.429  23.218 -0.3433  0.2479 -0.2586
 1545PEP     CB58089  21.964  18.017  23.094  0.3910  0.3720  0.2965
 1545PEP     CB58090  21.599  17.731  23.134 -0.0650 -0.0018  0.0100
 1545PEP     CB58091  21.174  17.461  23.253 -0.5646  0.1073  0.2523
 1545PEP     CB58092  20.872  17.319  23.291  0.2024  0.1348 -0.2933
 1545PEP     CB58093  20.523  17.225  23.206  0.0230  0.0023 -0.2069
 1545PEP     CB58094  20.272  17.149  22.993  0.0832 -0.2532  0.1542
 1545PEP     CB58095  19.936  16.893  23.101 -0.1853 -0.0204 -0.2063
 1545PEP     CB58096  19.830  16.458  22.994  0.0882 -0.4440 -0.1830
 1545PEP     CB58097  19.875  16.074  22.870 -0.3168 -0.0722  0.3449
 1545PEP     CB58098  19.632  15.791  22.578  0.1374  0.2021  0.2306
 1545PEP     CB58099  19.274  15.570  22.550 -0.1780  0.1563 -0.3520
 1545PEP     CB58100  18.871  15.479  22.365  0.0965  0.0437  0.4134
 1545PEP     CB58101  18.535  15.138  22.278  0.1728 -0.3417  0.1025
 1545PEP     CB58102  18.117  14.907  22.263 -0.3423  0.1079  0.0285
 1545PEP     CB58103  17.694  14.766  22.442 -0.4745  0.2705 -0.3264
 1545PEP     CB58104  17.274  14.821  22.316  0.4046 -0.1937 -0.3416
 1545PEP     CB58105  16.756  14.819  22.422 -0.0389  0.0250 -0.2780
 1545PEP     CB58106  16.352  14.662  22.571 -0.1788 -0.2804  0.0754
 1545PEP     CB58107  16.069  14.319  22.641  0.0794  0.3569 -0.2399
 1545PEP     CB58108  15.748  14.016  22.464  0.3311  0.0980  0.1127
 1545PEP     CB58109  15.373  13.902  22.450  0.0268  0.1418 -0.1066
 1545PEP     CB58110  14.903  13.818  22.416 -0.0972 -0.1121 -0.0617
 1545PEP     CB58111  14.477  13.798  22.285 -0.3411  0.2690  0.1263
 1545PEP     CB58112  14.163  13.634  21.995  0.2194  0.0048  0.2510
 1545PEP     CB58113  13.820  13.370  22.041  0.2745  0.1523 -0.1246
 1545PEP     CB58114  13.604  13.096  22.364 -0.1891 -0.0201 -0.1316
 1545PEP     CB58115  13.482  13.209  22.795  0.1138 -0.1896 -0.5279
 1545PEP     CB58116  13.528  13.583  22.996 -0.5838 -0.0803 -0.2102
 1545PEP     CB58117  13.344  13.994  22.979 -0.1580  0.1515 -0.1575
 1545PEP     CB58118  12.829  14.121  22.882  0.0590 -0.2895  0.0467
 1545PEP     CB58119  12.509  14.381  22.935  0.0958  0.3215  0.2012
 1545PEP     CB58120  12.121  14.621  23.082 -0.1666  0.3333 -0.0744
 1546PEP     CB58121  11.249  14.867   4.771  0.4065  0.1550  0.1938
 1546PEP     CB58122  11.421  14.442   4.572  0.1318  0.0837  0.3366
 1546PEP     CB58123  11.419  13.948   4.498 -0.3233  0.1028 -0.4101
 1546PEP     CB58124  11.093  13.600   4.740  0.0126  0.0721  0.1429
 1546PEP     CB58125  10.914  13.703   5.165  0.2944  0.1369  0.4482
 1546PEP     CB58126  11.087  13.789   5.469 -0.4537 -0.1920  0.1825
 1546PEP     CB58127  11.373  13.741   5.797  0.6237  0.0493  0.1076
 1546PEP     CB58128  11.523  13.569   6.119  0.2052  0.2003  0.2340
 1546PEP     CB58129  11.740  13.294   6.382 -0.4261 -0.0774 -0.3819
 1546PEP     CB58130  11.935  13.010   6.625 -0.2019 -0.0835  0.0402
 1546PEP     CB58131  12.124  12.998   6.957 -0.2592 -0.4770 -0.5073
 1546PEP     CB58132  12.032  13.215   7.342 -0.1809  0.3662 -0.1329
 1546PEP     CB58133  11.924  13.665   7.386  0.2447 -0.0834 -0.4213
 1546PEP     CB58134  11.849  14.029   7.341  0.2767 -0.1108 -0.4821
 1546PEP     CB58135  11.715  14.479   7.173  0.2184 -0.4233 -0.1278
 1546PEP     CB58136  11.966  14.843   7.142 -0.0785  0.0130  0.4836
 1546PEP     CB58137  12.303  14.982   7.456 -0.0850 -0.0775 -0.1479
 1546PEP     CB58138  12.782  15.034   7.567  0.0358 -0.1070  0.0148
 1546PEP     CB58139  13.122  15.044   7.884 -0.0779  0.1037  0.2488
 1546PEP     CB58140  13.424  15.199   8.152 -0.0963 -0.4283 -0.1495
 1546PEP     CB58141  13.705  15.441   8.166  0.0692 -0.1540  0.5139
 1546PEP     CB58142  13.898  15.817   8.089  0.4177  0.3267  0.0116
 1546PEP     CB58143  14.237  16.018   7.874 -0.0107 -0.0767 -0.0518
 1546PEP     CB58144  14.667  15.837   7.853 -0.0952  0.0449  0.2734
 1546PEP     CB58145  14.904  15.610   7.962  0.3585 -0.2984  0.3489
 1546PEP     CB58146  15.233  15.527   8.014 -0.2282  0.4268  0.0535
 1546PEP     CB58147  15.548  15.258   8.073  0.1986 -0.0850  0.2075
 1546PEP     CB58148  15.969  15.107   8.080  0.0295  0.1753 -0.2842
 1546PEP     CB58149  16.336  15.330   8.162  0.3492 -0.2091  0.1411
 1546PEP     CB58150  16.719  15.274   8.378 -0.1433 -0.1720  0.1393
 1546PEP     CB58151  17.040  15.058   8.600 -0.2182 -0.1367 -0.4056
 1546PEP     CB58152  17.371  14.797   8.598 -0.0917  0.3473  0.0493
 1546PEP     CB58153  17.695  14.549   8.858  0.0459 -0.0902 -0.0463
 1546PEP     CB58154  18.119  14.587   8.991  0.1915 -0.0765  0.0372
 1546PEP     CB58155  18.562  14.700   8.745 -0.1684 -0.3334  0.0913
 1546PEP     CB58156  18.533  15.062   8.518 -0.0402  0.2455  0.2341
 1546PEP     CB58157  18.200  15.359   8.457 -0.0270  0.1443  0.2316
 1546PEP     CB58158  17.780  15.643   8.395 -0.1114 -0.1799 -0.2948
 1546PEP     CB58159  17.403  15.741   8.122  0.0015  0.0483  0.1975
 1546PEP     CB58160  17.082  15.499   7.849 -0.0004 -0.0914 -0.0759
 1547PEP     CB58161   8.202  15.696  19.126 -0.0265  0.1242  0.0378
 1547PEP     CB58162   8.058  15.587  18.694  0.0769  0.4880 -0.2322
 1547PEP     CB58163   8.101  15.847  18.333 -0.1382  0.0423 -0.3177
 1547PEP     CB58164   7.943  16.159  18.150  0.1686 -0.0577  0.1477
 1547PEP     CB58165   7.678  16.362  18.418  0.4369 -0.2438  0.0891
 1547PEP     CB58166   7.939  16.678  18.731  0.1649  0.1313 -0.1924
 1547PEP     CB58167   7.953  16.772  19.119 -0.3029  0.0834 -0.2014
 1547PEP     CB58168   8.112  16.477  19.437 -0.0900 -0.4616 -0.2685
 1547PEP     CB58169   8.253  16.047  19.452 -0.1408  0.2905  0.0562
 1547PEP     CB58170   8.013  15.655  19.592 -0.0656 -0.3322  0.2321
 1547PEP     CB58171   7.612  15.745  19.835 -0.2266 -0.0969 -0.2247
 1547PEP     CB58172   7.420  16.224  19.961  0.1131 -0.0550 -0.0512
 1547PEP     CB58173   7.510  16.590  20.167 -0.2139 -0.1883  0.1163
 1547PEP     CB58174   7.579  16.725  20.531  0.1063 -0.5145  0.1033
 1547PEP     CB58175   7.617  17.032  20.822  0.1261 -0.3586 -0.1998
 1547PEP     CB58176   7.793  17.257  21.185 -0.1205 -0.0263 -0.1200
 1547PEP     CB58177   7.953  17.533  21.353 -0.1404 -0.0288  0.1178
 1547PEP     CB58178   7.989  17.971  21.211  0.2002 -0.5080 -0.0124
 1547PEP     CB58179   7.980  18.262  20.815 -0.4255  0.1303 -0.1638
 1547PEP     CB58180   8.083  18.238  20.404 -0.0101  0.3108  0.0694
 1547PEP     CB58181   8.269  18.289  19.899 -0.0117  0.7072 -0.0884
 1547PEP     CB58182   8.161  18.462  19.488 -0.2683  0.2608 -0.2791
 1547PEP     CB58183   8.071  18.425  19.117 -0.0065  0.0971 -0.5625
 1547PEP     CB58184   8.038  18.528  18.756 -0.0526  0.3456 -0.0080
 1547PEP     CB58185   8.319  18.623  18.434  0.1398 -0.1288  0.6107
 1547PEP     CB58186   8.670  18.433  18.168  0.0397  0.1439 -0.1542
 1547PEP     CB58187   8.881  18.529  17.830  0.1553  0.1961 -0.1653
 1547PEP     CB58188   8.958  18.573  17.355  0.4532  0.2746  0.3658
 1547PEP     CB58189   9.076  18.774  16.915  0.1221  0.0648 -0.3722
 1547PEP     CB58190   9.190  18.834  16.532  0.0650  0.1194 -0.2186
 1547PEP     CB58191   9.188  18.553  16.160 -0.1242 -0.4572  0.1661
 1547PEP     CB58192   9.506  18.390  15.876 -0.0360  0.2140 -0.2488
 1547PEP     CB58193   9.980  18.436  15.913  0.1541  0.2462 -0.0915
 1547PEP     CB58194  10.333  18.243  16.090 -0.3601  0.1125  0.0968
 1547PEP     CB58195  10.675  18.126  16.220 -0.1082 -0.2752  0.2432
 1547PEP     CB58196  11.099  18.193  16.135 -0.1324  0.0907 -0.4084
 1547PEP     CB58197  11.254  18.511  15.891  0.2317  0.1018 -0.1120
 1547PEP     CB58198  11.393  18.895  15.822 -0.0167  0.4368 -0.0990
 1547PEP     CB58199  11.434  19.370  15.574  0.1701  0.3149  0.2558
 1547PEP     CB58200  11.496  19.797  15.450  0.1472  0.1140 -0.2846
 1548PEP     CB58201  19.226   3.242  11.112 -0.2799  0.0872  0.1891
 1548PEP     CB58202  18.905   3.454  11.286  0.1117 -0.1292  0.2682
 1548PEP     CB58203  18.589   3.291  11.628 -0.2134 -0.2790 -0.0943
 1548PEP     CB58204  18.253   2.920  11.597 -0.1088  0.1950  0.3328
 1548PEP     CB58205  18.139   2.482  11.434  0.0685 -0.0768  0.0624
 1548PEP     CB58206  17.979   2.178  11.162  0.1178  0.2071 -0.1258
 1548PEP     CB58207  17.950   1.856  10.856  0.3269  0.2307  0.1124
 1548PEP     CB58208  18.058   1.497  10.523  0.0080 -0.3324  0.2390
 1548PEP     CB58209  18.210   1.124  10.481 -0.0958 -0.0343  0.0812
 1548PEP     CB58210  18.529   0.885  10.554 -0.0043  0.2339  0.1252
 1548PEP     CB58211  18.951   0.740  10.686  0.3392 -0.1223 -0.1249
 1548PEP     CB58212  19.224   0.441  10.528 -0.2310 -0.0222 -0.1040
 1548PEP     CB58213  19.649   0.417  10.334 -0.0571  0.1917  0.4535
 1548PEP     CB58214  19.843   0.620  10.021  0.1369 -0.0202  0.4164
 1548PEP     CB58215  19.902   0.979  10.146 -0.1911  0.1519  0.1556
 1548PEP     CB58216  19.832   1.175  10.486  0.1353 -0.1514  0.1351
 1548PEP     CB58217  19.825   1.307  10.846 -0.1291 -0.0787  0.0071
 1548PEP     CB58218  19.500   1.553  11.067  0.0283  0.0251  0.0724
 1548PEP     CB58219  19.196   1.365  11.419 -0.2361 -0.2171 -0.0154
 1548PEP     CB58220  18.998   1.157  11.805 -0.5268  0.1576  0.3121
 1548PEP     CB58221  18.950   1.010  12.133  0.0292  0.0686  0.1379
 1548PEP     CB58222  19.141   0.891  12.529 -0.3038  0.2310  0.2213
 1548PEP     CB58223  19.043   0.540  12.708 -0.1170  0.1340 -0.0195
 1548PEP     CB58224  19.108   0.116  12.733  0.2712  0.1811 -0.2037
 1548PEP     CB58225  18.874  -0.211  12.591  0.1830  0.0065  0.1011
 1548PEP     CB58226  18.543  -0.513  12.424 -0.1736  0.0056 -0.0989
 1548PEP     CB58227  18.240  -0.906  12.415 -0.0467  0.2761 -0.1849
 1548PEP     CB58228  17.874  -1.168  12.658 -0.2493 -0.4084 -0.0563
 1548PEP     CB58229  17.439  -0.982  12.858  0.0171 -0.0821  0.1134
 1548PEP     CB58230  17.320  -0.457  13.048 -0.1545  0.0664 -0.2410
 1548PEP     CB58231  17.260  -0.104  13.349  0.3331  0.0560 -0.0451
 1548PEP     CB58232  17.061   0.270  13.545 -0.2085 -0.1872 -0.1460
 1548PEP     CB58233  17.135   0.746  13.446 -0.0206 -0.1277 -0.0404
 1548PEP     CB58234  17.510   1.029  13.399 -0.0095  0.0211  0.1002
 1548PEP     CB58235  17.887   1.190  13.323 -0.2320 -0.0362 -0.0400
 1548PEP     CB58236  18.245   1.131  13.503  0.0871  0.0433  0.0193
 1548PEP     CB58237  18.200   0.939  14.006  0.2674 -0.0704 -0.7782
 1548PEP     CB58238  17.953   0.627  14.176  0.0658  0.0239  0.2932
 1548PEP     CB58239  17.724   0.275  13.983  0.2482  0.2861  0.4020
 1548PEP     CB58240  17.764  -0.243  13.844 -0.4146 -0.2058  0.2578
 1549PEP     CB58241  18.428  17.131  18.994  0.0127 -0.1382 -0.1754
 1549PEP     CB58242  18.078  16.825  19.046  0.0446 -0.1156 -0.3900
 1549PEP     CB58243  17.776  16.713  19.354  0.1119 -0.0427  0.0856
 1549PEP     CB58244  17.449  16.794  19.684  0.2006  0.0464 -0.2132
 1549PEP     CB58245  17.160  16.946  19.950 -0.4085  0.0155 -0.1320
 1549PEP     CB58246  17.002  17.034  20.294 -0.0822  0.3752 -0.1559
 1549PEP     CB58247  16.613  17.092  20.445 -0.1220 -0.1358 -0.2268
 1549PEP     CB58248  16.181  17.076  20.506 -0.0134  0.1081 -0.0252
 1549PEP     CB58249  15.852  16.722  20.517 -0.0429 -0.0251  0.1449
 1549PEP     CB58250  15.676  16.320  20.266  0.0645 -0.2582 -0.1034
 1549PEP     CB58251  15.330  16.139  20.030  0.2157 -0.1465  0.1838
 1549PEP     CB58252  14.997  16.295  19.756 -0.1108  0.1465  0.0446
 1549PEP     CB58253  14.665  16.533  19.646  0.2152  0.2755 -0.1836
 1549PEP     CB58254  14.373  16.411  19.338 -0.0755  0.0872  0.0171
 1549PEP     CB58255  13.968  16.131  19.190  0.0059  0.1693 -0.0847
 1549PEP     CB58256  13.619  15.967  19.069  0.1297  0.0565  0.0832
 1549PEP     CB58257  13.493  15.743  18.729 -0.2065 -0.0553 -0.0661
 1549PEP     CB58258  13.087  15.629  18.405 -0.0108 -0.1120  0.1113
 1549PEP     CB58259  12.656  15.583  18.301  0.0835  0.1235 -0.1288
 1549PEP     CB58260  12.296  15.694  18.076  0.1388  0.7365  0.1561
 1549PEP     CB58261  11.899  15.697  17.979  0.4488  0.0729  0.0440
 1549PEP     CB58262  11.498  15.635  18.152  0.4045 -0.0414 -0.4361
 1549PEP     CB58263  11.265  15.601  18.590  0.1320  0.1873 -0.0368
 1549PEP     CB58264  11.167  15.517  19.061  0.2066 -0.0423  0.2686
 1549PEP     CB58265  11.241  15.697  19.525  0.2398  0.5023  0.3354
 1549PEP     CB58266  11.060  16.030  19.739  0.1609  0.2070  0.0348
 1549PEP     CB58267  10.843  16.199  20.043 -0.2066 -0.0151  0.1239
 1549PEP     CB58268  10.698  16.508  20.328 -0.0029  0.0668  0.3801
 1549PEP     CB58269  10.941  16.832  20.518 -0.1613  0.1766 -0.1875
 1549PEP     CB58270  11.103  17.103  20.819 -0.1036 -0.3912 -0.1863
 1549PEP     CB58271  11.520  17.219  20.900  0.1528  0.0081 -0.4144
 1549PEP     CB58272  11.771  17.551  20.791  0.0515 -0.0938 -0.1368
 1549PEP     CB58273  11.676  18.040  20.930 -0.1717  0.1274  0.6735
 1549PEP     CB58274  11.235  18.285  20.951 -0.0294 -0.6340  0.0546
 1549PEP     CB58275  10.930  18.220  21.423 -0.2553 -0.0687  0.0163
 1549PEP     CB58276  11.063  18.065  21.813 -0.0130 -0.0395 -0.3084
 1549PEP     CB58277  11.506  17.963  22.063 -0.1906  0.0477 -0.2362
 1549PEP     CB58278  11.789  17.632  21.839  0.1739 -0.3673  0.2664
 1549PEP     CB58279  11.614  17.304  21.601 -0.2173  0.0858  0.1435
 1549PEP     CB58280  11.180  17.189  21.409 -0.6095 -0.3367  0.0053
 1550PEP     CB58281  18.216  11.352  10.667  0.1378 -0.0212  0.3538
 1550PEP     CB58282  18.218  10.911  10.583  0.0441  0.0919  0.1569
 1550PEP     CB58283  18.558  10.582  10.653 -0.1170 -0.2907 -0.3786
 1550PEP     CB58284  18.959  10.548  10.780 -0.1804  0.2698  0.3579
 1550PEP     CB58285  19.223  10.798  11.123  0.0924  0.0121 -0.0886
 1550PEP     CB58286  19.044  11.017  11.558 -0.4610  0.2789  0.2053
 1550PEP     CB58287  18.689  11.088  11.816 -0.0835  0.0098  0.0749
 1550PEP     CB58288  18.446  11.282  12.024 -0.2586 -0.1973 -0.0462
 1550PEP     CB58289  18.148  11.557  12.126 -0.2046  0.3533  0.0485
 1550PEP     CB58290  17.824  11.936  12.285 -0.0450 -0.3971 -0.2999
 1550PEP     CB58291  17.872  12.325  12.369 -0.1728 -0.0934 -0.0875
 1550PEP     CB58292  18.136  12.733  12.315  0.0766  0.7553  0.1025
 1550PEP     CB58293  18.079  13.043  11.995  0.2762  0.2456 -0.0717
 1550PEP     CB58294  17.669  13.218  11.970 -0.1304  0.2317 -0.0224
 1550PEP     CB58295  17.337  13.002  11.954  0.5256 -0.0717  0.0199
 1550PEP     CB58296  16.989  12.992  12.101 -0.0073 -0.0401  0.1534
 1550PEP     CB58297  16.773  13.137  12.503 -0.0997 -0.0473  0.0139
 1550PEP     CB58298  16.493  12.857  12.692 -0.2051  0.2182 -0.1713
 1550PEP     CB58299  16.240  12.582  12.548  0.1981 -0.2101 -0.0426
 1550PEP     CB58300  16.267  12.105  12.539  0.1717 -0.0220  0.0376
 1550PEP     CB58301  16.593  11.855  12.827  0.1498 -0.0500  0.0707
 1550PEP     CB58302  17.017  11.999  12.914 -0.2128 -0.1046 -0.0148
 1550PEP     CB58303  17.379  12.024  12.756  0.0854  0.2284 -0.0250
 1550PEP     CB58304  17.890  12.081  12.897 -0.2537  0.0277 -0.0100
 1550PEP     CB58305  18.147  12.158  13.318  0.4022  0.2208  0.2519
 1550PEP     CB58306  17.886  12.130  13.723 -0.1665  0.3848 -0.2745
 1550PEP     CB58307  17.540  12.013  13.810  0.0644  0.2200  0.2614
 1550PEP     CB58308  17.146  11.653  13.789 -0.2725  0.0127  0.1607
 1550PEP     CB58309  16.754  11.409  13.701 -0.2000 -0.0694  0.3966
 1550PEP     CB58310  16.700  10.933  13.636 -0.0483  0.0785 -0.0157
 1550PEP     CB58311  16.914  10.653  13.487 -0.4795  0.2215 -0.2685
 1550PEP     CB58312  17.187  10.647  13.036 -0.0477 -0.0993 -0.1702
 1550PEP     CB58313  17.217  10.690  12.654  0.1335 -0.0225 -0.4005
 1550PEP     CB58314  17.499  10.553  12.386 -0.0306 -0.0520  0.1658
 1550PEP     CB58315  17.932  10.445  12.366 -0.0625 -0.1891  0.0178
 1550PEP     CB58316  18.172  10.114  12.531 -0.3465 -0.2588  0.1996
 1550PEP     CB58317  18.145   9.672  12.645  0.0916  0.0396  0.0387
 1550PEP     CB58318  18.360   9.377  12.956 -0.1016  0.0855  0.0740
 1550PEP     CB58319  18.435   9.264  13.356  0.0294 -0.4944  0.0860
 1550PEP     CB58320  18.671   9.322  13.580 -0.0472  0.6078 -0.2650
 1551PEP     CB58321  20.586   7.761  12.729 -0.0965  0.1568 -0.0531
 1551PEP     CB58322  20.868   7.589  12.937 -0.0472 -0.3050 -0.0069
 1551PEP     CB58323  21.144   7.217  12.940 -0.2969 -0.2862  0.0650
 1551PEP     CB58324  21.280   6.831  12.962 -0.1887 -0.0984 -0.3649
 1551PEP     CB58325  21.178   6.456  13.007  0.2305 -0.1154  0.2927
 1551PEP     CB58326  21.352   6.092  13.260  0.2315  0.0774  0.0372
 1551PEP     CB58327  21.512   5.872  13.592 -0.1761  0.1074  0.0524
 1551PEP     CB58328  21.695   5.567  13.832 -0.3918 -0.3014 -0.0407
 1551PEP     CB58329  22.157   5.460  13.958  0.3605 -0.4974  0.3190
 1551PEP     CB58330  22.602   5.552  14.083  0.2950 -0.2484 -0.2694
 1551PEP     CB58331  22.802   5.431  14.479  0.0176 -0.2498 -0.1025
 1551PEP     CB58332  22.541   5.276  14.789  0.2572  0.0061  0.2769
 1551PEP     CB58333  22.252   5.125  15.092  0.2147 -0.3205  0.1078
 1551PEP     CB58334  21.841   4.974  15.072  0.0515 -0.5099 -0.2425
 1551PEP     CB58335  21.602   5.016  14.685 -0.4442 -0.0294  0.2009
 1551PEP     CB58336  21.128   5.106  14.701  0.1010  0.1843 -0.2559
 1551PEP     CB58337  20.945   4.890  15.014  0.1592  0.3246 -0.2549
 1551PEP     CB58338  21.143   4.914  15.353  0.2192 -0.3122  0.0395
 1551PEP     CB58339  21.558   5.157  15.493  0.1005  0.0610 -0.2061
 1551PEP     CB58340  21.692   5.570  15.655  0.0909 -0.4131 -0.3679
 1551PEP     CB58341  21.729   5.960  15.354  0.0170 -0.1615  0.1760
 1551PEP     CB58342  21.857   6.048  14.931 -0.2510 -0.1329 -0.3382
 1551PEP     CB58343  21.938   5.848  14.546 -0.0480  0.1206  0.3017
 1551PEP     CB58344  22.064   5.343  14.499 -0.1950  0.1100  0.1757
 1551PEP     CB58345  22.125   4.847  14.607 -0.1825 -0.0879  0.0205
 1551PEP     CB58346  22.084   4.477  14.329 -0.0619  0.1819 -0.0897
 1551PEP     CB58347  21.959   3.988  14.250  0.2360  0.5895  0.2074
 1551PEP     CB58348  22.054   3.534  14.353  0.4818 -0.0912  0.0260
 1551PEP     CB58349  22.183   3.494  14.802 -0.0329 -0.1567  0.2114
 1551PEP     CB58350  22.171   3.755  15.126  0.3350  0.0388  0.0226
 1551PEP     CB58351  22.171   4.208  15.228  0.0030  0.2152 -0.0772
 1551PEP     CB58352  22.346   4.589  15.105  0.3433 -0.0825  0.1178
 1551PEP     CB58353  22.628   4.740  14.821 -0.0238 -0.0590 -0.1355
 1551PEP     CB58354  22.939   4.981  14.596 -0.2189  0.1512 -0.2368
 1551PEP     CB58355  23.364   4.937  14.319 -0.2622  0.2785  0.2520
 1551PEP     CB58356  23.721   4.900  14.094 -0.0482  0.2917  0.1550
 1551PEP     CB58357  23.932   5.042  13.810  0.2941  0.1816 -0.2266
 1551PEP     CB58358  24.092   5.359  13.498  0.0551  0.2282  0.0242
 1551PEP     CB58359  24.165   5.531  13.092  0.6585 -0.1599 -0.2596
 1551PEP     CB58360  24.349   5.417  12.718  0.0213  0.0547  0.0937
 1552PEP     CB58361  19.684   0.092  17.510 -0.0685  0.0289  0.1888
 1552PEP     CB58362  19.320   0.017  17.363 -0.1138  0.0923 -0.1411
 1552PEP     CB58363  19.194  -0.149  17.025 -0.1008 -0.1692  0.0523
 1552PEP     CB58364  19.411  -0.493  16.690  0.2454 -0.0905  0.3842
 1552PEP     CB58365  19.750  -0.757  16.793 -0.2739 -0.0698 -0.1915
 1552PEP     CB58366  19.883  -0.908  17.194  0.2944 -0.2331  0.1125
 1552PEP     CB58367  20.145  -0.668  17.453 -0.3500  0.2756 -0.1042
 1552PEP     CB58368  20.244  -0.327  17.387  0.4085  0.1258 -0.2392
 1552PEP     CB58369  20.213   0.159  17.336 -0.2737 -0.0628 -0.3462
 1552PEP     CB58370  20.110   0.530  17.493 -0.0527 -0.1138 -0.1955
 1552PEP     CB58371  19.683   0.618  17.773  0.1055 -0.0839 -0.0206
 1552PEP     CB58372  19.406   0.747  18.023  0.1357 -0.0358 -0.1415
 1552PEP     CB58373  18.971   0.734  17.961 -0.3256 -0.1340 -0.2015
 1552PEP     CB58374  18.612   0.495  17.858  0.3363 -0.1997 -0.0228
 1552PEP     CB58375  18.262   0.271  18.033  0.2713  0.1454  0.0352
 1552PEP     CB58376  17.850   0.144  18.083 -0.1351  0.1641  0.2121
 1552PEP     CB58377  17.359   0.200  18.169 -0.1301 -0.1840  0.3983
 1552PEP     CB58378  17.107   0.469  17.851 -0.3606  0.1737  0.0114
 1552PEP     CB58379  17.220   0.669  17.550  0.4477 -0.1397 -0.0508
 1552PEP     CB58380  17.265   0.607  17.054  0.1837 -0.1049 -0.0259
 1552PEP     CB58381  17.044   0.628  16.653 -0.2118 -0.2828  0.3818
 1552PEP     CB58382  16.919   0.282  16.480 -0.0162  0.1463  0.4303
 1552PEP     CB58383  17.140  -0.088  16.340 -0.1990 -0.3035 -0.1018
 1552PEP     CB58384  17.445  -0.350  16.687 -0.0786 -0.0640  0.3761
 1552PEP     CB58385  17.786  -0.233  16.848  0.1493 -0.2724  0.2196
 1552PEP     CB58386  18.015  -0.350  17.202 -0.0650 -0.1879 -0.2332
 1552PEP     CB58387  18.295  -0.379  17.514 -0.1310 -0.0771  0.3336
 1552PEP     CB58388  18.295  -0.494  17.896 -0.2574 -0.0726  0.0115
 1552PEP     CB58389  18.057  -0.454  18.226 -0.0300  0.2001  0.1589
 1552PEP     CB58390  17.879  -0.180  18.440 -0.2619  0.0929  0.0642
 1552PEP     CB58391  17.984   0.241  18.548 -0.0982  0.0352 -0.1913
 1552PEP     CB58392  18.262   0.544  18.885 -0.2634  0.1390  0.2837
 1552PEP     CB58393  18.655   0.505  19.111 -0.1186  0.0481  0.4344
 1552PEP     CB58394  18.924   0.469  19.378  0.1737  0.2504  0.3293
 1552PEP     CB58395  19.145   0.541  19.781  0.1017 -0.1031 -0.3067
 1552PEP     CB58396  19.365   0.427  20.077 -0.2607  0.1669  0.3168
 1552PEP     CB58397  19.202   0.433  20.559  0.2532 -0.2088 -0.0517
 1552PEP     CB58398  18.708   0.627  20.699  0.0880 -0.0178  0.0756
 1552PEP     CB58399  18.295   0.787  20.817 -0.2652  0.0910 -0.1290
 1552PEP     CB58400  17.873   0.927  20.799  0.2366 -0.0860 -0.1894
 1553PEP     CB58401   7.545   1.904  19.013 -0.2490  0.0535 -0.0007
 1553PEP     CB58402   7.318   2.025  19.395  0.0768 -0.1360  0.3428
 1553PEP     CB58403   7.136   2.160  19.774  0.5510  0.0706  0.3601
 1553PEP     CB58404   6.957   2.020  20.038  0.0549  0.1673  0.2106
 1553PEP     CB58405   7.130   1.763  20.389  0.1395 -0.1407 -0.1159
 1553PEP     CB58406   7.499   1.675  20.428  0.0412 -0.2043  0.0608
 1553PEP     CB58407   7.914   1.727  20.361 -0.0082 -0.1507 -0.2777
 1553PEP     CB58408   8.081   2.112  20.204  0.3378 -0.2582  0.1890
 1553PEP     CB58409   7.908   2.447  20.130  0.2952 -0.0779 -0.1638
 1553PEP     CB58410   7.614   2.596  20.514 -0.2401 -0.1454 -0.0565
 1553PEP     CB58411   7.424   2.502  20.896 -0.3224 -0.0778  0.2635
 1553PEP     CB58412   7.509   2.368  21.275  0.2780 -0.0695 -0.2126
 1553PEP     CB58413   7.776   2.093  21.503  0.0078  0.2534  0.1165
 1553PEP     CB58414   7.674   1.838  21.878  0.0423  0.2022 -0.0573
 1553PEP     CB58415   7.844   1.509  22.059 -0.1857 -0.3311 -0.2626
 1553PEP     CB58416   8.154   1.329  22.361 -0.0291  0.2982  0.2495
 1553PEP     CB58417   8.587   1.335  22.356 -0.1949  0.2674 -0.1134
 1553PEP     CB58418   8.865   1.228  22.039 -0.1779 -0.1923  0.0005
 1553PEP     CB58419   9.027   0.823  21.921  0.0771 -0.0413 -0.2042
 1553PEP     CB58420   9.428   0.579  21.813 -0.0625  0.2281  0.3753
 1553PEP     CB58421   9.760   0.352  21.898 -0.1450 -0.2654 -0.3357
 1553PEP     CB58422   9.965   0.188  22.140  0.4392  0.1726 -0.0374
 1553PEP     CB58423  10.230  -0.102  22.355  0.0797 -0.3955  0.4224
 1553PEP     CB58424  10.626  -0.274  22.168 -0.0033 -0.0824  0.1567
 1553PEP     CB58425  10.894   0.052  21.936  0.1114  0.0422  0.0224
 1553PEP     CB58426  11.299   0.348  22.017 -0.0605  0.2259  0.0313
 1553PEP     CB58427  11.636   0.734  22.003  0.0672  0.0485 -0.1004
 1553PEP     CB58428  11.723   1.154  21.805  0.0476  0.0383 -0.0668
 1553PEP     CB58429  11.737   1.261  21.254  0.0219  0.1646  0.0962
 1553PEP     CB58430  11.785   1.143  20.878 -0.0843  0.1504  0.2274
 1553PEP     CB58431  12.116   0.928  20.822 -0.0944  0.3008 -0.4215
 1553PEP     CB58432  12.385   0.834  21.139  0.2080 -0.0791  0.0008
 1553PEP     CB58433  12.499   1.167  21.500 -0.2529 -0.1828 -0.1363
 1553PEP     CB58434  12.170   1.586  21.599  0.0440 -0.4217  0.1585
 1553PEP     CB58435  11.895   1.634  21.934 -0.0782  0.2158 -0.0175
 1553PEP     CB58436  11.905   1.781  22.314 -0.0426 -0.0207  0.1033
 1553PEP     CB58437  11.976   1.784  22.758 -0.1813 -0.1656  0.0531
 1553PEP     CB58438  12.099   1.505  23.036 -0.2405  0.0919 -0.1644
 1553PEP     CB58439  12.485   1.384  23.272 -0.1159 -0.1644  0.3321
 1553PEP     CB58440  12.852   1.101  23.351  0.1751  0.3057 -0.3911
 1554PEP     CB58441   2.985  10.167  21.480  0.3622  0.0526  0.0417
 1554PEP     CB58442   3.086  10.598  21.488 -0.0119  0.3887  0.1398
 1554PEP     CB58443   3.534  10.810  21.350  0.0633 -0.1290  0.2297
 1554PEP     CB58444   3.898  10.840  21.108 -0.0441 -0.0766  0.0326
 1554PEP     CB58445   4.308  10.669  20.986  0.1164 -0.1138  0.2086
 1554PEP     CB58446   4.807  10.606  20.817  0.3649  0.2865 -0.5419
 1554PEP     CB58447   5.114  10.417  20.555  0.1585 -0.0060  0.1874
 1554PEP     CB58448   5.449  10.163  20.272  0.0179 -0.0880 -0.2072
 1554PEP     CB58449   5.803  10.021  20.111  0.1575 -0.0258  0.1681
 1554PEP     CB58450   6.253  10.126  20.249  0.0528 -0.0298 -0.0304
 1554PEP     CB58451   6.643  10.160  20.533 -0.1796  0.0969 -0.1058
 1554PEP     CB58452   6.897  10.309  20.889 -0.2991  0.1266 -0.3659
 1554PEP     CB58453   7.074  10.575  21.186 -0.4107 -0.1828  0.1525
 1554PEP     CB58454   7.269  10.789  21.486 -0.5415  0.0238  0.0477
 1554PEP     CB58455   7.416  11.016  21.841 -0.0164  0.1235  0.2483
 1554PEP     CB58456   7.597  11.350  22.038  0.1246 -0.2791  0.2354
 1554PEP     CB58457   7.913  11.705  21.893 -0.0084 -0.0032 -0.0483
 1554PEP     CB58458   8.223  11.554  21.630 -0.0085  0.1846  0.0380
 1554PEP     CB58459   8.391  11.340  21.215  0.2006  0.0601 -0.1696
 1554PEP     CB58460   8.220  11.115  20.893 -0.0503  0.0332  0.2478
 1554PEP     CB58461   7.798  10.880  20.879  0.0626 -0.3327 -0.0404
 1554PEP     CB58462   7.367  11.133  21.037  0.3324  0.1228 -0.0809
 1554PEP     CB58463   6.938  11.327  21.219 -0.1570 -0.3558 -0.2026
 1554PEP     CB58464   6.446  11.310  21.256 -0.0211 -0.2016  0.1105
 1554PEP     CB58465   6.062  11.187  21.297  0.1915 -0.2031  0.3525
 1554PEP     CB58466   5.715  11.096  21.246  0.0020  0.0891  0.1087
 1554PEP     CB58467   5.358  11.062  20.971  0.2718  0.1028  0.0866
 1554PEP     CB58468   5.329  10.858  20.644 -0.1711 -0.1333  0.1114
 1554PEP     CB58469   5.085  10.838  20.251 -0.0763  0.2170 -0.1293
 1554PEP     CB58470   4.831  11.016  20.043  0.1292  0.0266 -0.2471
 1554PEP     CB58471   4.539  11.371  20.124  0.0295 -0.2361 -0.2118
 1554PEP     CB58472   4.183  11.355  20.188 -0.3061 -0.5051 -0.3472
 1554PEP     CB58473   4.080  11.339  20.649  0.2943 -0.2099 -0.0362
 1554PEP     CB58474   4.424  11.166  20.889  0.0643  0.3026 -0.0334
 1554PEP     CB58475   4.780  11.043  21.034 -0.2589 -0.1206  0.0678
 1554PEP     CB58476   4.931  10.861  21.377  0.1078 -0.0582  0.2765
 1554PEP     CB58477   5.253  10.947  21.701 -0.2926  0.1400  0.3239
 1554PEP     CB58478   5.617  10.836  21.793 -0.0359 -0.0680 -0.3640
 1554PEP     CB58479   5.888  10.506  21.817  0.0274  0.2190  0.1010
 1554PEP     CB58480   6.105  10.255  21.564  0.3660  0.0047 -0.1912
 1555PEP     CB58481  11.173   4.692   5.656  0.4761 -0.0493 -0.0094
 1555PEP     CB58482  11.195   4.318   5.875  0.2542  0.1193 -0.0591
 1555PEP     CB58483  11.340   3.938   6.047  0.0441  0.0877 -0.0886
 1555PEP     CB58484  11.523   3.715   6.343 -0.2111  0.3834  0.0649
 1555PEP     CB58485  11.619   3.315   6.603  0.1926  0.2020  0.2992
 1555PEP     CB58486  11.557   2.948   6.777 -0.1852  0.5588 -0.1692
 1555PEP     CB58487  11.357   2.594   6.907  0.3112  0.0167  0.0286
 1555PEP     CB58488  11.221   2.248   6.717  0.2524 -0.0584  0.0122
 1555PEP     CB58489  11.345   2.048   6.407 -0.1277 -0.1974 -0.2950
 1555PEP     CB58490  11.397   1.785   6.106  0.1698 -0.3016  0.1740
 1555PEP     CB58491  11.712   1.473   6.059  0.2042 -0.2058  0.2085
 1555PEP     CB58492  11.764   1.097   5.913 -0.0565  0.1908  0.0276
 1555PEP     CB58493  11.941   0.942   5.500  0.0223  0.1439 -0.1074
 1555PEP     CB58494  12.151   1.208   5.261  0.2330 -0.3544  0.1535
 1555PEP     CB58495  12.419   1.497   5.271  0.0127 -0.0516  0.1579
 1555PEP     CB58496  12.749   1.869   5.464 -0.0980 -0.2485 -0.0491
 1555PEP     CB58497  13.092   1.885   5.780  0.0035 -0.2479 -0.4944
 1555PEP     CB58498  13.467   2.033   6.078  0.4760  0.0591  0.2180
 1555PEP     CB58499  13.758   2.005   6.366 -0.2487 -0.1257 -0.1964
 1555PEP     CB58500  14.256   2.002   6.567  0.1998  0.0660  0.0208
 1555PEP     CB58501  14.706   1.860   6.849 -0.0968  0.0125  0.2192
 1555PEP     CB58502  14.935   1.446   6.869 -0.2640 -0.4058  0.0468
 1555PEP     CB58503  15.219   1.327   6.950 -0.1147  0.2152  0.1904
 1555PEP     CB58504  15.602   1.387   6.991  0.3449  0.0515  0.1318
 1555PEP     CB58505  15.951   1.238   6.801  0.2132  0.0419  0.1187
 1555PEP     CB58506  16.166   0.831   6.796 -0.1080 -0.0626 -0.0847
 1555PEP     CB58507  16.018   0.369   6.694 -0.0789 -0.0589  0.2641
 1555PEP     CB58508  15.792   0.011   6.460  0.1998 -0.1913 -0.2264
 1555PEP     CB58509  15.750  -0.139   6.039 -0.0278 -0.1820  0.1862
 1555PEP     CB58510  15.829  -0.264   5.685  0.4574 -0.2545 -0.2415
 1555PEP     CB58511  16.048  -0.272   5.259  0.1068 -0.5928 -0.0815
 1555PEP     CB58512  16.046  -0.642   4.965  0.2677  0.1108  0.3306
 1555PEP     CB58513  16.217  -1.010   4.810  0.0900  0.1092  0.1140
 1555PEP     CB58514  16.249  -1.388   5.064 -0.3288 -0.0280  0.5186
 1555PEP     CB58515  16.074  -1.629   5.438 -0.2706 -0.0525 -0.1377
 1555PEP     CB58516  15.978  -1.865   5.746 -0.0972 -0.1275  0.2559
 1555PEP     CB58517  16.004  -2.303   6.017 -0.1557 -0.0864 -0.4639
 1555PEP     CB58518  16.413  -2.581   6.146  0.2139 -0.2048 -0.2353
 1555PEP     CB58519  16.760  -2.871   6.076  0.0627 -0.2212 -0.1959
 1555PEP     CB58520  17.162  -2.808   6.176 -0.0551 -0.4170 -0.2343
 1556PEP     CB58521   9.123  14.031  16.963  0.2643 -0.1433  0.0400
 1556PEP     CB58522   9.071  14.259  17.365 -0.0568  0.1614  0.0142
 1556PEP     CB58523   8.957  14.321  17.782 -0.1198  0.3981 -0.0940
 1556PEP     CB58524   8.611  14.518  17.901  0.4507 -0.1963 -0.4878
 1556PEP     CB58525   8.445  14.987  17.839  0.0099 -0.4457  0.2709
 1556PEP     CB58526   8.323  15.358  17.609 -0.2941 -0.4718  0.4387
 1556PEP     CB58527   8.099  15.723  17.494 -0.0988  0.3744 -0.2119
 1556PEP     CB58528   7.915  16.087  17.296 -0.1494  0.0480 -0.1064
 1556PEP     CB58529   7.995  16.461  17.182  0.0543 -0.1841  0.0105
 1556PEP     CB58530   7.961  16.911  17.115 -0.2352  0.1505  0.0098
 1556PEP     CB58531   7.732  17.046  16.832 -0.3445 -0.1195  0.2028
 1556PEP     CB58532   7.701  17.134  16.340  0.0568  0.0252  0.1832
 1556PEP     CB58533   7.694  17.471  16.021 -0.0760 -0.1616 -0.2013
 1556PEP     CB58534   8.106  17.681  15.762 -0.3203  0.2004  0.0335
 1556PEP     CB58535   8.447  17.425  15.513 -0.2047  0.0989  0.0874
 1556PEP     CB58536   8.809  17.233  15.501 -0.1315 -0.2629 -0.1244
 1556PEP     CB58537   9.173  17.446  15.738  0.2757 -0.2609 -0.0629
 1556PEP     CB58538   9.474  17.802  15.640 -0.2107  0.1048 -0.0495
 1556PEP     CB58539   9.764  18.218  15.542 -0.1760  0.3403 -0.0920
 1556PEP     CB58540   9.684  18.589  15.235 -0.0218  0.1334 -0.1492
 1556PEP     CB58541   9.733  18.835  14.969  0.1343 -0.2895  0.0510
 1556PEP     CB58542   9.820  19.123  14.795  0.6358 -0.1592 -0.2745
 1556PEP     CB58543   9.646  19.403  14.459  0.1017 -0.0274 -0.3444
 1556PEP     CB58544   9.172  19.599  14.388 -0.0719 -0.4033 -0.0159
 1556PEP     CB58545   8.869  19.449  14.675 -0.1290  0.0561 -0.0278
 1556PEP     CB58546   8.924  19.079  14.766  0.1593 -0.1321  0.1488
 1556PEP     CB58547   9.317  18.956  14.535 -0.0887 -0.0862 -0.0425
 1556PEP     CB58548   9.350  19.123  14.149 -0.0493  0.2152  0.1548
 1556PEP     CB58549   9.104  19.125  13.796  0.2186 -0.1254  0.0680
 1556PEP     CB58550   8.745  18.936  13.820  0.2982  0.0594  0.0263
 1556PEP     CB58551   8.462  18.666  14.179  0.2914  0.3548 -0.0136
 1556PEP     CB58552   8.205  18.431  14.464  0.0077 -0.1231 -0.0026
 1556PEP     CB58553   7.811  18.464  14.610  0.4854  0.4218  0.1913
 1556PEP     CB58554   7.434  18.451  14.446 -0.0809 -0.3560  0.1149
 1556PEP     CB58555   7.114  18.674  14.215 -0.0133 -0.2870 -0.4984
 1556PEP     CB58556   7.003  19.127  14.127 -0.1993 -0.1805  0.0392
 1556PEP     CB58557   7.038  19.489  14.452 -0.0215  0.1638 -0.1409
 1556PEP     CB58558   7.106  19.746  14.663  0.0003  0.2006  0.2396
 1556PEP     CB58559   7.371  20.059  14.740  0.0496 -0.0467  0.0866
 1556PEP     CB58560   7.563  20.421  14.733 -0.1535  0.1660 -0.0010
 1557PEP     CB58561   2.022  13.229  20.816  0.1541  0.0117 -0.2203
 1557PEP     CB58562   1.943  13.408  20.412 -0.3072  0.2387 -0.0091
 1557PEP     CB58563   1.782  13.504  19.922  0.3272  0.3537 -0.0627
 1557PEP     CB58564   1.725  13.221  19.524 -0.3622 -0.1272 -0.0972
 1557PEP     CB58565   1.665  12.822  19.492  0.0004  0.0455 -0.0754
 1557PEP     CB58566   1.305  12.495  19.413 -0.1052  0.1238 -0.0486
 1557PEP     CB58567   1.117  12.102  19.360 -0.2462  0.0846  0.0596
 1557PEP     CB58568   1.092  11.763  19.035  0.2032  0.0771 -0.1899
 1557PEP     CB58569   1.343  11.537  18.718 -0.1526  0.1400  0.0059
 1557PEP     CB58570   1.510  11.682  18.294 -0.0953 -0.2115  0.2321
 1557PEP     CB58571   1.331  12.150  18.117  0.0248  0.5299 -0.0555
 1557PEP     CB58572   1.321  12.385  17.856  0.1386  0.3696  0.5819
 1557PEP     CB58573   1.115  12.650  17.567  0.2886  0.2988 -0.2432
 1557PEP     CB58574   0.734  12.765  17.316  0.0417  0.1853  0.2566
 1557PEP     CB58575   0.453  12.576  16.992 -0.5438  0.0899 -0.1427
 1557PEP     CB58576   0.234  12.149  16.792  0.0176  0.0537 -0.1566
 1557PEP     CB58577  -0.219  12.027  16.938 -0.1456  0.2916  0.1060
 1557PEP     CB58578  -0.431  12.100  17.345  0.0669  0.0944  0.3110
 1557PEP     CB58579  -0.768  12.395  17.466  0.0443 -0.3989 -0.1361
 1557PEP     CB58580  -1.216  12.387  17.524  0.2029  0.1554 -0.2325
 1557PEP     CB58581  -1.686  12.283  17.589  0.1593 -0.1730 -0.1665
 1557PEP     CB58582  -1.951  11.951  17.870  0.3638  0.2369  0.1081
 1557PEP     CB58583  -1.811  11.835  18.277 -0.0873  0.1891 -0.2361
 1557PEP     CB58584  -1.374  11.926  18.453 -0.4790  0.3985 -0.0455
 1557PEP     CB58585  -1.083  12.257  18.388  0.3800  0.0458 -0.1144
 1557PEP     CB58586  -0.818  12.298  17.972 -0.4367  0.2412  0.2885
 1557PEP     CB58587  -0.886  11.966  17.611 -0.3183 -0.0200  0.0656
 1557PEP     CB58588  -0.814  11.554  17.357  0.0048  0.1567 -0.1867
 1557PEP     CB58589  -0.597  11.220  17.372  0.0079  0.1325 -0.3979
 1557PEP     CB58590  -0.461  10.834  17.637 -0.0694  0.0726  0.1806
 1557PEP     CB58591  -0.427  10.414  17.684 -0.1065  0.1003 -0.0783
 1557PEP     CB58592  -0.463   9.997  17.913  0.0310  0.1646 -0.1786
 1557PEP     CB58593  -0.228   9.738  18.181 -0.2554 -0.1720  0.1868
 1557PEP     CB58594  -0.155   9.475  18.566  0.1747  0.3198  0.2580
 1557PEP     CB58595  -0.298   9.333  18.957 -0.1522 -0.2006 -0.1908
 1557PEP     CB58596  -0.625   9.226  19.226 -0.3575 -0.2991 -0.5913
 1557PEP     CB58597  -0.961   9.184  19.437  0.0473  0.0808 -0.2680
 1557PEP     CB58598  -1.403   9.028  19.503  0.1282 -0.0350 -0.0404
 1557PEP     CB58599  -1.828   8.824  19.625  0.1806  0.3987  0.2308
 1557PEP     CB58600  -1.978   8.416  19.652 -0.1816 -0.2767 -0.5355
 1558PEP     CB58601  15.286  18.725  16.186  0.2430  0.3647 -0.2573
 1558PEP     CB58602  14.880  18.569  16.162  0.2200 -0.3273  0.0790
 1558PEP     CB58603  14.581  18.175  16.339  0.4455 -0.0271 -0.2906
 1558PEP     CB58604  14.853  17.910  16.636 -0.1956 -0.0804  0.3651
 1558PEP     CB58605  15.332  17.953  16.591  0.0656  0.0841 -0.3524
 1558PEP     CB58606  15.510  18.309  16.538 -0.1282 -0.0217  0.0229
 1558PEP     CB58607  15.244  18.627  16.674 -0.0554 -0.1556 -0.3975
 1558PEP     CB58608  14.821  18.649  16.732  0.3934  0.2875  0.3090
 1558PEP     CB58609  14.416  18.413  16.780 -0.1961  0.2579  0.0290
 1558PEP     CB58610  14.250  18.038  16.872  0.3881  0.0588  0.1106
 1558PEP     CB58611  13.935  17.902  17.224  0.1086 -0.3090  0.1755
 1558PEP     CB58612  13.861  17.723  17.680 -0.1159 -0.3497  0.1136
 1558PEP     CB58613  13.589  17.572  17.990  0.0129  0.4313  0.3019
 1558PEP     CB58614  13.310  17.414  18.276 -0.2443 -0.2039 -0.0035
 1558PEP     CB58615  13.159  17.369  18.777 -0.2409  0.0096 -0.0090
 1558PEP     CB58616  13.058  17.563  19.140  0.0189  0.0989  0.2427
 1558PEP     CB58617  12.880  17.954  19.247 -0.1380 -0.0069  0.2226
 1558PEP     CB58618  12.863  18.233  18.912 -0.0025  0.3582 -0.0547
 1558PEP     CB58619  12.719  18.183  18.402 -0.1745  0.0590  0.0589
 1558PEP     CB58620  12.454  18.433  18.146  0.0790  0.2125  0.3740
 1558PEP     CB58621  12.029  18.445  18.102 -0.0444 -0.0429 -0.0432
 1558PEP     CB58622  11.712  18.668  17.895 -0.0543  0.0999 -0.0266
 1558PEP     CB58623  11.510  18.890  17.548 -0.0155 -0.1377  0.3524
 1558PEP     CB58624  11.517  19.092  17.024 -0.1512 -0.4135  0.0400
 1558PEP     CB58625  11.542  19.367  16.727  0.5736  0.3329  0.1399
 1558PEP     CB58626  11.504  19.816  16.577 -0.2820 -0.0370  0.3722
 1558PEP     CB58627  11.367  19.950  16.184 -0.0029  0.2197 -0.3257
 1558PEP     CB58628  11.187  19.652  15.907  0.4554  0.0344 -0.0570
 1558PEP     CB58629  10.980  19.283  16.084 -0.1210 -0.3018 -0.1521
 1558PEP     CB58630  10.875  19.137  16.495 -0.2490  0.0429  0.2400
 1558PEP     CB58631  11.035  18.893  16.837  0.0148 -0.0803 -0.3027
 1558PEP     CB58632  11.331  18.534  17.022 -0.0642  0.0008 -0.0272
 1558PEP     CB58633  11.478  18.216  17.257  0.1374  0.0393  0.0339
 1558PEP     CB58634  11.566  17.800  17.208  0.0192 -0.0839  0.0573
 1558PEP     CB58635  11.732  17.522  16.871 -0.2573  0.1395 -0.3136
 1558PEP     CB58636  11.732  17.496  16.415 -0.0101  0.0046  0.2798
 1558PEP     CB58637  11.763  17.780  16.104  0.0539  0.1856 -0.2673
 1558PEP     CB58638  11.735  18.145  16.049  0.1358 -0.0007  0.0822
 1558PEP     CB58639  11.753  18.489  15.681  0.0145  0.1080 -0.4460
 1558PEP     CB58640  12.088  18.675  15.468 -0.0619 -0.2997 -0.3550
 1559PEP     CB58641  14.594  20.116  10.574  0.1821 -0.1142 -0.2821
 1559PEP     CB58642  14.883  19.862  10.813  0.0182  0.1098  0.0804
 1559PEP     CB58643  15.137  19.817  11.179 -0.0433 -0.3434  0.0355
 1559PEP     CB58644  15.252  19.950  11.591  0.0178  0.0318  0.2456
 1559PEP     CB58645  15.466  20.225  11.924  0.1123 -0.0381 -0.1708
 1559PEP     CB58646  15.275  20.543  12.175 -0.5347  0.5502  0.3238
 1559PEP     CB58647  14.833  20.681  12.100 -0.0549  0.2710 -0.3119
 1559PEP     CB58648  14.518  20.505  11.784 -0.1221 -0.0021 -0.0237
 1559PEP     CB58649  14.393  20.698  11.474  0.2453  0.1297  0.3157
 1559PEP     CB58650  14.551  21.057  11.324  0.2809  0.3572 -0.3617
 1559PEP     CB58651  14.799  21.374  11.106 -0.0572  0.3220  0.2659
 1559PEP     CB58652  14.762  21.795  11.002 -0.4700  0.0432  0.1690
 1559PEP     CB58653  14.634  22.154  11.356  0.0561  0.2173  0.2921
 1559PEP     CB58654  14.176  22.013  11.629 -0.0816 -0.0385  0.2292
 1559PEP     CB58655  13.987  21.678  11.449  0.1802 -0.0911 -0.0070
 1559PEP     CB58656  14.176  21.362  11.200  0.1460 -0.0446  0.0091
 1559PEP     CB58657  14.331  21.084  10.838  0.2818 -0.0455  0.0091
 1559PEP     CB58658  14.363  20.997  10.451  0.3116  0.0027  0.1614
 1559PEP     CB58659  14.194  20.704  10.096 -0.0003  0.1434  0.0177
 1559PEP     CB58660  13.766  20.472  10.044  0.1186 -0.1210  0.0093
 1559PEP     CB58661  13.350  20.293  10.176  0.0787  0.2055  0.0069
 1559PEP     CB58662  12.998  20.044  10.087 -0.4778  0.1683  0.0683
 1559PEP     CB58663  12.680  19.746   9.924  0.2212 -0.2277  0.1303
 1559PEP     CB58664  12.348  19.490  10.177 -0.1426  0.1651 -0.1152
 1559PEP     CB58665  12.255  19.202  10.525 -0.2014  0.2176 -0.2468
 1559PEP     CB58666  12.261  19.016  10.902 -0.0160  0.0290 -0.0515
 1559PEP     CB58667  12.190  18.656  11.150  0.2748  0.0222  0.3766
 1559PEP     CB58668  12.208  18.232  11.312  0.0752 -0.3243 -0.1766
 1559PEP     CB58669  12.132  17.877  11.618  0.0763  0.0400 -0.2158
 1559PEP     CB58670  11.784  17.700  11.781  0.0154  0.3281  0.0326
 1559PEP     CB58671  11.655  17.200  11.972 -0.0324  0.0512 -0.0036
 1559PEP     CB58672  11.878  16.825  12.152  0.1889  0.2420 -0.0187
 1559PEP     CB58673  12.133  16.861  12.461  0.0871 -0.3396 -0.4216
 1559PEP     CB58674  12.229  17.263  12.657 -0.0891 -0.0352 -0.0383
 1559PEP     CB58675  12.066  17.510  12.355  0.2376 -0.0533  0.2569
 1559PEP     CB58676  12.120  17.425  11.914 -0.2337  0.1404 -0.4301
 1559PEP     CB58677  12.259  17.335  11.407 -0.1056 -0.0840  0.1226
 1559PEP     CB58678  12.297  17.294  10.961 -0.2436 -0.3873 -0.4287
 1559PEP     CB58679  12.394  17.084  10.598 -0.2611  0.0097  0.1340
 1559PEP     CB58680  12.496  16.756  10.341  0.0470 -0.2473 -0.1652
 1560PEP     CB58681  14.919  20.790   1.367  0.2846 -0.3847 -0.2000
 1560PEP     CB58682  14.759  21.074   1.072 -0.0357 -0.0483 -0.0124
 1560PEP     CB58683  14.439  21.211   0.739  0.0571  0.1440 -0.1153
 1560PEP     CB58684  14.044  21.305   0.537 -0.2856 -0.3289  0.1962
 1560PEP     CB58685  13.772  21.499   0.304  0.0721 -0.3581  0.3086
 1560PEP     CB58686  13.310  21.566   0.154  0.1582  0.1162  0.1136
 1560PEP     CB58687  12.896  21.704   0.148 -0.2432 -0.4937 -0.2542
 1560PEP     CB58688  12.630  21.991   0.269  0.0470 -0.3291 -0.0056
 1560PEP     CB58689  12.252  22.086   0.426  0.1073 -0.1807 -0.2121
 1560PEP     CB58690  11.891  21.857   0.530 -0.0708 -0.0681 -0.0227
 1560PEP     CB58691  11.737  21.428   0.836 -0.3402 -0.1639 -0.1319
 1560PEP     CB58692  11.563  20.987   0.991  0.1543  0.0954 -0.5823
 1560PEP     CB58693  11.292  20.765   1.322 -0.0872  0.2745 -0.1429
 1560PEP     CB58694  11.185  20.619   1.740  0.5580 -0.4328 -0.0264
 1560PEP     CB58695  10.903  20.365   2.103 -0.2893  0.0829  0.1296
 1560PEP     CB58696  10.827  20.214   2.607  0.1104  0.0613 -0.3784
 1560PEP     CB58697  10.961  19.814   2.841  0.2198  0.0308 -0.0279
 1560PEP     CB58698  11.059  19.552   3.188  0.2654 -0.0872  0.1492
 1560PEP     CB58699  10.925  19.171   3.383 -0.0919  0.4016  0.2525
 1560PEP     CB58700  10.714  18.964   3.783 -0.4036 -0.1777  0.2625
 1560PEP     CB58701  10.427  18.587   3.787  0.0306 -0.0622 -0.3649
 1560PEP     CB58702  10.339  18.190   4.025 -0.1569 -0.7122 -0.1450
 1560PEP     CB58703  10.584  17.974   4.377  0.0949 -0.3009  0.2373
 1560PEP     CB58704  10.736  18.099   4.812 -0.5847  0.1183  0.0952
 1560PEP     CB58705  10.584  17.900   5.171 -0.0859  0.1471 -0.4608
 1560PEP     CB58706  10.463  17.459   5.360  0.3365 -0.2343 -0.1345
 1560PEP     CB58707  10.198  17.341   5.670  0.0363 -0.2434 -0.0221
 1560PEP     CB58708   9.792  17.336   5.803  0.1526  0.0732  0.0172
 1560PEP     CB58709   9.540  17.164   5.762 -0.0479 -0.0286  0.0635
 1560PEP     CB58710   9.169  16.835   5.676  0.0115  0.0949 -0.2073
 1560PEP     CB58711   8.864  16.560   5.743 -0.1531 -0.6161 -0.3293
 1560PEP     CB58712   8.716  16.248   5.468  0.2472  0.1139 -0.0543
 1560PEP     CB58713   8.427  15.948   5.391  0.0183 -0.5926 -0.2400
 1560PEP     CB58714   8.158  15.584   5.221 -0.0736 -0.1114 -0.0932
 1560PEP     CB58715   7.742  15.571   5.187 -0.3625  0.1326 -0.2714
 1560PEP     CB58716   7.349  15.731   4.984  0.1719 -0.0207 -0.1664
 1560PEP     CB58717   7.071  15.771   4.683  0.1877  0.2221 -0.2938
 1560PEP     CB58718   6.959  16.032   4.257  0.1652  0.1196 -0.1172
 1560PEP     CB58719   6.806  16.398   4.162  0.0260 -0.1130  0.1872
 1560PEP     CB58720   6.602  16.651   4.479  0.2407  0.3153  0.0073
 1561PEP     CB58721  19.568  16.996  13.882  0.0330  0.0191  0.0465
 1561PEP     CB58722  19.981  16.821  13.988  0.2300  0.1552  0.1006
 1561PEP     CB58723  20.276  16.847  14.395  0.0581  0.0938  0.2046
 1561PEP     CB58724  20.567  17.156  14.605 -0.3018  0.1950 -0.0619
 1561PEP     CB58725  20.830  17.300  14.872  0.0502 -0.0406 -0.3049
 1561PEP     CB58726  21.014  17.584  15.165  0.2582  0.0339  0.0008
 1561PEP     CB58727  21.184  18.037  15.250 -0.1751  0.0610 -0.1161
 1561PEP     CB58728  20.966  18.494  15.489  0.0857  0.0605  0.0525
 1561PEP     CB58729  20.633  18.817  15.432  0.2093  0.2563  0.0868
 1561PEP     CB58730  20.572  19.317  15.356  0.1188 -0.0125 -0.0683
 1561PEP     CB58731  20.488  19.764  15.434  0.0014  0.4734  0.2287
 1561PEP     CB58732  20.315  20.160  15.317 -0.0120  0.2483  0.0772
 1561PEP     CB58733  20.112  20.608  15.371  0.2849 -0.2623  0.3138
 1561PEP     CB58734  19.685  20.791  15.427 -0.0849  0.0329 -0.1011
 1561PEP     CB58735  19.413  21.120  15.304  0.1401  0.0442 -0.2432
 1561PEP     CB58736  19.436  21.453  15.001 -0.2062  0.2846  0.0918
 1561PEP     CB58737  19.546  21.575  14.627 -0.3465 -0.0077 -0.1147
 1561PEP     CB58738  19.314  21.518  14.226 -0.0014  0.2173 -0.1557
 1561PEP     CB58739  19.142  21.193  14.008 -0.0853  0.1172  0.0735
 1561PEP     CB58740  19.074  20.823  13.771 -0.1774  0.2826  0.0319
 1561PEP     CB58741  18.767  20.607  13.729  0.4780  0.4396 -0.3570
 1561PEP     CB58742  18.393  20.584  13.937  0.1255 -0.3198 -0.0720
 1561PEP     CB58743  17.973  20.744  13.938 -0.0092 -0.1569 -0.4800
 1561PEP     CB58744  17.553  20.739  13.763  0.4367 -0.1031  0.1651
 1561PEP     CB58745  17.213  20.534  13.761 -0.1321 -0.3761  0.0519
 1561PEP     CB58746  16.812  20.415  13.619 -0.1279 -0.2458 -0.0962
 1561PEP     CB58747  16.489  20.252  13.362 -0.0900  0.2864 -0.3773
 1561PEP     CB58748  15.965  20.142  13.259 -0.0013  0.0776 -0.3460
 1561PEP     CB58749  15.504  20.021  13.232 -0.0538  0.0003 -0.0472
 1561PEP     CB58750  15.069  19.994  13.059 -0.1205 -0.2724  0.1341
 1561PEP     CB58751  14.777  20.037  12.780  0.2730  0.3827  0.2494
 1561PEP     CB58752  14.356  20.212  12.739 -0.0278  0.1147  0.2516
 1561PEP     CB58753  13.922  20.367  12.617  0.1961  0.2125 -0.2256
 1561PEP     CB58754  13.713  20.771  12.668 -0.2185 -0.4669  0.1651
 1561PEP     CB58755  13.589  21.194  12.580 -0.1791 -0.2647 -0.0625
 1561PEP     CB58756  13.689  21.627  12.320  0.2910 -0.3338  0.0860
 1561PEP     CB58757  13.693  21.615  11.876 -0.0438 -0.2715  0.0612
 1561PEP     CB58758  13.425  21.367  11.689 -0.0594  0.3339 -0.1262
 1561PEP     CB58759  13.073  21.058  11.802 -0.3760  0.0815  0.1755
 1561PEP     CB58760  12.855  20.766  11.766 -0.4470 -0.1557 -0.0148
 1562PEP     CB58761  12.707   4.276  17.302  0.1809  0.0868 -0.1077
 1562PEP     CB58762  12.520   4.682  17.104 -0.3907 -0.3372  0.0863
 1562PEP     CB58763  12.351   4.901  16.799  0.0805 -0.1395 -0.1885
 1562PEP     CB58764  11.931   4.993  16.753  0.1180 -0.0813  0.1730
 1562PEP     CB58765  11.637   4.724  16.987  0.0097 -0.5307  0.0318
 1562PEP     CB58766  11.647   4.325  17.192  0.0299  0.1684 -0.0802
 1562PEP     CB58767  11.451   3.933  17.226  0.1416  0.3932  0.3606
 1562PEP     CB58768  11.492   3.557  16.936  0.1012  0.1575 -0.3824
 1562PEP     CB58769  11.460   3.190  16.694 -0.4112 -0.1954 -0.2724
 1562PEP     CB58770  11.092   3.103  16.504 -0.1974  0.1895 -0.3533
 1562PEP     CB58771  10.627   3.247  16.446 -0.1798  0.1075 -0.1698
 1562PEP     CB58772  10.175   3.360  16.361  0.1685 -0.1495  0.0214
 1562PEP     CB58773   9.858   3.224  16.720  0.0054 -0.1480  0.1848
 1562PEP     CB58774   9.779   3.459  17.221  0.0416  0.1134  0.1850
 1562PEP     CB58775  10.031   3.865  17.389 -0.0142 -0.0608  0.1484
 1562PEP     CB58776  10.273   4.188  17.666 -0.3287  0.7109  0.1823
 1562PEP     CB58777  10.272   4.593  17.856 -0.1297 -0.2845 -0.3574
 1562PEP     CB58778  10.539   4.934  17.800 -0.1602  0.4431 -0.2378
 1562PEP     CB58779  10.524   5.396  17.820 -0.2853  0.0962  0.1312
 1562PEP     CB58780  10.641   5.797  17.750 -0.1827  0.0497  0.0480
 1562PEP     CB58781  10.632   6.259  17.755 -0.3157 -0.2341 -0.0487
 1562PEP     CB58782  10.320   6.524  17.503 -0.0489  0.1029  0.0186
 1562PEP     CB58783  10.163   6.347  17.148  0.4663  0.1718  0.0787
 1562PEP     CB58784  10.190   5.999  16.810 -0.0129  0.1461 -0.3578
 1562PEP     CB58785  10.538   5.993  16.548 -0.0832 -0.3745 -0.2530
 1562PEP     CB58786  10.961   6.062  16.627 -0.2033  0.1331 -0.0535
 1562PEP     CB58787  11.369   5.921  16.862 -0.2862 -0.1992 -0.0902
 1562PEP     CB58788  11.829   5.786  17.052  0.0370  0.0025  0.1023
 1562PEP     CB58789  12.274   5.796  17.071  0.0664  0.8612  0.4074
 1562PEP     CB58790  12.588   5.680  17.356  0.1024 -0.4272  0.5233
 1562PEP     CB58791  12.677   5.743  17.740 -0.4664  0.2397 -0.1231
 1562PEP     CB58792  12.752   5.814  18.197 -0.1105  0.1294  0.2256
 1562PEP     CB58793  12.599   5.836  18.602 -0.3884 -0.1071  0.3460
 1562PEP     CB58794  12.421   5.897  18.957  0.1351  0.1619 -0.1078
 1562PEP     CB58795  12.211   5.944  19.293 -0.0173 -0.3503 -0.0994
 1562PEP     CB58796  12.143   6.333  19.461 -0.2759 -0.0575  0.2586
 1562PEP     CB58797  12.280   6.704  19.460  0.0820 -0.2867  0.0183
 1562PEP     CB58798  12.470   7.122  19.578 -0.2311 -0.3835 -0.1475
 1562PEP     CB58799  12.722   7.550  19.493 -0.6370 -0.0068 -0.2644
 1562PEP     CB58800  12.732   7.942  19.289  0.3455 -0.1269 -0.4001
 1563PEP     CB58801   5.565  14.938   4.733  0.1105 -0.0432  0.1221
 1563PEP     CB58802   5.374  14.837   5.128  0.0485  0.0733 -0.0136
 1563PEP     CB58803   5.367  15.039   5.479 -0.1092 -0.0703  0.0346
 1563PEP     CB58804   5.192  15.211   5.822  0.1085 -0.0140 -0.3232
 1563PEP     CB58805   4.782  15.458   5.918 -0.1667 -0.2626 -0.1782
 1563PEP     CB58806   4.360  15.395   5.799 -0.2376 -0.0471  0.1184
 1563PEP     CB58807   4.067  15.017   5.850 -0.1646  0.0541  0.3482
 1563PEP     CB58808   3.712  14.794   5.623  0.2875 -0.0435  0.1571
 1563PEP     CB58809   3.519  14.444   5.471 -0.2664 -0.0752 -0.2772
 1563PEP     CB58810   3.109  14.180   5.619  0.0560  0.0120 -0.1231
 1563PEP     CB58811   2.698  14.282   5.703 -0.2120 -0.1558 -0.1639
 1563PEP     CB58812   2.656  14.647   5.816  0.1240  0.4595 -0.0637
 1563PEP     CB58813   2.899  14.895   6.086  0.1243  0.4991 -0.1659
 1563PEP     CB58814   3.243  14.916   6.291  0.0667  0.0251  0.0949
 1563PEP     CB58815   3.605  14.637   6.461  0.1598 -0.0197  0.1137
 1563PEP     CB58816   3.810  14.241   6.546  0.0301  0.2480  0.0868
 1563PEP     CB58817   3.866  13.813   6.765  0.0879  0.1538 -0.2529
 1563PEP     CB58818   3.742  13.544   7.158 -0.0270  0.1040  0.0457
 1563PEP     CB58819   3.550  13.341   7.516 -0.2188  0.2179  0.0404
 1563PEP     CB58820   3.322  13.028   7.623 -0.0751  0.3758 -0.0099
 1563PEP     CB58821   2.890  13.014   7.818 -0.0217 -0.0177 -0.1241
 1563PEP     CB58822   2.589  12.808   7.677 -0.3368 -0.1107  0.0012
 1563PEP     CB58823   2.642  12.411   7.507  0.0780 -0.1779  0.1145
 1563PEP     CB58824   2.971  12.067   7.470  0.0075  0.0163 -0.3289
 1563PEP     CB58825   3.151  11.703   7.384  0.0450 -0.0489 -0.0430
 1563PEP     CB58826   3.251  11.259   7.420 -0.2344 -0.0032 -0.1695
 1563PEP     CB58827   3.217  10.909   7.683 -0.2979 -0.0974 -0.0651
 1563PEP     CB58828   3.259  10.812   8.069  0.3846 -0.2020  0.2602
 1563PEP     CB58829   3.496  10.599   8.273  0.0394  0.1697  0.1197
 1563PEP     CB58830   3.803  10.338   8.455 -0.0460 -0.1324  0.1632
 1563PEP     CB58831   3.880   9.846   8.449  0.0299 -0.1051 -0.0704
 1563PEP     CB58832   3.789   9.383   8.400 -0.2718 -0.2327  0.0053
 1563PEP     CB58833   3.930   9.024   8.082  0.0881 -0.0924  0.2072
 1563PEP     CB58834   3.766   8.904   7.692 -0.1786  0.1523  0.3398
 1563PEP     CB58835   3.474   9.016   7.393 -0.1880 -0.1761  0.0827
 1563PEP     CB58836   3.452   9.310   7.053 -0.0441  0.0278 -0.0087
 1563PEP     CB58837   3.780   9.388   6.773 -0.0962  0.3058  0.0293
 1563PEP     CB58838   4.214   9.414   6.899  0.0158 -0.0469 -0.1463
 1563PEP     CB58839   4.581   9.709   6.934 -0.3601 -0.1235 -0.3086
 1563PEP     CB58840   4.741  10.009   6.747 -0.0192 -0.0494  0.1243
 1564PEP     CB58841   7.480  19.113  12.919  0.4125  0.2161 -0.2030
 1564PEP     CB58842   7.721  19.150  13.231 -0.0802 -0.1154  0.2687
 1564PEP     CB58843   7.902  19.360  13.552 -0.0450  0.1743  0.0917
 1564PEP     CB58844   7.811  19.486  13.996 -0.1558 -0.2298 -0.3945
 1564PEP     CB58845   7.466  19.784  14.153 -0.0334  0.2880 -0.0550
 1564PEP     CB58846   6.939  19.788  14.069 -0.1895 -0.1453 -0.2462
 1564PEP     CB58847   6.757  19.476  13.859 -0.1477  0.1257  0.2177
 1564PEP     CB58848   6.487  19.137  13.737 -0.2050 -0.1575  0.1426
 1564PEP     CB58849   6.323  18.811  13.871 -0.3818 -0.1528  0.3221
 1564PEP     CB58850   6.066  18.561  14.107 -0.2542 -0.2816  0.1820
 1564PEP     CB58851   5.879  18.327  14.389 -0.0065  0.1673  0.1471
 1564PEP     CB58852   5.792  18.359  14.872  0.4683  0.1874 -0.0993
 1564PEP     CB58853   5.906  18.285  15.323  0.0275  0.0303  0.3739
 1564PEP     CB58854   6.026  18.475  15.659 -0.0225  0.0644 -0.0622
 1564PEP     CB58855   5.941  18.439  16.154 -0.0857 -0.2980 -0.1526
 1564PEP     CB58856   6.167  18.059  16.448 -0.1540 -0.5113  0.1888
 1564PEP     CB58857   6.075  17.675  16.277  0.0392  0.1851  0.0332
 1564PEP     CB58858   5.671  17.496  16.122  0.2481  0.0941  0.2954
 1564PEP     CB58859   5.259  17.498  15.937 -0.2130  0.0799 -0.0138
 1564PEP     CB58860   4.834  17.649  15.825 -0.4071 -0.3101  0.1339
 1564PEP     CB58861   4.677  18.031  15.516 -0.1583  0.1872  0.3315
 1564PEP     CB58862   4.768  18.203  15.055 -0.0012 -0.0111  0.1337
 1564PEP     CB58863   5.121  18.121  14.711 -0.3080 -0.2242  0.0222
 1564PEP     CB58864   5.304  17.722  14.771 -0.2293  0.1385 -0.0658
 1564PEP     CB58865   5.631  17.443  14.485  0.1749  0.1503 -0.0788
 1564PEP     CB58866   5.772  17.082  14.176 -0.0569  0.1002 -0.2924
 1564PEP     CB58867   6.007  16.788  13.827  0.0466  0.1447 -0.2085
 1564PEP     CB58868   6.174  16.450  13.812  0.1947  0.1006  0.2490
 1564PEP     CB58869   6.360  16.150  13.528  0.4105  0.0262  0.4003
 1564PEP     CB58870   6.248  16.192  13.158  0.0903  0.2019  0.1529
 1564PEP     CB58871   6.068  16.432  12.828 -0.5253 -0.1925  0.0503
 1564PEP     CB58872   6.087  16.734  12.476  0.1350  0.1682  0.1452
 1564PEP     CB58873   6.253  17.213  12.434  0.1347  0.0067  0.2615
 1564PEP     CB58874   6.198  17.707  12.576  0.1474  0.1661 -0.1430
 1564PEP     CB58875   6.184  18.158  12.766 -0.3193 -0.1118  0.1089
 1564PEP     CB58876   6.246  18.521  12.819  0.2993  0.2019  0.0815
 1564PEP     CB58877   6.407  18.774  13.163 -0.1725 -0.1262  0.2635
 1564PEP     CB58878   6.757  18.907  13.188 -0.1758  0.0888 -0.3045
 1564PEP     CB58879   7.166  18.770  13.149  0.1151  0.1053 -0.4286
 1564PEP     CB58880   7.443  18.482  13.251  0.4949  0.0444  0.2318
 1565PEP     CB58881   4.398  19.150   6.322 -0.3383  0.0774 -0.1717
 1565PEP     CB58882   4.419  19.089   6.729  0.0243  0.0051  0.0943
 1565PEP     CB58883   4.566  18.773   7.060 -0.0242  0.3307 -0.1450
 1565PEP     CB58884   4.795  18.758   7.388  0.0251  0.1237 -0.1793
 1565PEP     CB58885   4.874  19.003   7.777 -0.0999 -0.0567 -0.0494
 1565PEP     CB58886   4.808  19.295   8.011 -0.1617 -0.2669 -0.0025
 1565PEP     CB58887   4.871  19.651   8.247  0.1207  0.2904 -0.4532
 1565PEP     CB58888   4.833  20.052   8.106  0.1150 -0.0113  0.2554
 1565PEP     CB58889   4.661  20.095   7.711 -0.4027 -0.0160 -0.0823
 1565PEP     CB58890   4.353  19.971   7.432  0.4177  0.2340 -0.0486
 1565PEP     CB58891   4.302  19.561   7.223 -0.0385 -0.1737  0.1331
 1565PEP     CB58892   4.423  19.217   7.421  0.1696 -0.0647  0.1615
 1565PEP     CB58893   4.311  18.779   7.547 -0.3942 -0.2586 -0.3288
 1565PEP     CB58894   4.297  18.333   7.778 -0.0545 -0.3556  0.0176
 1565PEP     CB58895   4.225  17.896   7.798 -0.0618  0.1367 -0.0332
 1565PEP     CB58896   4.417  17.464   7.860 -0.2842 -0.0866  0.3730
 1565PEP     CB58897   4.520  17.078   8.089 -0.0294  0.3050  0.0858
 1565PEP     CB58898   4.321  16.666   8.043  0.2793  0.1945  0.1634
 1565PEP     CB58899   4.019  16.414   7.880 -0.1086  0.3616  0.0344
 1565PEP     CB58900   3.593  16.362   7.823  0.2308 -0.0331  0.3149
 1565PEP     CB58901   3.164  16.445   7.811 -0.6914 -0.0268  0.2062
 1565PEP     CB58902   2.730  16.409   8.088 -0.3520  0.5942  0.0721
 1565PEP     CB58903   2.594  16.006   8.350  0.1380  0.1171  0.2338
 1565PEP     CB58904   2.880  15.663   8.346  0.1776  0.0447  0.0852
 1565PEP     CB58905   3.014  15.217   8.182 -0.1634  0.0674  0.1885
 1565PEP     CB58906   3.209  14.940   7.929 -0.2553 -0.0396  0.1638
 1565PEP     CB58907   3.533  14.842   7.813  0.3804  0.2372  0.1163
 1565PEP     CB58908   3.803  14.821   7.407 -0.2237  0.2609 -0.2113
 1565PEP     CB58909   3.716  15.082   7.022  0.1884  0.0084  0.1714
 1565PEP     CB58910   3.555  15.494   6.990 -0.0109 -0.0141  0.1208
 1565PEP     CB58911   3.480  15.720   7.313 -0.2183 -0.1952 -0.0364
 1565PEP     CB58912   3.671  15.781   7.670 -0.1069  0.1002  0.2475
 1565PEP     CB58913   3.876  15.787   8.218  0.0924 -0.1558 -0.3100
 1565PEP     CB58914   3.847  15.440   8.558 -0.1621 -0.1951 -0.0113
 1565PEP     CB58915   3.687  14.994   8.779 -0.2820  0.2208  0.3917
 1565PEP     CB58916   3.645  14.601   8.973 -0.2263  0.0800  0.4044
 1565PEP     CB58917   3.266  14.444   9.064  0.3407  0.1356  0.0024
 1565PEP     CB58918   2.920  14.743   9.145 -0.1873  0.1419 -0.0629
 1565PEP     CB58919   2.803  15.118   8.863  0.2590  0.0242  0.1969
 1565PEP     CB58920   2.579  15.530   8.743  0.1249  0.2995  0.1961
 1566PEP     CB58921  11.255   2.329  14.633  0.1284 -0.1654  0.0702
 1566PEP     CB58922  10.965   2.651  14.662 -0.3011 -0.0069 -0.1941
 1566PEP     CB58923  10.804   2.826  15.103 -0.1248 -0.2205  0.1150
 1566PEP     CB58924  10.703   2.630  15.460 -0.0668 -0.0502  0.0462
 1566PEP     CB58925  10.558   2.693  15.916  0.3996 -0.2812  0.0746
 1566PEP     CB58926  10.346   2.659  16.385  0.0468  0.1874 -0.1483
 1566PEP     CB58927  10.480   2.402  16.715 -0.3083  0.0883  0.2753
 1566PEP     CB58928  11.016   2.349  16.849  0.1651 -0.2088  0.1880
 1566PEP     CB58929  11.308   2.444  16.605 -0.1615 -0.5685 -0.0551
 1566PEP     CB58930  11.243   2.591  16.169 -0.2992 -0.2220 -0.3242
 1566PEP     CB58931  11.302   2.573  15.751  0.0830  0.4814 -0.2155
 1566PEP     CB58932  11.230   2.532  15.324  0.6276 -0.1166  0.0276
 1566PEP     CB58933  11.040   2.401  15.078  0.1406 -0.1193 -0.3182
 1566PEP     CB58934  11.053   2.005  14.832 -0.4496 -0.3703 -0.0139
 1566PEP     CB58935  10.896   1.571  14.750  0.2385  0.3690  0.3481
 1566PEP     CB58936  10.942   1.156  14.561 -0.4571  0.1079 -0.1338
 1566PEP     CB58937  11.233   0.865  14.508 -0.3958  0.0685  0.0991
 1566PEP     CB58938  11.394   0.463  14.387 -0.0269 -0.2845 -0.0261
 1566PEP     CB58939  11.475   0.060  14.463 -0.0096  0.0256 -0.1492
 1566PEP     CB58940  11.386  -0.290  14.168  0.1362  0.1248  0.5328
 1566PEP     CB58941  11.551  -0.284  13.814 -0.2631 -0.0823  0.0641
 1566PEP     CB58942  11.586   0.066  13.485  0.0065 -0.4743  0.0071
 1566PEP     CB58943  11.208   0.121  13.314  0.6452 -0.0763  0.2694
 1566PEP     CB58944  10.740   0.098  13.462 -0.0824 -0.1819 -0.2995
 1566PEP     CB58945  10.494   0.403  13.600  0.6797 -0.0172  0.2977
 1566PEP     CB58946  10.299   0.807  13.741 -0.1506  0.1397  0.3488
 1566PEP     CB58947  10.134   1.152  14.077  0.1931  0.0312 -0.1088
 1566PEP     CB58948   9.944   1.241  14.487  0.1406 -0.3205  0.0049
 1566PEP     CB58949  10.002   1.549  14.812 -0.4361  0.1391 -0.1495
 1566PEP     CB58950  10.168   1.808  15.218  0.0559 -0.1302  0.2042
 1566PEP     CB58951  10.076   1.937  15.584  0.2090  0.2544 -0.3040
 1566PEP     CB58952   9.730   2.134  15.925  0.2000  0.1495  0.1322
 1566PEP     CB58953   9.535   2.445  16.223 -0.0827  0.2215  0.0669
 1566PEP     CB58954   9.107   2.599  16.335 -0.1997  0.2066  0.1118
 1566PEP     CB58955   8.711   2.691  16.677  0.4440 -0.1413  0.2311
 1566PEP     CB58956   8.340   2.907  16.609  0.2899  0.2420 -0.0170
 1566PEP     CB58957   7.813   2.781  16.616  0.2069 -0.1566  0.0183
 1566PEP     CB58958   7.528   2.464  16.792  0.1503  0.0176 -0.0979
 1566PEP     CB58959   7.591   2.155  17.010  0.4735  0.0221  0.0960
 1566PEP     CB58960   7.874   2.042  17.407 -0.5870  0.0141 -0.2202
 1567PEP     CB58961  19.078   7.281  11.918  0.1534  0.2626 -0.0764
 1567PEP     CB58962  19.176   7.418  11.563  0.0749 -0.3260  0.0729
 1567PEP     CB58963  19.598   7.572  11.352  0.0475 -0.2444  0.3572
 1567PEP     CB58964  19.972   7.683  11.654 -0.0657 -0.1772  0.1722
 1567PEP     CB58965  20.320   7.443  11.820  0.3475 -0.1375  0.3336
 1567PEP     CB58966  20.170   7.063  11.869 -0.1603 -0.1818  0.2293
 1567PEP     CB58967  19.885   6.803  12.038  0.4938 -0.2680  0.0349
 1567PEP     CB58968  19.791   6.656  12.422  0.0574  0.0002  0.1798
 1567PEP     CB58969  19.689   6.654  12.865 -0.0843  0.4623  0.0601
 1567PEP     CB58970  19.865   6.692  13.236 -0.2523  0.1070 -0.1349
 1567PEP     CB58971  20.080   6.399  13.559 -0.1042 -0.1988  0.4898
 1567PEP     CB58972  20.403   6.234  13.603 -0.6430 -0.2871  0.1128
 1567PEP     CB58973  20.656   5.899  13.510 -0.1640  0.2857 -0.2002
 1567PEP     CB58974  20.890   5.814  13.146  0.2123 -0.2751 -0.1021
 1567PEP     CB58975  21.010   6.024  12.858 -0.2188  0.2975 -0.2968
 1567PEP     CB58976  21.053   6.214  12.435 -0.3526 -0.0013  0.0109
 1567PEP     CB58977  21.073   6.602  12.300 -0.0558 -0.1243 -0.2796
 1567PEP     CB58978  21.139   6.803  12.023 -0.2978  0.3785  0.0307
 1567PEP     CB58979  21.519   6.750  11.742 -0.0129  0.3840  0.1911
 1567PEP     CB58980  21.774   6.587  11.467 -0.0052 -0.0741 -0.3572
 1567PEP     CB58981  22.038   6.346  11.193 -0.1682  0.0778  0.0987
 1567PEP     CB58982  22.473   6.197  11.128 -0.1169 -0.1082 -0.1122
 1567PEP     CB58983  22.874   6.259  10.881 -0.2040  0.2856 -0.0818
 1567PEP     CB58984  23.271   6.171  10.819  0.0534 -0.0707  0.3744
 1567PEP     CB58985  23.434   5.768  10.635  0.1415 -0.1894  0.2458
 1567PEP     CB58986  23.179   5.390  10.422 -0.0424 -0.1203  0.2515
 1567PEP     CB58987  23.189   5.161  10.023  0.0870 -0.0015  0.2977
 1567PEP     CB58988  23.058   4.804   9.763 -0.1313  0.1052 -0.0623
 1567PEP     CB58989  22.819   4.759   9.500 -0.0874  0.1506  0.1322
 1567PEP     CB58990  22.661   4.802   9.062 -0.1238 -0.0652 -0.0842
 1567PEP     CB58991  22.625   5.075   8.718 -0.1003  0.3553 -0.5873
 1567PEP     CB58992  22.432   5.383   8.377 -0.1979 -0.0689  0.0870
 1567PEP     CB58993  22.524   5.783   8.201  0.2366 -0.2397  0.5071
 1567PEP     CB58994  22.888   5.947   8.174  0.3790  0.1666 -0.2406
 1567PEP     CB58995  23.301   5.814   8.274 -0.1290  0.2579 -0.3006
 1567PEP     CB58996  23.550   5.921   7.958  0.1105  0.1140 -0.2493
 1567PEP     CB58997  23.468   6.357   7.964  0.2187  0.2252 -0.2310
 1567PEP     CB58998  23.494   6.443   8.477  0.1725  0.1741  0.2843
 1567PEP     CB58999  23.737   6.135   8.699 -0.0077  0.1233  0.0741
 1567PEP     CB59000  24.130   6.021   8.620  0.1128  0.1469  0.1820
 1568PEP     CB59001   9.261  20.328  12.810  0.5073  0.1067 -0.3887
 1568PEP     CB59002   9.442  20.688  13.077  0.1569  0.1950  0.0157
 1568PEP     CB59003   9.628  20.708  13.477  0.0413  0.0812  0.0226
 1568PEP     CB59004   9.686  20.827  13.949 -0.4522 -0.0352  0.0143
 1568PEP     CB59005   9.551  20.916  14.383 -0.1292 -0.4395 -0.1629
 1568PEP     CB59006   9.328  20.709  14.620  0.0200  0.1540  0.5827
 1568PEP     CB59007   9.146  20.281  14.433 -0.1622  0.0679  0.1212
 1568PEP     CB59008   9.232  20.101  14.004  0.0366  0.1987  0.0811
 1568PEP     CB59009   9.316  20.364  13.730  0.2465  0.1803  0.2728
 1568PEP     CB59010   9.221  20.798  13.858  0.1349 -0.2284  0.0107
 1568PEP     CB59011   8.899  21.110  13.727 -0.0054 -0.3994  0.1246
 1568PEP     CB59012   8.734  21.456  13.576  0.0414  0.2307 -0.1008
 1568PEP     CB59013   8.682  21.923  13.589 -0.1129 -0.2859  0.3085
 1568PEP     CB59014   8.475  22.195  13.692 -0.0758 -0.1166 -0.3653
 1568PEP     CB59015   8.244  22.510  13.852  0.2153 -0.3179  0.3848
 1568PEP     CB59016   8.209  22.949  13.782  0.2705  0.1583  0.0082
 1568PEP     CB59017   7.997  23.319  13.684 -0.4356 -0.1825  0.5178
 1568PEP     CB59018   7.868  23.654  13.646 -0.0969  0.6128 -0.0745
 1568PEP     CB59019   8.136  23.983  13.463  0.0072 -0.0254  0.1379
 1568PEP     CB59020   8.492  24.067  13.352  0.0236 -0.0759 -0.1200
 1568PEP     CB59021   8.741  23.940  13.031 -0.0905 -0.0267 -0.0430
 1568PEP     CB59022   9.177  23.925  12.842  0.3038 -0.3039  0.0867
 1568PEP     CB59023   9.483  23.960  12.528  0.1962  0.2769  0.0953
 1568PEP     CB59024   9.932  24.055  12.261  0.1144  0.1335 -0.0398
 1568PEP     CB59025  10.187  24.104  11.924 -0.1999  0.1393 -0.0619
 1568PEP     CB59026  10.234  24.381  11.484  0.1450 -0.1026 -0.0225
 1568PEP     CB59027  10.512  24.652  11.227  0.1625  0.4666  0.0560
 1568PEP     CB59028  10.713  24.766  10.780 -0.1653  0.0683  0.2243
 1568PEP     CB59029  11.041  24.976  10.618 -0.2577  0.0433  0.2142
 1568PEP     CB59030  11.246  25.218  10.947  0.1522 -0.1084 -0.2543
 1568PEP     CB59031  11.301  25.052  11.327 -0.0714 -0.1096 -0.0054
 1568PEP     CB59032  11.408  24.885  11.746  0.3025 -0.0989  0.2712
 1568PEP     CB59033  11.679  24.796  12.067 -0.0426 -0.0042  0.2934
 1568PEP     CB59034  12.052  24.708  12.354  0.0673 -0.1594 -0.3018
 1568PEP     CB59035  12.484  24.685  12.632 -0.5508  0.3980 -0.0784
 1568PEP     CB59036  12.726  24.379  12.819  0.1328 -0.2149 -0.3460
 1568PEP     CB59037  13.100  24.198  13.097 -0.3151  0.2857  0.1267
 1568PEP     CB59038  13.514  24.216  13.314 -0.1423  0.4064 -0.0033
 1568PEP     CB59039  13.790  24.141  13.616  0.2762  0.3438 -0.0190
 1568PEP     CB59040  13.770  24.146  14.053  0.2452 -0.2548  0.2570
 1569PEP     CB59041   1.128   8.141  15.054  0.0171 -0.0770 -0.1764
 1569PEP     CB59042   0.875   8.251  14.636 -0.0550 -0.4459 -0.1938
 1569PEP     CB59043   0.993   8.302  14.214  0.1367  0.4193  0.1284
 1569PEP     CB59044   1.010   8.104  13.901  0.0792  0.5585  0.0164
 1569PEP     CB59045   1.227   7.801  13.642 -0.0002 -0.2455  0.2202
 1569PEP     CB59046   1.455   7.404  13.689 -0.1906  0.3405 -0.1839
 1569PEP     CB59047   1.765   7.262  13.912 -0.0630 -0.2799 -0.2299
 1569PEP     CB59048   1.987   7.544  14.143  0.0119 -0.2692  0.2638
 1569PEP     CB59049   2.013   8.019  14.084 -0.2362 -0.1683  0.1563
 1569PEP     CB59050   2.223   8.413  13.890 -0.5218 -0.0222 -0.1026
 1569PEP     CB59051   2.402   8.830  13.856 -0.0024  0.0294 -0.1500
 1569PEP     CB59052   2.718   9.102  13.998  0.0074 -0.2009 -0.2352
 1569PEP     CB59053   3.014   9.028  14.222 -0.0397 -0.0148  0.0124
 1569PEP     CB59054   3.243   8.681  14.248 -0.0729  0.0939  0.1598
 1569PEP     CB59055   3.511   8.395  14.091  0.0727 -0.1171 -0.3338
 1569PEP     CB59056   3.810   8.124  14.144 -0.1258  0.1984  0.5098
 1569PEP     CB59057   4.038   7.727  13.956  0.2158 -0.0739  0.2460
 1569PEP     CB59058   4.326   7.354  13.807  0.4718 -0.2914  0.1262
 1569PEP     CB59059   4.507   6.926  13.936 -0.1836  0.3145  0.0886
 1569PEP     CB59060   4.738   6.578  13.999  0.2319 -0.2203 -0.2053
 1569PEP     CB59061   4.552   6.188  14.258 -0.3715 -0.1059 -0.0790
 1569PEP     CB59062   4.603   5.752  14.523  0.0444  0.0136  0.0936
 1569PEP     CB59063   4.661   5.503  14.739 -0.0941  0.0418 -0.0819
 1569PEP     CB59064   4.435   5.174  14.755 -0.3614 -0.0600 -0.2031
 1569PEP     CB59065   4.416   4.901  14.392 -0.1352 -0.4000  0.1194
 1569PEP     CB59066   4.093   4.616  14.217  0.0159 -0.3396  0.6591
 1569PEP     CB59067   3.921   4.219  14.334 -0.2034  0.0528  0.2376
 1569PEP     CB59068   4.082   4.035  14.714 -0.1472  0.1079  0.4028
 1569PEP     CB59069   4.468   4.174  14.959 -0.1472  0.0867  0.4653
 1569PEP     CB59070   4.740   3.888  15.235  0.1635  0.1000  0.1077
 1569PEP     CB59071   4.872   3.641  15.498 -0.4388  0.3732 -0.0513
 1569PEP     CB59072   4.941   3.388  15.880  0.0896  0.2656  0.0799
 1569PEP     CB59073   5.095   2.912  16.016 -0.0601 -0.0014 -0.0725
 1569PEP     CB59074   5.223   2.481  16.221 -0.0702  0.1675 -0.0670
 1569PEP     CB59075   5.256   2.411  16.672 -0.5078 -0.0911 -0.1671
 1569PEP     CB59076   5.488   2.308  17.091  0.2115  0.2008  0.0660
 1569PEP     CB59077   5.649   2.379  17.547  0.0509  0.1980  0.1033
 1569PEP     CB59078   5.913   2.148  17.927 -0.3848 -0.3232  0.0254
 1569PEP     CB59079   6.132   1.827  18.168  0.0190  0.1705  0.1367
 1569PEP     CB59080   6.418   1.560  18.236 -0.0739 -0.0787 -0.2758
 1570PEP     CB59081   2.945  21.898  10.732  0.1616  0.0075 -0.2030
 1570PEP     CB59082   2.507  22.075  10.698  0.0384  0.2839  0.1340
 1570PEP     CB59083   2.166  21.971  10.812  0.2291  0.1249 -0.1089
 1570PEP     CB59084   1.853  21.783  10.628 -0.4923  0.2381  0.1291
 1570PEP     CB59085   1.453  21.680  10.462  0.0541 -0.2440 -0.1790
 1570PEP     CB59086   1.092  21.569  10.228  0.4573  0.2334 -0.1175
 1570PEP     CB59087   0.856  21.811   9.872  0.0679 -0.1509 -0.0768
 1570PEP     CB59088   0.984  22.250   9.667 -0.2988  0.0986  0.0066
 1570PEP     CB59089   1.419  22.465   9.845 -0.1185 -0.1498 -0.0978
 1570PEP     CB59090   1.860  22.428   9.893  0.1338 -0.0606  0.2261
 1570PEP     CB59091   2.081  22.204   9.593  0.3100 -0.0049 -0.1824
 1570PEP     CB59092   2.032  22.090   9.091 -0.3632 -0.2633  0.4337
 1570PEP     CB59093   1.842  21.735   8.838 -0.0172 -0.0553  0.1648
 1570PEP     CB59094   1.430  21.633   8.751  0.4073  0.0097 -0.0504
 1570PEP     CB59095   1.214  21.181   8.723  0.0053 -0.1080  0.0648
 1570PEP     CB59096   0.793  20.999   8.983 -0.2697  0.2583 -0.1630
 1570PEP     CB59097   0.403  20.964   8.755 -0.3130 -0.2284 -0.1067
 1570PEP     CB59098   0.244  20.725   8.361 -0.0741 -0.0578  0.2418
 1570PEP     CB59099   0.117  20.988   8.136  0.2881 -0.1248 -0.2243
 1570PEP     CB59100  -0.040  21.296   8.366 -0.2387 -0.0730  0.0860
 1570PEP     CB59101   0.141  21.420   8.713  0.2069  0.0938  0.0411
 1570PEP     CB59102   0.388  21.789   8.869  0.1098  0.1324  0.1911
 1570PEP     CB59103   0.663  22.075   8.753  0.3196  0.1935  0.4416
 1570PEP     CB59104   0.806  22.522   8.803 -0.0184 -0.2508 -0.0213
 1570PEP     CB59105   1.038  22.902   8.834 -0.3357  0.2612  0.0502
 1570PEP     CB59106   1.483  23.051   8.979 -0.4098 -0.0980  0.2695
 1570PEP     CB59107   1.866  23.182   9.213 -0.0433 -0.3742  0.0464
 1570PEP     CB59108   2.063  23.564   9.465 -0.3804  0.0242  0.3460
 1570PEP     CB59109   2.186  24.007   9.694 -0.0648 -0.5217  0.0456
 1570PEP     CB59110   1.885  24.324   9.877  0.2364 -0.0392 -0.3256
 1570PEP     CB59111   1.493  24.553   9.644 -0.2428  0.0257  0.2232
 1570PEP     CB59112   1.042  24.699   9.712 -0.3053  0.2576 -0.2075
 1570PEP     CB59113   0.764  24.558   9.980  0.0064  0.5586 -0.0264
 1570PEP     CB59114   0.567  24.521  10.352  0.1626 -0.1399  0.4749
 1570PEP     CB59115   0.390  24.434  10.762  0.0018 -0.2006  0.2163
 1570PEP     CB59116   0.404  24.568  11.209 -0.1676  0.4551 -0.1148
 1570PEP     CB59117   0.523  24.416  11.644  0.7482  0.1571 -0.2008
 1570PEP     CB59118   0.476  24.441  12.091  0.3241 -0.1830 -0.0834
 1570PEP     CB59119   0.675  24.427  12.537  0.2115 -0.0807  0.0990
 1570PEP     CB59120   1.009  24.538  12.705 -0.1173  0.0183 -0.1416
 1571PEP     CB59121   6.608  16.654  18.386  0.0391  0.2140  0.1894
 1571PEP     CB59122   6.728  16.235  18.517 -0.2704  0.1675  0.0804
 1571PEP     CB59123   6.657  15.788  18.697 -0.1017  0.1278  0.1999
 1571PEP     CB59124   6.403  15.465  18.820 -0.1364 -0.0507 -0.0085
 1571PEP     CB59125   5.976  15.242  18.600 -0.0537 -0.3140  0.0448
 1571PEP     CB59126   5.783  15.112  18.294  0.0156  0.3354  0.3099
 1571PEP     CB59127   5.657  15.076  17.817 -0.2914 -0.2619 -0.2104
 1571PEP     CB59128   5.619  15.381  17.397 -0.0758  0.0970  0.2746
 1571PEP     CB59129   5.513  15.857  17.378 -0.1615  0.1445 -0.1432
 1571PEP     CB59130   5.162  16.041  17.617  0.2688  0.3766  0.2770
 1571PEP     CB59131   4.831  15.764  17.798 -0.0009  0.0757 -0.3265
 1571PEP     CB59132   4.526  15.652  18.018  0.1386  0.0284  0.1154
 1571PEP     CB59133   4.205  15.328  18.146  0.1690  0.1236 -0.1061
 1571PEP     CB59134   3.993  15.019  18.216 -0.0384  0.1046 -0.1813
 1571PEP     CB59135   3.947  14.547  17.900 -0.0732  0.0715  0.1021
 1571PEP     CB59136   3.826  14.377  17.576  0.2650  0.1087 -0.1421
 1571PEP     CB59137   3.597  14.422  17.157 -0.3681  0.0025  0.0211
 1571PEP     CB59138   3.686  14.370  16.761 -0.3218  0.3048 -0.1967
 1571PEP     CB59139   3.641  14.153  16.297 -0.2309 -0.0981 -0.0101
 1571PEP     CB59140   3.917  13.797  16.127 -0.1571  0.0290  0.2472
 1571PEP     CB59141   4.346  13.899  16.105 -0.3355  0.3229 -0.1532
 1571PEP     CB59142   4.525  14.177  15.912  0.2327 -0.0169  0.3228
 1571PEP     CB59143   4.538  14.616  15.833 -0.1082  0.2343 -0.1830
 1571PEP     CB59144   4.611  14.999  15.628  0.1716 -0.0367 -0.1247
 1571PEP     CB59145   4.338  15.407  15.396  0.0027  0.0337  0.1303
 1571PEP     CB59146   4.410  15.822  15.190  0.1886 -0.2356 -0.0761
 1571PEP     CB59147   4.442  16.172  14.883  0.1364 -0.0575  0.0032
 1571PEP     CB59148   4.817  16.323  14.631  0.2692 -0.0829  0.1024
 1571PEP     CB59149   5.039  16.683  14.784  0.2584  0.2901  0.1908
 1571PEP     CB59150   5.413  17.070  14.777  0.2659 -0.1394 -0.4115
 1571PEP     CB59151   5.841  16.988  14.654 -0.0298  0.3161 -0.5169
 1571PEP     CB59152   6.178  16.832  14.894  0.1373  0.0123  0.2882
 1571PEP     CB59153   6.516  17.108  15.053 -0.3882  0.2576 -0.3898
 1571PEP     CB59154   6.707  17.535  14.939 -0.1522 -0.2607 -0.4076
 1571PEP     CB59155   6.634  17.729  14.485  0.1042 -0.1855  0.2659
 1571PEP     CB59156   6.472  17.489  14.208 -0.0586 -0.1425  0.0808
 1571PEP     CB59157   6.192  17.282  13.935 -0.1012 -0.4234  0.0878
 1571PEP     CB59158   6.066  17.116  13.463 -0.0383 -0.2746 -0.1444
 1571PEP     CB59159   5.948  16.676  13.291 -0.2070 -0.4445  0.5411
 1571PEP     CB59160   5.744  16.290  13.432 -0.0326 -0.0894 -0.0718
 1572PEP     CB59161   4.856  16.994   5.787  0.4768  0.1541  0.0224
 1572PEP     CB59162   4.544  16.817   6.105  0.0949  0.4132 -0.3753
 1572PEP     CB59163   4.764  16.670   6.486 -0.1668  0.3407  0.1881
 1572PEP     CB59164   5.088  16.470   6.743  0.0249  0.1785  0.3182
 1572PEP     CB59165   5.056  16.057   6.846 -0.2203 -0.2708  0.0164
 1572PEP     CB59166   5.000  15.721   6.595  0.0070 -0.3837  0.1183
 1572PEP     CB59167   5.120  15.551   6.266  0.1603 -0.2165 -0.2276
 1572PEP     CB59168   5.337  15.729   5.911  0.0495  0.1450 -0.2744
 1572PEP     CB59169   5.444  15.581   5.443  0.0905 -0.1148 -0.1404
 1572PEP     CB59170   5.699  15.332   5.122 -0.2068  0.0826 -0.1913
 1572PEP     CB59171   6.126  15.302   4.918 -0.2951 -0.0431  0.0303
 1572PEP     CB59172   6.604  15.156   4.943  0.1633  0.0437 -0.3842
 1572PEP     CB59173   6.954  14.965   4.830  0.3518  0.2432  0.3837
 1572PEP     CB59174   7.267  14.767   4.689  0.0111  0.2496  0.2272
 1572PEP     CB59175   7.736  14.790   4.658  0.0029  0.0200 -0.3261
 1572PEP     CB59176   8.063  14.605   5.036  0.3276 -0.2235 -0.1864
 1572PEP     CB59177   8.394  14.490   5.307  0.1756  0.4346  0.1449
 1572PEP     CB59178   8.443  14.379   5.704  0.1504 -0.0519  0.0511
 1572PEP     CB59179   8.311  14.217   6.046  0.1281 -0.2900  0.0313
 1572PEP     CB59180   8.346  13.929   6.409  0.2364  0.0999  0.1572
 1572PEP     CB59181   8.178  13.730   6.775 -0.0744 -0.1512  0.0687
 1572PEP     CB59182   8.227  13.359   7.059  0.4579  0.2761  0.0649
 1572PEP     CB59183   8.545  13.070   6.935  0.0321  0.1605 -0.0852
 1572PEP     CB59184   8.802  12.854   6.531 -0.1198  0.0723 -0.2689
 1572PEP     CB59185   8.905  12.497   6.360 -0.1240 -0.0973  0.3888
 1572PEP     CB59186   9.091  12.156   6.100  0.2610  0.1910 -0.1663
 1572PEP     CB59187   9.498  12.004   6.167 -0.1778  0.3378 -0.1067
 1572PEP     CB59188   9.677  11.591   6.139  0.2418  0.1022  0.2361
 1572PEP     CB59189   9.509  11.361   5.751 -0.2089 -0.1556 -0.3143
 1572PEP     CB59190   9.333  11.078   5.707 -0.2457 -0.1449 -0.0430
 1572PEP     CB59191   9.410  10.782   5.316  0.0384 -0.0340  0.1276
 1572PEP     CB59192   9.596  10.917   4.933  0.2402 -0.1641  0.1685
 1572PEP     CB59193   9.569  11.329   4.723 -0.1598  0.5672 -0.2589
 1572PEP     CB59194   9.307  11.559   4.648  0.0865 -0.1376  0.5207
 1572PEP     CB59195   8.905  11.403   4.506 -0.0046  0.0897  0.5254
 1572PEP     CB59196   8.738  10.870   4.465  0.0414  0.4623 -0.0466
 1572PEP     CB59197   8.812  10.392   4.695  0.1932 -0.1199  0.0070
 1572PEP     CB59198   9.157  10.124   4.871 -0.2474 -0.3648  0.0650
 1572PEP     CB59199   9.407   9.862   5.122 -0.0842 -0.1396 -0.1409
 1572PEP     CB59200   9.597   9.751   5.493  0.2113  0.0203 -0.3464
 1573PEP     CB59201  21.583  19.518  17.894  0.0331 -0.0049  0.1906
 1573PEP     CB59202  21.508  19.902  17.771  0.1116  0.0473 -0.1850
 1573PEP     CB59203  21.567  20.385  17.715  0.5239  0.1260  0.0898
 1573PEP     CB59204  21.511  20.702  17.443  0.0218  0.0684 -0.2132
 1573PEP     CB59205  21.864  20.863  17.179 -0.4805 -0.5507 -0.0288
 1573PEP     CB59206  22.029  21.223  17.050 -0.1466  0.1909  0.0058
 1573PEP     CB59207  22.128  21.539  17.124  0.0197 -0.0554 -0.1136
 1573PEP     CB59208  22.476  21.857  17.135  0.1860 -0.3215  0.3635
 1573PEP     CB59209  22.734  22.103  16.924 -0.0158  0.1911 -0.0044
 1573PEP     CB59210  23.045  22.127  16.619  0.0352 -0.2623 -0.4989
 1573PEP     CB59211  23.162  22.326  16.302 -0.0213  0.2085  0.0043
 1573PEP     CB59212  23.181  22.702  16.175 -0.2096  0.0608 -0.0666
 1573PEP     CB59213  23.197  23.178  16.205 -0.2108  0.5331  0.2117
 1573PEP     CB59214  23.101  23.650  16.295 -0.6577  0.1256 -0.2463
 1573PEP     CB59215  23.017  24.001  16.565 -0.0837 -0.0746  0.3343
 1573PEP     CB59216  22.904  24.179  16.935 -0.1275 -0.0713  0.0773
 1573PEP     CB59217  22.883  24.196  17.419  0.1085 -0.3599 -0.1223
 1573PEP     CB59218  22.699  24.075  17.769 -0.3652 -0.0837  0.0131
 1573PEP     CB59219  22.394  24.373  18.079 -0.0608  0.0402 -0.2264
 1573PEP     CB59220  22.182  24.707  18.244 -0.0450  0.3395 -0.0377
 1573PEP     CB59221  22.023  24.937  18.557 -0.4624  0.2714 -0.4195
 1573PEP     CB59222  21.927  25.337  18.567  0.2220  0.2458 -0.0014
 1573PEP     CB59223  21.676  25.637  18.468 -0.0442  0.1326 -0.4284
 1573PEP     CB59224  21.474  25.796  18.324  0.4460 -0.1943  0.1023
 1573PEP     CB59225  21.421  26.331  18.231 -0.2036 -0.1833 -0.0842
 1573PEP     CB59226  21.317  26.897  18.142 -0.0266  0.1625  0.2072
 1573PEP     CB59227  21.099  27.218  17.975  0.1647 -0.2385 -0.1864
 1573PEP     CB59228  20.778  27.338  17.714 -0.1602  0.2071 -0.2864
 1573PEP     CB59229  20.447  27.612  17.808 -0.1048 -0.0313 -0.1570
 1573PEP     CB59230  20.430  28.056  17.919  0.3192 -0.4114  0.0974
 1573PEP     CB59231  20.694  28.366  17.901  0.1415 -0.5784  0.1632
 1573PEP     CB59232  21.152  28.438  17.821  0.2056 -0.6928 -0.1310
 1573PEP     CB59233  21.488  28.337  17.779  0.0270 -0.0433  0.1162
 1573PEP     CB59234  21.862  28.623  17.662  0.3037  0.2935 -0.2066
 1573PEP     CB59235  22.256  28.646  17.750  0.0008 -0.3279  0.3853
 1573PEP     CB59236  22.599  28.697  18.048 -0.1077 -0.0005  0.0497
 1573PEP     CB59237  22.878  28.469  18.327  0.5528  0.0826 -0.0576
 1573PEP     CB59238  22.966  28.169  18.679  0.3811  0.1681 -0.2995
 1573PEP     CB59239  22.876  27.973  19.071  0.1432  0.3231 -0.3295
 1573PEP     CB59240  22.795  27.593  19.195  0.0631  0.3493  0.3894
 1574PEP     CB59241  12.458  17.987   8.672 -0.3940 -0.2227  0.0464
 1574PEP     CB59242  12.669  18.001   9.110  0.4019 -0.2506 -0.3058
 1574PEP     CB59243  12.828  18.245   9.449  0.0606  0.0203  0.1720
 1574PEP     CB59244  12.752  18.413   9.778  0.3905  0.2800  0.1335
 1574PEP     CB59245  12.379  18.637   9.787 -0.1963  0.4994  0.2726
 1574PEP     CB59246  12.145  18.584   9.327  0.1256 -0.1875  0.1945
 1574PEP     CB59247  12.197  18.400   8.882 -0.1537  0.2812 -0.0204
 1574PEP     CB59248  12.075  18.427   8.396  0.0151 -0.3358  0.7779
 1574PEP     CB59249  11.984  18.318   8.064  0.1657 -0.1104 -0.0855
 1574PEP     CB59250  11.699  17.976   7.950 -0.3726 -0.2616  0.0884
 1574PEP     CB59251  11.552  17.790   8.315 -0.6151 -0.4208 -0.1476
 1574PEP     CB59252  11.523  17.318   8.431  0.1155  0.2402  0.1346
 1574PEP     CB59253  11.755  16.964   8.093  0.2137  0.1432  0.2684
 1574PEP     CB59254  11.980  16.952   7.653 -0.0729  0.0635  0.0069
 1574PEP     CB59255  12.014  17.199   7.340 -0.1405 -0.5651  0.2985
 1574PEP     CB59256  11.940  17.230   6.837  0.1709 -0.1427 -0.7494
 1574PEP     CB59257  11.533  17.025   6.767  0.0487 -0.0524 -0.0455
 1574PEP     CB59258  11.271  16.978   7.233  0.1096  0.2617  0.0663
 1574PEP     CB59259  11.476  17.252   7.562 -0.0635 -0.1811  0.5845
 1574PEP     CB59260  11.593  17.607   7.506  0.1515 -0.0064 -0.3077
 1574PEP     CB59261  11.584  18.002   7.227 -0.0180 -0.1980 -0.0626
 1574PEP     CB59262  11.660  18.371   7.026 -0.0810  0.1806  0.0259
 1574PEP     CB59263  11.468  18.762   7.035  0.5154  0.1599 -0.0767
 1574PEP     CB59264  11.088  18.924   6.975  0.0103  0.2716  0.4393
 1574PEP     CB59265  10.825  18.837   6.736  0.2381 -0.0224 -0.1050
 1574PEP     CB59266  10.663  18.778   6.302 -0.3136  0.0629  0.2635
 1574PEP     CB59267  10.708  18.980   5.965 -0.1286  0.2937  0.0083
 1574PEP     CB59268  11.056  19.194   5.755  0.5143 -0.1384  0.1784
 1574PEP     CB59269  11.363  19.561   5.765 -0.1406 -0.0325 -0.2168
 1574PEP     CB59270  11.823  19.527   5.746  0.1932  0.3346 -0.2566
 1574PEP     CB59271  12.107  19.243   5.707  0.2953  0.0909  0.1520
 1574PEP     CB59272  12.378  18.960   6.004 -0.1913 -0.0527  0.3975
 1574PEP     CB59273  12.628  18.601   5.917  0.0714 -0.5736 -0.2332
 1574PEP     CB59274  13.066  18.385   5.785 -0.0823 -0.0124 -0.1443
 1574PEP     CB59275  13.432  18.139   5.641  0.1226 -0.1569  0.1413
 1574PEP     CB59276  13.747  17.848   5.817 -0.0729 -0.0203 -0.1292
 1574PEP     CB59277  14.064  17.610   6.102 -0.0696 -0.0508  0.0578
 1574PEP     CB59278  14.413  17.641   6.187  0.2537  0.2201 -0.0451
 1574PEP     CB59279  14.650  17.706   5.813  0.0224 -0.5862  0.1541
 1574PEP     CB59280  14.963  17.859   5.615 -0.3309 -0.3214  0.3958
 1575PEP     CB59281  18.131   6.753  21.705 -0.2621  0.0593 -0.0201
 1575PEP     CB59282  18.153   6.476  21.386 -0.0531 -0.0993 -0.0325
 1575PEP     CB59283  18.461   6.176  21.452 -0.2294  0.0988  0.0825
 1575PEP     CB59284  18.836   6.236  21.811 -0.1411 -0.1604  0.1068
 1575PEP     CB59285  18.955   6.554  21.947 -0.0533  0.0745 -0.0870
 1575PEP     CB59286  19.314   6.879  22.142 -0.0737  0.1408  0.1690
 1575PEP     CB59287  19.669   6.944  22.350  0.1042  0.2782  0.1664
 1575PEP     CB59288  19.782   7.165  22.725 -0.0786 -0.2070 -0.3465
 1575PEP     CB59289  19.637   7.167  23.109  0.0521 -0.2490 -0.1185
 1575PEP     CB59290  19.702   6.892  23.405  0.0693  0.2182 -0.6404
 1575PEP     CB59291  20.089   6.954  23.686  0.0884  0.0957 -0.0790
 1575PEP     CB59292  20.417   7.263  23.799 -0.3798  0.2436 -0.1574
 1575PEP     CB59293  20.828   7.234  23.903 -0.1712 -0.2083  0.1453
 1575PEP     CB59294  21.218   7.058  24.039 -0.1523  0.2694 -0.0782
 1575PEP     CB59295  21.520   6.788  23.835 -0.0682  0.1588 -0.5195
 1575PEP     CB59296  21.744   6.497  23.621  0.2109  0.5446  0.1163
 1575PEP     CB59297  22.216   6.352  23.802 -0.2879 -0.1985 -0.2282
 1575PEP     CB59298  22.387   6.656  24.147 -0.0532  0.0691  0.3286
 1575PEP     CB59299  22.289   7.109  24.229 -0.3472 -0.3407 -0.4654
 1575PEP     CB59300  22.093   7.504  24.377  0.0415  0.1610  0.2861
 1575PEP     CB59301  21.855   7.766  24.602  0.3217  0.3965 -0.2742
 1575PEP     CB59302  21.366   7.864  24.587 -0.0150  0.1953  0.4436
 1575PEP     CB59303  20.918   7.613  24.759  0.4884  0.1724 -0.5297
 1575PEP     CB59304  20.638   7.574  25.078 -0.4942  0.1524 -0.0971
 1575PEP     CB59305  20.452   7.401  25.441  0.0798 -0.0876  0.0687
 1575PEP     CB59306  20.451   7.067  25.736  0.1037 -0.1694 -0.1450
 1575PEP     CB59307  20.632   6.663  25.817 -0.2320  0.2919 -0.0194
 1575PEP     CB59308  20.979   6.334  25.954 -0.2471 -0.4544 -0.0898
 1575PEP     CB59309  20.958   6.097  26.352  0.5251 -0.3170  0.2241
 1575PEP     CB59310  20.848   5.855  26.704  0.2243 -0.1647 -0.4658
 1575PEP     CB59311  20.879   5.503  26.928  0.0989 -0.0928 -0.1467
 1575PEP     CB59312  21.148   5.267  27.246  0.1806  0.3352 -0.2299
 1575PEP     CB59313  21.544   5.111  27.128  0.1979  0.1852  0.4869
 1575PEP     CB59314  21.860   5.359  26.844  0.3474  0.2902  0.1696
 1575PEP     CB59315  21.809   5.806  26.612  0.1607 -0.1336  0.0283
 1575PEP     CB59316  21.882   6.212  26.872 -0.0502  0.0385 -0.0017
 1575PEP     CB59317  21.624   6.235  27.255 -0.0759 -0.0420 -0.0364
 1575PEP     CB59318  21.542   6.029  27.608 -0.2305 -0.3518  0.1809
 1575PEP     CB59319  21.741   5.603  27.774 -0.0261 -0.2857  0.1934
 1575PEP     CB59320  22.018   5.385  28.157  0.3735  0.2201  0.0676
 1576PEP     CB59321   8.547   6.084   1.300 -0.0386 -0.7257  0.0824
 1576PEP     CB59322   8.595   5.635   1.335  0.2362 -0.3501  0.0497
 1576PEP     CB59323   8.883   5.467   1.596 -0.0468  0.2277  0.2844
 1576PEP     CB59324   8.782   5.392   1.990  0.4614  0.0724 -0.2052
 1576PEP     CB59325   8.389   5.709   2.138  0.3514  0.2371  0.2505
 1576PEP     CB59326   8.037   5.996   1.969  0.0765 -0.1848  0.0002
 1576PEP     CB59327   7.654   6.215   2.021 -0.0927  0.6062 -0.1008
 1576PEP     CB59328   7.276   6.311   1.757 -0.2372  0.1726  0.0992
 1576PEP     CB59329   7.168   6.259   1.283 -0.0802 -0.1472 -0.3470
 1576PEP     CB59330   7.031   6.336   0.881  0.3447 -0.4810 -0.0240
 1576PEP     CB59331   6.966   6.440   0.442  0.0268 -0.1816 -0.0360
 1576PEP     CB59332   7.086   6.289   0.089  0.3172  0.0208  0.3802
 1576PEP     CB59333   6.971   6.320  -0.346 -0.2402 -0.0784 -0.2896
 1576PEP     CB59334   6.642   6.591  -0.484 -0.0248 -0.2149 -0.2959
 1576PEP     CB59335   6.359   6.874  -0.255  0.0616  0.0279  0.0483
 1576PEP     CB59336   6.374   7.355  -0.218 -0.3567 -0.4453 -0.1189
 1576PEP     CB59337   6.511   7.663  -0.512 -0.3037  0.1319  0.0622
 1576PEP     CB59338   6.353   7.667  -0.943 -0.1930 -0.5040 -0.1348
 1576PEP     CB59339   6.164   7.273  -1.164  0.0436  0.1831 -0.3459
 1576PEP     CB59340   5.747   7.160  -1.210 -0.1248  0.0518  0.0798
 1576PEP     CB59341   5.247   7.266  -1.241 -0.0405 -0.0094 -0.1963
 1576PEP     CB59342   4.746   7.352  -1.354  0.3935  0.0220  0.2043
 1576PEP     CB59343   4.242   7.301  -1.321  0.3114  0.0205  0.1177
 1576PEP     CB59344   3.822   7.233  -1.259  0.1387 -0.0956  0.0624
 1576PEP     CB59345   3.452   7.331  -1.432 -0.3832  0.3855  0.0549
 1576PEP     CB59346   2.987   7.443  -1.536  0.2738  0.2150 -0.2495
 1576PEP     CB59347   2.745   7.840  -1.607  0.0722  0.0143  0.2712
 1576PEP     CB59348   2.887   8.254  -1.702  0.1463 -0.1193  0.0184
 1576PEP     CB59349   3.073   8.538  -1.496  0.2637  0.0517 -0.1826
 1576PEP     CB59350   3.208   8.693  -1.086  0.0792 -0.2212 -0.0218
 1576PEP     CB59351   3.376   8.953  -0.733  0.3099 -0.1227  0.1620
 1576PEP     CB59352   3.523   9.118  -0.415  0.3637  0.0407  0.1005
 1576PEP     CB59353   3.791   9.475  -0.423  0.0249  0.0428 -0.0426
 1576PEP     CB59354   4.238   9.639  -0.497  0.4132  0.1306  0.3447
 1576PEP     CB59355   4.510   9.789  -0.456  0.0403  0.1288 -0.3424
 1576PEP     CB59356   4.914   9.851  -0.504 -0.0106  0.3299 -0.2512
 1576PEP     CB59357   5.312   9.924  -0.658  0.0769  0.1312  0.0500
 1576PEP     CB59358   5.688   9.963  -0.888 -0.0103 -0.0092 -0.1073
 1576PEP     CB59359   6.102   9.874  -0.802  0.2158 -0.2085  0.3207
 1576PEP     CB59360   6.500   9.682  -0.582  0.4340 -0.0718 -0.2146
 1577PEP     CB59361  13.883  20.931   6.137 -0.2903 -0.1022  0.1073
 1577PEP     CB59362  14.134  21.289   6.184 -0.0126 -0.1422  0.1198
 1577PEP     CB59363  14.340  21.591   6.404  0.2868  0.1835  0.3554
 1577PEP     CB59364  14.258  21.992   6.643  0.1099  0.0959  0.0395
 1577PEP     CB59365  14.080  21.898   6.988 -0.2579 -0.1135 -0.3963
 1577PEP     CB59366  13.954  21.522   7.109 -0.1875  0.1779  0.0750
 1577PEP     CB59367  13.909  21.040   7.162 -0.2732 -0.1492  0.0325
 1577PEP     CB59368  13.680  20.624   7.274 -0.1868 -0.0756 -0.0287
 1577PEP     CB59369  13.750  20.154   7.392  0.2239  0.0342  0.3380
 1577PEP     CB59370  13.756  19.852   7.069 -0.3426 -0.1939  0.1365
 1577PEP     CB59371  14.005  19.595   6.881  0.2243 -0.2107  0.3405
 1577PEP     CB59372  14.187  19.230   7.078  0.1060  0.0439  0.3299
 1577PEP     CB59373  14.112  19.042   7.468  0.1714  0.0904  0.0931
 1577PEP     CB59374  13.809  18.999   7.811  0.1458  0.1712 -0.1483
 1577PEP     CB59375  13.346  19.027   7.769  0.0414  0.2159 -0.3333
 1577PEP     CB59376  13.112  18.675   7.688 -0.0379 -0.4459  0.0436
 1577PEP     CB59377  12.903  18.443   7.828 -0.0035  0.0367  0.0697
 1577PEP     CB59378  12.504  18.297   7.827  0.0568  0.0459  0.0507
 1577PEP     CB59379  12.333  18.016   8.049 -0.1861  0.2304 -0.3079
 1577PEP     CB59380  12.070  17.853   8.251 -0.0541  0.0938 -0.1573
 1577PEP     CB59381  11.996  17.837   8.638 -0.2358 -0.1322 -0.0963
 1577PEP     CB59382  12.070  17.916   9.135  0.2742 -0.3171 -0.0510
 1577PEP     CB59383  12.261  17.998   9.508 -0.3663  0.1441  0.0634
 1577PEP     CB59384  12.511  18.027   9.804 -0.1470 -0.0407  0.2346
 1577PEP     CB59385  12.925  18.047  10.005  0.0786  0.0701 -0.0816
 1577PEP     CB59386  13.242  18.387  10.006 -0.0751  0.1021  0.3330
 1577PEP     CB59387  13.197  18.664   9.724  0.2102  0.2036  0.0979
 1577PEP     CB59388  13.253  18.535   9.262  0.2696 -0.3984  0.2269
 1577PEP     CB59389  13.617  18.480   8.985  0.2843  0.0480  0.4843
 1577PEP     CB59390  14.018  18.276   9.068  0.1292 -0.0751  0.1739
 1577PEP     CB59391  14.287  18.411   9.409 -0.2674  0.0360  0.2380
 1577PEP     CB59392  14.255  18.611   9.876  0.0447  0.0118  0.4915
 1577PEP     CB59393  14.183  18.733  10.342  0.1655  0.3407  0.1478
 1577PEP     CB59394  13.938  18.763  10.682 -0.0332 -0.3250  0.0657
 1577PEP     CB59395  13.974  18.540  11.075 -0.3042 -0.0992 -0.0578
 1577PEP     CB59396  13.870  18.116  11.292 -0.2482 -0.1419  0.2645
 1577PEP     CB59397  13.862  17.883  11.612  0.2947 -0.0280  0.1521
 1577PEP     CB59398  13.571  17.731  11.888  0.0178  0.2457 -0.2744
 1577PEP     CB59399  13.353  17.767  12.218  0.0406 -0.2454 -0.0782
 1577PEP     CB59400  13.001  17.659  12.474  0.0852 -0.3900 -0.3975
 1578PEP     CB59401  21.495   7.082   7.884  0.0496  0.3747 -0.1754
 1578PEP     CB59402  21.729   6.986   7.449 -0.0164  0.1656  0.0762
 1578PEP     CB59403  21.989   6.911   7.057 -0.0354  0.0769 -0.1347
 1578PEP     CB59404  22.342   6.834   6.812 -0.0775  0.0182 -0.1567
 1578PEP     CB59405  22.403   6.655   6.498  0.5144 -0.3870 -0.5554
 1578PEP     CB59406  22.616   6.170   6.488  0.0605  0.2762  0.0841
 1578PEP     CB59407  22.975   6.003   6.369 -0.2319  0.0979 -0.1528
 1578PEP     CB59408  23.456   5.872   6.361  0.3955  0.2150 -0.4067
 1578PEP     CB59409  23.858   5.797   6.307  0.1887 -0.1646 -0.1074
 1578PEP     CB59410  24.223   5.650   6.032 -0.0313  0.3555  0.3211
 1578PEP     CB59411  24.454   5.727   5.830 -0.0952 -0.1271  0.2775
 1578PEP     CB59412  24.659   5.893   5.503  0.1740  0.2745 -0.1874
 1578PEP     CB59413  24.548   5.954   5.079  0.0656  0.1248 -0.0073
 1578PEP     CB59414  24.350   5.792   4.743 -0.3287 -0.0885  0.3323
 1578PEP     CB59415  23.862   5.551   4.686 -0.3190 -0.1495  0.1039
 1578PEP     CB59416  23.657   5.155   4.678 -0.1236 -0.3055 -0.1846
 1578PEP     CB59417  23.545   4.747   4.939 -0.4369  0.2977 -0.0503
 1578PEP     CB59418  23.709   4.453   5.203 -0.1683  0.0774  0.1679
 1578PEP     CB59419  24.173   4.172   5.168  0.1111  0.3738 -0.1277
 1578PEP     CB59420  24.362   3.833   5.048 -0.0617  0.4012  0.1691
 1578PEP     CB59421  24.779   3.541   4.839  0.1984  0.2939 -0.4639
 1578PEP     CB59422  24.796   3.186   4.679  0.0277 -0.1491  0.3246
 1578PEP     CB59423  24.336   3.118   4.351 -0.0361 -0.0974 -0.1099
 1578PEP     CB59424  23.971   3.309   4.226 -0.0389 -0.3941  0.0231
 1578PEP     CB59425  23.621   3.279   4.361 -0.1227  0.0894 -0.6728
 1578PEP     CB59426  23.356   3.296   4.716 -0.2773  0.0225 -0.2749
 1578PEP     CB59427  23.332   3.437   5.145  0.0150  0.0340  0.0290
 1578PEP     CB59428  23.716   3.303   5.448 -0.3014  0.2598 -0.5289
 1578PEP     CB59429  24.025   2.971   5.363  0.3004  0.0845 -0.1190
 1578PEP     CB59430  23.988   2.669   5.142 -0.0281 -0.2559  0.4119
 1578PEP     CB59431  23.766   2.909   4.769 -0.1929 -0.0217 -0.0817
 1578PEP     CB59432  23.771   3.314   4.884  0.1808  0.0181 -0.1724
 1578PEP     CB59433  24.103   3.447   5.198  0.2284 -0.1353 -0.1558
 1578PEP     CB59434  24.257   3.358   5.604 -0.1483  0.1292 -0.3006
 1578PEP     CB59435  24.288   3.287   6.097  0.2737 -0.1615 -0.2105
 1578PEP     CB59436  24.050   3.356   6.451 -0.0442 -0.2612 -0.0829
 1578PEP     CB59437  23.644   3.266   6.593 -0.1609  0.2933  0.0205
 1578PEP     CB59438  23.213   3.005   6.502  0.0806  0.1338  0.2067
 1578PEP     CB59439  22.833   3.110   6.386  0.7276 -0.1269 -0.4086
 1578PEP     CB59440  22.832   3.514   6.321 -0.5301  0.0832  0.2619
 1579PEP     CB59441  11.882   8.676  16.792  0.3092  0.1108 -0.4677
 1579PEP     CB59442  12.153   8.809  16.459  0.3574 -0.1507  0.0370
 1579PEP     CB59443  12.228   9.112  16.221  0.5320  0.3311  0.0382
 1579PEP     CB59444  11.963   9.325  15.906 -0.1575 -0.4396  0.0243
 1579PEP     CB59445  11.571   9.276  15.761 -0.1526 -0.3496  0.1641
 1579PEP     CB59446  11.148   9.112  15.733  0.0423 -0.0692 -0.1520
 1579PEP     CB59447  10.813   8.916  15.810  0.4782  0.2254  0.0748
 1579PEP     CB59448  10.443   8.796  16.006  0.1180 -0.2341 -0.1520
 1579PEP     CB59449  10.356   8.300  16.039  0.2063 -0.0096 -0.0301
 1579PEP     CB59450   9.944   8.071  16.097 -0.2710 -0.0155 -0.0177
 1579PEP     CB59451   9.651   8.117  16.302  0.0510  0.0441 -0.0901
 1579PEP     CB59452   9.638   8.556  16.484  0.3549  0.1842  0.3999
 1579PEP     CB59453  10.025   8.731  16.565 -0.0753 -0.1612 -0.3249
 1579PEP     CB59454  10.416   8.492  16.516  0.3419 -0.1012 -0.1369
 1579PEP     CB59455  10.847   8.454  16.269 -0.3145 -0.1730 -0.0044
 1579PEP     CB59456  11.096   8.142  16.300 -0.4308  0.4820  0.2149
 1579PEP     CB59457  11.336   7.906  16.615  0.1007 -0.1338  0.1545
 1579PEP     CB59458  11.404   7.558  16.839 -0.3100 -0.0831  0.1938
 1579PEP     CB59459  11.634   7.248  16.979 -0.0899 -0.3482 -0.1088
 1579PEP     CB59460  12.022   6.975  16.865 -0.2407  0.1536  0.0321
 1579PEP     CB59461  12.271   6.633  16.856  0.1047 -0.0654 -0.1148
 1579PEP     CB59462  12.430   6.256  17.120 -0.0257  0.1667  0.2149
 1579PEP     CB59463  12.835   6.064  17.029 -0.3304 -0.3518  0.3373
 1579PEP     CB59464  13.195   6.288  17.144  0.1135  0.2089 -0.1464
 1579PEP     CB59465  13.206   6.761  17.166 -0.1853 -0.2819  0.2693
 1579PEP     CB59466  12.898   7.098  17.286  0.0356  0.1120  0.1614
 1579PEP     CB59467  12.737   7.503  17.495  0.1209  0.3712 -0.1294
 1579PEP     CB59468  12.441   7.752  17.443  0.2985 -0.0285 -0.3642
 1579PEP     CB59469  12.160   7.994  17.186  0.0194 -0.0591  0.4119
 1579PEP     CB59470  12.245   8.496  17.076  0.1865  0.2483 -0.0307
 1579PEP     CB59471  12.613   8.652  17.091 -0.1438 -0.1529  0.3035
 1579PEP     CB59472  12.989   8.913  17.141  0.4019 -0.0359  0.0151
 1579PEP     CB59473  13.296   9.288  17.252  0.1079 -0.0210  0.0099
 1579PEP     CB59474  13.315   9.656  17.135  0.5706 -0.0035  0.0495
 1579PEP     CB59475  13.567   9.948  17.022  0.2096  0.0354 -0.3382
 1579PEP     CB59476  13.706  10.097  16.719 -0.0131 -0.0125  0.0560
 1579PEP     CB59477  13.653   9.866  16.368 -0.0737 -0.3190 -0.5921
 1579PEP     CB59478  13.330   9.819  16.017 -0.0447 -0.1795 -0.1794
 1579PEP     CB59479  12.879   9.747  16.150  0.0476  0.1719  0.2813
 1579PEP     CB59480  12.465   9.779  16.108  0.2900  0.0132 -0.4768
 1580PEP     CB59481   3.457   5.439  14.859 -0.2234 -0.1432 -0.1121
 1580PEP     CB59482   3.462   5.260  15.207 -0.0783 -0.1351  0.0813
 1580PEP     CB59483   3.691   5.020  15.520  0.2631 -0.1129  0.0030
 1580PEP     CB59484   3.709   4.591  15.419  0.8006 -0.2582  0.4057
 1580PEP     CB59485   4.051   4.452  15.092 -0.2811  0.3472 -0.0378
 1580PEP     CB59486   4.116   4.602  14.705 -0.1255  0.2711  0.1901
 1580PEP     CB59487   3.877   4.971  14.463 -0.3284  0.1228 -0.1567
 1580PEP     CB59488   3.489   5.179  14.409  0.1692  0.0897  0.1634
 1580PEP     CB59489   3.137   5.460  14.206  0.0083  0.1319 -0.3241
 1580PEP     CB59490   2.681   5.389  14.363  0.0008 -0.3553 -0.1690
 1580PEP     CB59491   2.533   5.081  14.736 -0.1470 -0.3882  0.0575
 1580PEP     CB59492   2.790   4.775  14.937 -0.2175  0.1116 -0.0867
 1580PEP     CB59493   3.195   4.515  15.062  0.1527  0.0562 -0.1903
 1580PEP     CB59494   3.565   4.273  14.947  0.4502 -0.1364 -0.2603
 1580PEP     CB59495   3.602   4.046  14.682 -0.0912 -0.0372  0.1541
 1580PEP     CB59496   3.580   3.787  14.407  0.1959 -0.1780 -0.0096
 1580PEP     CB59497   3.414   3.410  14.132  0.4325  0.2403  0.1711
 1580PEP     CB59498   3.164   3.143  14.032  0.1518  0.3542  0.4036
 1580PEP     CB59499   2.768   3.140  13.787  0.0030  0.1675 -0.2706
 1580PEP     CB59500   2.536   2.944  13.392  0.1527 -0.0384  0.0183
 1580PEP     CB59501   2.248   2.704  13.168  0.2762 -0.0028  0.3425
 1580PEP     CB59502   2.214   2.328  12.862 -0.0849  0.0750  0.1025
 1580PEP     CB59503   2.366   1.957  12.882  0.0409  0.1171 -0.1120
 1580PEP     CB59504   2.520   1.599  12.756 -0.5304 -0.5462  0.2708
 1580PEP     CB59505   2.439   1.113  12.585  0.2571  0.1443 -0.0676
 1580PEP     CB59506   2.195   0.762  12.770 -0.4707  0.0950 -0.0294
 1580PEP     CB59507   1.857   0.672  13.206 -0.0411 -0.0115  0.4755
 1580PEP     CB59508   2.019   0.513  13.608 -0.4209  0.0022  0.1799
 1580PEP     CB59509   2.316   0.146  13.532  0.2003 -0.0842 -0.0350
 1580PEP     CB59510   2.532   0.060  13.155  0.0737  0.1799  0.0046
 1580PEP     CB59511   2.439   0.287  12.726  0.0529 -0.2353 -0.0539
 1580PEP     CB59512   2.405   0.601  12.352  0.0356 -0.1704  0.3964
 1580PEP     CB59513   2.006   0.779  12.195  0.2467  0.1397 -0.2151
 1580PEP     CB59514   1.636   0.956  12.499  0.2516 -0.1004 -0.3979
 1580PEP     CB59515   1.237   0.833  12.743 -0.0920  0.0099 -0.2103
 1580PEP     CB59516   0.827   0.706  12.719 -0.1692 -0.0655 -0.1858
 1580PEP     CB59517   0.577   1.000  12.712  0.1639 -0.0511  0.3000
 1580PEP     CB59518   0.542   1.375  12.977  0.2338  0.0339 -0.2050
 1580PEP     CB59519   0.994   1.594  13.086  0.3754 -0.1749  0.0226
 1580PEP     CB59520   1.352   1.447  12.866  0.2598  0.1565 -0.0811
 1581PEP     CB59521   1.317  16.095   4.423 -0.5497 -0.3131  0.1410
 1581PEP     CB59522   0.971  16.275   4.511 -0.0306 -0.1894 -0.1025
 1581PEP     CB59523   0.539  16.187   4.557  0.0392 -0.1617 -0.0684
 1581PEP     CB59524   0.173  15.847   4.366 -0.0018  0.6023  0.0394
 1581PEP     CB59525   0.060  15.543   4.134  0.1093 -0.0513 -0.1094
 1581PEP     CB59526  -0.286  15.294   4.168  0.2147 -0.2613  0.0583
 1581PEP     CB59527  -0.632  15.406   4.426 -0.2810  0.0638  0.0394
 1581PEP     CB59528  -0.746  15.772   4.694 -0.2744  0.2699  0.0090
 1581PEP     CB59529  -0.549  16.185   4.797 -0.0516  0.4381  0.1572
 1581PEP     CB59530  -0.130  16.314   4.573  0.1424  0.0120  0.1580
 1581PEP     CB59531   0.184  16.399   4.285  0.1910 -0.3739  0.4697
 1581PEP     CB59532   0.448  16.713   4.262  0.1020 -0.1036 -0.0015
 1581PEP     CB59533   0.889  16.749   4.425  0.2506  0.0868 -0.0018
 1581PEP     CB59534   0.986  16.786   4.834  0.0732 -0.0978  0.2166
 1581PEP     CB59535   0.837  16.940   5.210 -0.2084 -0.0370  0.5804
 1581PEP     CB59536   0.787  17.007   5.669  0.0312 -0.1445  0.2508
 1581PEP     CB59537   0.634  17.228   6.002  0.1918  0.3924  0.2108
 1581PEP     CB59538   0.687  17.277   6.394  0.1556 -0.1955 -0.0017
 1581PEP     CB59539   0.535  17.496   6.787 -0.0520  0.2926 -0.0375
 1581PEP     CB59540   0.232  17.280   7.166  0.2047 -0.3045 -0.0730
 1581PEP     CB59541   0.184  16.939   7.399  0.0052  0.2568 -0.2537
 1581PEP     CB59542  -0.085  16.808   7.718 -0.1222 -0.2123  0.0651
 1581PEP     CB59543  -0.328  16.873   8.068  0.0716  0.4730 -0.1716
 1581PEP     CB59544  -0.576  17.303   8.206 -0.1425 -0.4277  0.0379
 1581PEP     CB59545  -0.423  17.688   7.973 -0.5298 -0.0770  0.0218
 1581PEP     CB59546  -0.117  17.857   7.745 -0.3806  0.2080 -0.0885
 1581PEP     CB59547   0.134  17.850   7.316 -0.0598 -0.2702  0.2618
 1581PEP     CB59548   0.125  17.767   6.897 -0.1506 -0.3404 -0.0389
 1581PEP     CB59549  -0.251  17.704   6.609 -0.3386 -0.1625  0.0743
 1581PEP     CB59550  -0.572  17.895   6.366  0.1297 -0.1425 -0.0778
 1581PEP     CB59551  -0.975  17.928   6.419 -0.2281 -0.1696  0.0744
 1581PEP     CB59552  -1.115  18.147   6.681 -0.0723  0.1620 -0.2110
 1581PEP     CB59553  -0.895  18.473   6.861  0.0582  0.4191 -0.1134
 1581PEP     CB59554  -0.507  18.447   7.143 -0.3527  0.1455 -0.0725
 1581PEP     CB59555  -0.410  18.128   7.352 -0.1247  0.0013 -0.4326
 1581PEP     CB59556  -0.385  17.713   7.363 -0.4255  0.0571 -0.3170
 1581PEP     CB59557  -0.235  17.407   7.523 -0.1259  0.0085  0.1818
 1581PEP     CB59558  -0.021  17.256   7.852 -0.1609 -0.3265 -0.0602
 1581PEP     CB59559   0.218  17.199   8.327  0.3100 -0.0933  0.0725
 1581PEP     CB59560   0.379  17.016   8.638 -0.2622  0.0579 -0.2585
 1582PEP     CB59561  11.029   7.946   6.192 -0.1299  0.0222  0.1663
 1582PEP     CB59562  11.014   7.755   5.770 -0.3420 -0.2162  0.0801
 1582PEP     CB59563  11.168   7.507   5.471 -0.1247 -0.0115 -0.1453
 1582PEP     CB59564  11.336   7.109   5.264 -0.2363  0.0128 -0.3208
 1582PEP     CB59565  11.740   6.961   5.054 -0.1506 -0.1286  0.4186
 1582PEP     CB59566  12.086   7.348   4.961 -0.3105 -0.0063  0.0331
 1582PEP     CB59567  12.232   7.594   5.279  0.2951 -0.2459 -0.3612
 1582PEP     CB59568  12.003   7.573   5.644 -0.2086 -0.0392 -0.4442
 1582PEP     CB59569  11.592   7.312   5.742  0.1901  0.1203 -0.1327
 1582PEP     CB59570  11.377   6.982   6.007  0.1087  0.2484  0.2581
 1582PEP     CB59571  11.358   6.704   6.434  0.0075 -0.2579 -0.0094
 1582PEP     CB59572  11.229   6.395   6.744  0.0408 -0.4187  0.1042
 1582PEP     CB59573  11.041   6.284   7.139  0.2531  0.0859  0.1191
 1582PEP     CB59574  10.786   6.342   7.404 -0.0096 -0.1177  0.2759
 1582PEP     CB59575  10.679   6.500   7.833 -0.0185 -0.1549 -0.3446
 1582PEP     CB59576  10.367   6.262   8.089 -0.2565  0.3503  0.2925
 1582PEP     CB59577  10.100   5.905   7.937  0.1653  0.2124 -0.0047
 1582PEP     CB59578  10.013   5.472   7.797 -0.2502  0.1840  0.0838
 1582PEP     CB59579   9.912   5.281   7.434  0.2247  0.2095 -0.2883
 1582PEP     CB59580   9.886   5.346   7.122  0.1672 -0.2060  0.4281
 1582PEP     CB59581   9.919   5.080   6.767 -0.1448 -0.1968  0.2553
 1582PEP     CB59582  10.162   4.739   6.645 -0.0453  0.1189 -0.2328
 1582PEP     CB59583  10.424   4.519   6.899 -0.4398  0.0893  0.0813
 1582PEP     CB59584  10.656   4.158   7.104 -0.2142  0.1674 -0.0363
 1582PEP     CB59585  10.829   3.820   7.385 -0.1191 -0.0651 -0.1641
 1582PEP     CB59586  10.856   3.375   7.327 -0.0581  0.2656 -0.0839
 1582PEP     CB59587  11.018   3.203   7.040  0.3362 -0.3145  0.2006
 1582PEP     CB59588  11.322   3.203   7.081  0.2971 -0.2185 -0.1567
 1582PEP     CB59589  11.518   3.299   7.440  0.3432 -0.1168  0.2084
 1582PEP     CB59590  11.361   3.464   7.880 -0.1705  0.0236 -0.2763
 1582PEP     CB59591  11.231   3.570   8.214  0.0186  0.1237 -0.1210
 1582PEP     CB59592  11.471   3.784   8.605 -0.1264 -0.1222 -0.1205
 1582PEP     CB59593  11.545   3.985   8.985 -0.1131 -0.3934  0.0138
 1582PEP     CB59594  11.778   4.231   9.331  0.1196  0.0173  0.1915
 1582PEP     CB59595  11.663   4.164   9.727  0.1420  0.2041  0.3601
 1582PEP     CB59596  11.604   4.040  10.124  0.1983  0.1033  0.2566
 1582PEP     CB59597  11.313   3.810  10.419 -0.1591  0.0339 -0.0889
 1582PEP     CB59598  11.165   3.728  10.830 -0.1030 -0.1213  0.0372
 1582PEP     CB59599  10.839   3.566  11.081 -0.1065 -0.1312 -0.0218
 1582PEP     CB59600  10.637   3.545  11.487 -0.1836 -0.0788  0.4623
 1583PEP     CB59601   8.140  20.954   3.789 -0.3752 -0.1764 -0.5952
 1583PEP     CB59602   8.560  21.150   3.658 -0.0181  0.4044 -0.0928
 1583PEP     CB59603   8.598  21.513   3.341  0.0789  0.3246  0.0432
 1583PEP     CB59604   8.569  21.815   3.149  0.2045  0.2324  0.0837
 1583PEP     CB59605   8.799  22.141   2.911  0.0907 -0.0445 -0.0835
 1583PEP     CB59606   9.091  22.445   2.834  0.3043 -0.5450  0.2705
 1583PEP     CB59607   9.304  22.812   3.060  0.2645 -0.1994 -0.1057
 1583PEP     CB59608   9.142  23.162   3.349  0.2992 -0.1419 -0.1487
 1583PEP     CB59609   8.994  23.406   3.724  0.0683 -0.2309  0.3448
 1583PEP     CB59610   8.806  23.331   4.139 -0.1926  0.1515 -0.3560
 1583PEP     CB59611   8.488  23.288   4.346 -0.1458 -0.3094  0.0177
 1583PEP     CB59612   8.071  23.445   4.494 -0.2934  0.0157  0.3657
 1583PEP     CB59613   7.695  23.486   4.666  0.0063 -0.1418  0.0133
 1583PEP     CB59614   7.404  23.873   4.657  0.0929 -0.4400 -0.4269
 1583PEP     CB59615   7.258  24.092   4.315  0.0966  0.1617 -0.4371
 1583PEP     CB59616   7.085  24.397   4.205 -0.1716  0.1749 -0.2629
 1583PEP     CB59617   7.102  24.765   3.986  0.1920 -0.0953  0.0189
 1583PEP     CB59618   7.214  25.188   4.089  0.1519 -0.1371  0.2484
 1583PEP     CB59619   7.482  25.442   4.358 -0.1985 -0.2217  0.0649
 1583PEP     CB59620   7.625  25.519   4.853 -0.2942 -0.1142 -0.1990
 1583PEP     CB59621   7.545  25.267   5.210  0.2274  0.0531  0.2373
 1583PEP     CB59622   7.660  25.089   5.590  0.2912 -0.0806 -0.0501
 1583PEP     CB59623   7.811  24.915   5.929  0.1881 -0.2138 -0.1622
 1583PEP     CB59624   8.130  24.569   6.172 -0.2836  0.2434 -0.0634
 1583PEP     CB59625   8.416  24.351   6.055  0.0436  0.2231 -0.1145
 1583PEP     CB59626   8.696  23.948   6.073  0.0198 -0.3501 -0.2294
 1583PEP     CB59627   9.036  23.725   6.009 -0.0763 -0.1901  0.1180
 1583PEP     CB59628   9.212  23.749   5.525 -0.2844 -0.0233 -0.1428
 1583PEP     CB59629   9.011  24.111   5.393  0.1645 -0.1376  0.1607
 1583PEP     CB59630   8.606  24.312   5.260  0.0668  0.2574 -0.2965
 1583PEP     CB59631   8.204  24.251   5.122 -0.0946  0.4584 -0.0199
 1583PEP     CB59632   7.830  24.304   4.902  0.0760  0.1384  0.2149
 1583PEP     CB59633   7.476  24.099   5.078 -0.0269  0.0973  0.2165
 1583PEP     CB59634   7.551  23.905   5.445 -0.1187 -0.3078 -0.0042
 1583PEP     CB59635   7.800  23.580   5.618  0.0684  0.1957  0.1901
 1583PEP     CB59636   8.116  23.203   5.639  0.0690 -0.1093  0.2547
 1583PEP     CB59637   8.266  22.900   5.332  0.0945  0.2118 -0.0860
 1583PEP     CB59638   8.453  22.940   4.870 -0.0024  0.0168 -0.2833
 1583PEP     CB59639   8.839  23.041   4.596 -0.2668 -0.1186  0.1970
 1583PEP     CB59640   9.193  22.814   4.311  0.2232 -0.2245  0.0466
 1584PEP     CB59641   1.231   9.505  10.665 -0.1588  0.0534 -0.1295
 1584PEP     CB59642   0.976   9.774  10.591  0.2146  0.0034  0.2389
 1584PEP     CB59643   0.752  10.199  10.436  0.2940  0.0516  0.2271
 1584PEP     CB59644   0.694  10.622  10.300  0.2489 -0.1299 -0.3355
 1584PEP     CB59645   0.750  11.117  10.268  0.1918  0.2378 -0.0707
 1584PEP     CB59646   1.013  11.407  10.093 -0.0062  0.0934  0.1663
 1584PEP     CB59647   1.029  11.775   9.893 -0.1906  0.1035 -0.0552
 1584PEP     CB59648   1.031  11.987   9.523  0.2739  0.4588  0.1439
 1584PEP     CB59649   1.011  12.252   9.171 -0.3472  0.2845  0.2040
 1584PEP     CB59650   0.605  12.482   9.056 -0.1663  0.3787  0.0492
 1584PEP     CB59651   0.282  12.751   9.201 -0.0006 -0.2435  0.1052
 1584PEP     CB59652  -0.138  12.760   9.144 -0.0157 -0.3946  0.0649
 1584PEP     CB59653  -0.355  12.410   9.189  0.1556  0.2311  0.2634
 1584PEP     CB59654  -0.343  11.935   9.057  0.1123  0.1276  0.0141
 1584PEP     CB59655  -0.644  11.668   8.902  0.0214 -0.0424 -0.2540
 1584PEP     CB59656  -1.023  11.568   8.760 -0.1203  0.4951  0.0131
 1584PEP     CB59657  -1.328  11.409   8.620  0.5108  0.0726  0.1362
 1584PEP     CB59658  -1.510  11.177   8.390 -0.4766 -0.3215  0.0236
 1584PEP     CB59659  -1.678  11.158   7.973 -0.0709 -0.4553  0.1673
 1584PEP     CB59660  -1.994  10.976   7.573 -0.0521  0.1533 -0.1733
 1584PEP     CB59661  -2.413  10.900   7.252 -0.5598  0.3830  0.1011
 1584PEP     CB59662  -2.613  10.862   6.881  0.4766  0.0623  0.1002
 1584PEP     CB59663  -2.820  11.120   6.493 -0.2830  0.3053 -0.1582
 1584PEP     CB59664  -3.130  11.404   6.460 -0.1918  0.2972  0.1291
 1584PEP     CB59665  -3.505  11.340   6.295 -0.0615 -0.0797  0.1648
 1584PEP     CB59666  -3.468  11.103   5.884  0.0833 -0.1639  0.1663
 1584PEP     CB59667  -3.321  11.265   5.534 -0.1897  0.2393  0.2555
 1584PEP     CB59668  -3.195  11.737   5.436 -0.4733  0.2931  0.0315
 1584PEP     CB59669  -2.725  12.060   5.412 -0.1539  0.2534 -0.1392
 1584PEP     CB59670  -2.575  12.469   5.319 -0.2630  0.0337 -0.2748
 1584PEP     CB59671  -2.499  12.942   5.261  0.0832 -0.3101  0.0576
 1584PEP     CB59672  -2.393  13.277   5.339  0.0161 -0.4453  0.2664
 1584PEP     CB59673  -2.472  13.781   5.358 -0.3747 -0.4190  0.2573
 1584PEP     CB59674  -2.355  14.075   5.030 -0.0086 -0.1851 -0.0446
 1584PEP     CB59675  -2.078  14.026   4.738 -0.1386  0.3744 -0.1732
 1584PEP     CB59676  -1.887  14.109   4.308  0.2364  0.3478 -0.1275
 1584PEP     CB59677  -1.975  14.262   3.960 -0.5326 -0.2440 -0.0113
 1584PEP     CB59678  -1.904  14.511   3.608  0.1328  0.3199  0.0948
 1584PEP     CB59679  -1.816  14.561   3.154 -0.2605 -0.2764 -0.3268
 1584PEP     CB59680  -1.744  14.611   2.754  0.4840  0.1389  0.1734
 1585PEP     CB59681  18.130  10.127   2.202  0.2647  0.1591  0.0065
 1585PEP     CB59682  18.171   9.788   1.888  0.2552  0.3180 -0.2860
 1585PEP     CB59683  18.448   9.442   1.653 -0.0332 -0.3478 -0.0871
 1585PEP     CB59684  18.793   9.526   1.374  0.0225  0.1805  0.2522
 1585PEP     CB59685  18.844   9.781   1.034  0.0526 -0.3540  0.1187
 1585PEP     CB59686  18.533  10.102   0.949  0.1691  0.3919  0.0584
 1585PEP     CB59687  18.192  10.298   0.751 -0.3279  0.0436 -0.2977
 1585PEP     CB59688  17.842  10.485   0.403 -0.3900 -0.2350 -0.4712
 1585PEP     CB59689  17.696  10.224   0.140  0.0825  0.1010  0.3814
 1585PEP     CB59690  17.727   9.798   0.250  0.0576  0.4589  0.1625
 1585PEP     CB59691  17.890   9.690   0.675  0.3221 -0.3881 -0.1674
 1585PEP     CB59692  18.073   9.889   0.960  0.1342 -0.2310  0.0357
 1585PEP     CB59693  18.282   9.962   1.376 -0.2466  0.5660 -0.1791
 1585PEP     CB59694  18.700  10.101   1.517 -0.1332 -0.3238 -0.3212
 1585PEP     CB59695  19.119  10.300   1.629 -0.2127 -0.3876 -0.2002
 1585PEP     CB59696  19.514  10.578   1.684 -0.2072 -0.3355 -0.1588
 1585PEP     CB59697  19.565  11.007   1.561 -0.1623  0.2015  0.1150
 1585PEP     CB59698  19.304  11.170   1.306  0.2477  0.2966  0.0314
 1585PEP     CB59699  19.163  11.311   0.982  0.3608 -0.1812 -0.0303
 1585PEP     CB59700  19.112  11.528   0.672  0.0453  0.1302  0.2909
 1585PEP     CB59701  19.089  11.839   0.392  0.0068  0.3004  0.3865
 1585PEP     CB59702  18.998  11.954  -0.001 -0.2224 -0.0673  0.2013
 1585PEP     CB59703  18.835  12.162  -0.302  0.3566 -0.1424  0.0629
 1585PEP     CB59704  18.682  12.516  -0.518  0.4332 -0.1650  0.1177
 1585PEP     CB59705  18.780  12.920  -0.620  0.0847  0.3583  0.0478
 1585PEP     CB59706  18.699  13.251  -0.842 -0.3902  0.1207 -0.0271
 1585PEP     CB59707  18.888  13.460  -1.249 -0.1756  0.0088 -0.0483
 1585PEP     CB59708  19.027  13.713  -1.593  0.1772  0.0292 -0.4049
 1585PEP     CB59709  19.146  14.174  -1.557  0.1454  0.2531 -0.6163
 1585PEP     CB59710  19.563  14.358  -1.462 -0.2449  0.0746  0.3486
 1585PEP     CB59711  19.883  14.073  -1.479  0.1401 -0.1022  0.0268
 1585PEP     CB59712  20.021  13.661  -1.773 -0.5046 -0.2924 -0.2271
 1585PEP     CB59713  19.956  13.275  -1.964 -0.0790 -0.2868  0.0884
 1585PEP     CB59714  20.122  12.979  -2.209 -0.3068 -0.0168  0.1060
 1585PEP     CB59715  20.410  12.699  -2.483  0.1486  0.1257 -0.1450
 1585PEP     CB59716  20.682  12.368  -2.654 -0.3106  0.1414  0.5313
 1585PEP     CB59717  20.759  11.954  -2.664  0.4090  0.0906  0.0065
 1585PEP     CB59718  20.697  11.728  -2.284  0.2711 -0.0818  0.0982
 1585PEP     CB59719  20.613  11.530  -1.863 -0.1741  0.2946  0.2622
 1585PEP     CB59720  20.403  11.511  -1.495 -0.0052 -0.2750 -0.1389
 1586PEP     CB59721  14.843  14.375  15.206  0.0067 -0.0482  0.1025
 1586PEP     CB59722  14.821  14.642  15.581 -0.4440 -0.1625 -0.1970
 1586PEP     CB59723  15.113  14.912  15.861  0.5844 -0.4802 -0.7404
 1586PEP     CB59724  15.284  15.207  16.128 -0.0235  0.4647 -0.0857
 1586PEP     CB59725  15.189  15.677  16.175  0.3318  0.1662  0.3573
 1586PEP     CB59726  14.825  15.950  16.127  0.0946  0.1706  0.2928
 1586PEP     CB59727  14.545  16.093  16.340  0.4520  0.1306  0.0264
 1586PEP     CB59728  14.208  15.902  16.650 -0.1200  0.1403 -0.0689
 1586PEP     CB59729  13.995  15.872  17.057 -0.0776 -0.5318 -0.1277
 1586PEP     CB59730  13.792  15.889  17.467 -0.0165  0.0216  0.3671
 1586PEP     CB59731  14.020  15.691  17.870  0.3109 -0.1795 -0.2109
 1586PEP     CB59732  14.209  15.208  17.725  0.0814 -0.2387 -0.0085
 1586PEP     CB59733  14.493  15.122  17.409 -0.2170 -0.6788  0.2823
 1586PEP     CB59734  14.181  15.064  17.102  0.0287 -0.0908  0.0945
 1586PEP     CB59735  13.908  14.793  17.295  0.2775 -0.2701 -0.0811
 1586PEP     CB59736  13.914  14.768  17.702 -0.0478 -0.1585 -0.2593
 1586PEP     CB59737  14.044  14.909  18.162 -0.1402  0.1820  0.1216
 1586PEP     CB59738  14.284  14.902  18.503  0.1489  0.0437 -0.3837
 1586PEP     CB59739  14.481  14.821  18.944 -0.0771 -0.0020  0.4686
 1586PEP     CB59740  14.456  14.622  19.324 -0.2955  0.0414 -0.2159
 1586PEP     CB59741  14.655  14.602  19.694  0.6345 -0.4958 -0.6039
 1586PEP     CB59742  14.912  14.380  19.946 -0.0117 -0.1629  0.3237
 1586PEP     CB59743  14.923  14.028  20.219 -0.1964  0.5894 -0.2132
 1586PEP     CB59744  14.646  13.697  20.548  0.1295 -0.1725  0.2318
 1586PEP     CB59745  14.646  13.327  20.720 -0.1188  0.1862  0.0001
 1586PEP     CB59746  14.497  13.058  21.051  0.0431  0.0854  0.5595
 1586PEP     CB59747  14.329  12.835  21.422 -0.4207  0.1723  0.0905
 1586PEP     CB59748  14.501  12.417  21.600 -0.3270  0.3266  0.1975
 1586PEP     CB59749  14.443  12.038  21.450  0.2123 -0.0701  0.1810
 1586PEP     CB59750  14.392  11.583  21.387  0.1139 -0.0571  0.0357
 1586PEP     CB59751  14.576  11.308  21.617  0.2057  0.2295 -0.0639
 1586PEP     CB59752  14.661  10.962  21.916  0.0414  0.2692 -0.1832
 1586PEP     CB59753  14.485  10.638  22.210 -0.4480 -0.0848  0.1753
 1586PEP     CB59754  14.329  10.255  22.423 -0.4108 -0.0531  0.1154
 1586PEP     CB59755  13.922  10.022  22.412 -0.1900  0.0357  0.0952
 1586PEP     CB59756  13.655   9.667  22.431 -0.1157  0.2619 -0.1795
 1586PEP     CB59757  13.173   9.512  22.535 -0.2274  0.1433  0.2981
 1586PEP     CB59758  12.847   9.807  22.457 -0.1262 -0.3376  0.3151
 1586PEP     CB59759  12.642  10.143  22.574  0.1925  0.4082 -0.1050
 1586PEP     CB59760  12.216  10.169  22.757 -0.0840 -0.1024  0.1789
 1587PEP     CB59761  15.758  21.832  18.958  0.0891  0.0544 -0.2719
 1587PEP     CB59762  15.485  22.237  18.850  0.3408  0.5701  0.0001
 1587PEP     CB59763  15.283  22.684  18.694  0.4654  0.0061 -0.4886
 1587PEP     CB59764  14.997  22.858  18.459 -0.2166  0.2054 -0.1044
 1587PEP     CB59765  14.710  22.557  18.201  0.0455  0.0160  0.0644
 1587PEP     CB59766  14.342  22.443  18.130 -0.0860  0.1934  0.1290
 1587PEP     CB59767  13.838  22.313  18.290 -0.4039  0.0504  0.0753
 1587PEP     CB59768  13.595  22.021  18.097 -0.0350  0.1138 -0.2813
 1587PEP     CB59769  13.588  21.780  17.741 -0.2474 -0.3273  0.4280
 1587PEP     CB59770  13.735  21.922  17.328 -0.0506 -0.2476 -0.0226
 1587PEP     CB59771  13.509  22.217  17.092 -0.1732 -0.3454 -0.3742
 1587PEP     CB59772  13.350  22.503  17.235  0.6073  0.1249  0.1028
 1587PEP     CB59773  13.465  22.956  17.283 -0.1594  0.2337 -0.0435
 1587PEP     CB59774  13.826  23.243  17.295  0.3514  0.1407 -0.2755
 1587PEP     CB59775  14.188  23.400  17.407  0.0991 -0.1222  0.2528
 1587PEP     CB59776  14.624  23.253  17.705 -0.0843 -0.0811  0.2083
 1587PEP     CB59777  14.980  23.037  17.734  0.0964  0.2515 -0.0037
 1587PEP     CB59778  15.178  22.680  17.867 -0.0596 -0.1255 -0.1628
 1587PEP     CB59779  15.487  22.620  18.200  0.0433 -0.2452 -0.0803
 1587PEP     CB59780  15.644  22.883  18.541  0.0338  0.0131 -0.0559
 1587PEP     CB59781  15.969  23.006  18.853 -0.1688 -0.0631 -0.0242
 1587PEP     CB59782  16.187  22.859  19.164  0.0407 -0.2503 -0.1081
 1587PEP     CB59783  16.305  22.503  19.436  0.2950  0.1626  0.2210
 1587PEP     CB59784  16.419  22.117  19.386  0.1432  0.3682  0.1160
 1587PEP     CB59785  16.267  21.747  19.028  0.1737  0.5014 -0.3243
 1587PEP     CB59786  16.123  21.576  18.749  0.1581  0.1351  0.0704
 1587PEP     CB59787  16.074  21.717  18.293  0.0178  0.3834  0.0771
 1587PEP     CB59788  16.145  22.037  18.085 -0.5073  0.0263 -0.1180
 1587PEP     CB59789  16.412  22.132  17.810 -0.4166 -0.3023  0.1206
 1587PEP     CB59790  16.781  22.035  17.613 -0.4758  0.2131 -0.4561
 1587PEP     CB59791  17.213  21.986  17.758  0.0478 -0.1439  0.3469
 1587PEP     CB59792  17.452  21.727  18.130  0.0792  0.0490 -0.1082
 1587PEP     CB59793  17.568  21.497  18.447 -0.2534 -0.0627 -0.0742
 1587PEP     CB59794  17.867  21.326  18.598 -0.1927  0.4076  0.1251
 1587PEP     CB59795  18.204  20.941  18.663  0.0926  0.3742 -0.1052
 1587PEP     CB59796  18.233  20.514  18.767 -0.2203  0.1663 -0.2760
 1587PEP     CB59797  18.123  20.275  19.140 -0.1182 -0.2025 -0.1177
 1587PEP     CB59798  18.106  20.442  19.602  0.3203 -0.0371 -0.1175
 1587PEP     CB59799  17.756  20.654  19.761  0.1301  0.1182  0.1575
 1587PEP     CB59800  17.708  21.098  19.973 -0.0489 -0.0307 -0.2086
 1588PEP     CB59801   2.765   9.967   4.808  0.0620 -0.4030 -0.2060
 1588PEP     CB59802   3.101  10.214   4.935  0.1533  0.0242 -0.1073
 1588PEP     CB59803   3.496  10.363   4.865  0.3162  0.1765  0.2385
 1588PEP     CB59804   3.857  10.494   4.953 -0.0315  0.1801 -0.3467
 1588PEP     CB59805   4.296  10.410   4.973 -0.0120  0.3203  0.3131
 1588PEP     CB59806   4.429  10.028   4.927 -0.1149 -0.0752  0.2731
 1588PEP     CB59807   4.260   9.609   5.028  0.0775  0.1495  0.1878
 1588PEP     CB59808   4.114   9.425   5.417  0.0603  0.1101  0.1805
 1588PEP     CB59809   3.922   9.193   5.690  0.6276  0.2646  0.2355
 1588PEP     CB59810   4.198   8.882   5.900  0.1014 -0.0393 -0.0521
 1588PEP     CB59811   4.618   8.756   5.720  0.2330  0.4619  0.1014
 1588PEP     CB59812   4.943   8.661   5.432 -0.0461  0.1883 -0.2515
 1588PEP     CB59813   5.208   8.356   5.162  0.0881 -0.1668 -0.3480
 1588PEP     CB59814   5.522   8.337   4.815 -0.1143  0.0173 -0.0535
 1588PEP     CB59815   5.801   8.361   4.472 -0.1585  0.6298  0.0004
 1588PEP     CB59816   6.195   8.556   4.469  0.0688 -0.5537 -0.0458
 1588PEP     CB59817   6.365   8.924   4.677 -0.0262  0.0152  0.1954
 1588PEP     CB59818   6.326   8.930   5.060 -0.0899  0.1693 -0.6509
 1588PEP     CB59819   6.449   8.672   5.388 -0.3203 -0.2010 -0.2658
 1588PEP     CB59820   6.675   8.350   5.609  0.4253  0.0552 -0.0300
 1588PEP     CB59821   6.869   8.040   5.809 -0.0112  0.1652 -0.4693
 1588PEP     CB59822   7.091   7.901   6.219 -0.0333 -0.1052 -0.2132
 1588PEP     CB59823   7.450   7.743   6.516 -0.2246 -0.1033 -0.3445
 1588PEP     CB59824   7.430   7.916   6.918 -0.2315  0.1703 -0.0370
 1588PEP     CB59825   6.981   8.064   6.981  0.2862 -0.1036  0.2343
 1588PEP     CB59826   6.803   8.229   6.507  0.1357  0.0451 -0.1293
 1588PEP     CB59827   6.933   8.412   6.111 -0.0410 -0.1193 -0.3015
 1588PEP     CB59828   7.281   8.324   6.019 -0.1242  0.2485 -0.2470
 1588PEP     CB59829   7.618   8.244   6.113  0.0669  0.0770  0.4016
 1588PEP     CB59830   8.112   8.401   6.263  0.1589 -0.1624  0.3341
 1588PEP     CB59831   8.433   8.686   6.060  0.0196 -0.3401 -0.2363
 1588PEP     CB59832   8.292   8.894   5.651  0.2787 -0.3349 -0.1479
 1588PEP     CB59833   8.129   8.730   5.318 -0.2209  0.2738 -0.1270
 1588PEP     CB59834   8.264   8.340   5.217 -0.2275  0.2223 -0.0950
 1588PEP     CB59835   8.558   8.100   4.959  0.1617  0.0789 -0.1784
 1588PEP     CB59836   8.574   7.682   4.742  0.0077 -0.1966  0.1166
 1588PEP     CB59837   8.354   7.327   4.615  0.2411  0.0147 -0.5556
 1588PEP     CB59838   8.140   6.959   4.605 -0.3498  0.7136 -0.0667
 1588PEP     CB59839   7.805   6.636   4.597 -0.1066 -0.2272 -0.0828
 1588PEP     CB59840   7.526   6.464   4.857 -0.2595 -0.0577 -0.2773
 1589PEP     CB59841  15.497  19.374   9.618  0.1449  0.1839  0.1048
 1589PEP     CB59842  15.768  19.164   9.388  0.5522 -0.3602  0.1271
 1589PEP     CB59843  15.804  19.198   8.944  0.1836  0.2285 -0.6008
 1589PEP     CB59844  15.648  18.882   8.577  0.2308  0.2742 -0.3203
 1589PEP     CB59845  15.579  18.588   8.294 -0.0051  0.1357 -0.0331
 1589PEP     CB59846  15.252  18.319   7.995 -0.1173  0.1048  0.3947
 1589PEP     CB59847  15.021  17.959   7.770  0.0833  0.5201 -0.2516
 1589PEP     CB59848  14.823  17.861   7.378 -0.0313 -0.3741  0.3453
 1589PEP     CB59849  14.853  18.089   6.954 -0.0430  0.0067  0.4127
 1589PEP     CB59850  15.284  18.340   6.871  0.1625 -0.4127 -0.1511
 1589PEP     CB59851  15.662  18.299   6.959  0.0234  0.3763  0.2197
 1589PEP     CB59852  16.033  18.000   6.909 -0.0128  0.3220 -0.1425
 1589PEP     CB59853  16.317  17.742   7.121 -0.2473  0.2654  0.2051
 1589PEP     CB59854  16.645  17.775   7.494 -0.2367 -0.0739  0.0419
 1589PEP     CB59855  17.116  17.756   7.622 -0.0870  0.4628 -0.1376
 1589PEP     CB59856  17.385  17.605   7.975  0.0424  0.1039  0.1256
 1589PEP     CB59857  17.802  17.352   7.990  0.2137 -0.0483  0.2906
 1589PEP     CB59858  18.258  17.421   7.862 -0.2272 -0.1593  0.0418
 1589PEP     CB59859  18.447  17.733   7.605 -0.2039 -0.2349 -0.2039
 1589PEP     CB59860  18.223  17.882   7.263 -0.4424 -0.1584  0.0069
 1589PEP     CB59861  17.906  17.825   7.008 -0.3105 -0.1175  0.2810
 1589PEP     CB59862  17.511  17.520   6.925 -0.1373  0.0473  0.3859
 1589PEP     CB59863  17.505  17.085   6.938  0.0667  0.3497  0.1610
 1589PEP     CB59864  17.524  16.865   7.306 -0.0635 -0.1166 -0.1208
 1589PEP     CB59865  17.242  17.125   7.589 -0.2023 -0.0793 -0.2179
 1589PEP     CB59866  16.857  17.293   7.617  0.1146  0.1275 -0.1628
 1589PEP     CB59867  16.553  17.308   7.276  0.0363 -0.3993 -0.5133
 1589PEP     CB59868  16.501  16.991   6.990  0.1425  0.1494  0.0784
 1589PEP     CB59869  16.875  16.870   6.741  0.1949 -0.1371 -0.2298
 1589PEP     CB59870  17.031  17.244   6.585  0.1592 -0.0972 -0.1910
 1589PEP     CB59871  16.817  17.527   6.726  0.1375 -0.3523  0.1662
 1589PEP     CB59872  16.395  17.457   6.744 -0.1589 -0.1743  0.5390
 1589PEP     CB59873  15.993  17.302   6.594  0.1662 -0.1719  0.4719
 1589PEP     CB59874  15.763  16.944   6.468 -0.0549 -0.2716 -0.1486
 1589PEP     CB59875  15.831  16.535   6.445 -0.0599  0.0037 -0.2909
 1589PEP     CB59876  15.760  16.141   6.590  0.2866 -0.2655 -0.0404
 1589PEP     CB59877  15.797  15.858   6.962 -0.1081 -0.0154  0.0359
 1589PEP     CB59878  15.799  15.715   7.297 -0.2583  0.2867 -0.2120
 1589PEP     CB59879  15.545  15.510   7.554 -0.3791  0.2372 -0.0586
 1589PEP     CB59880  15.200  15.156   7.721 -0.2152 -0.0479  0.1050
 1590PEP     CB59881   8.417  18.538   6.218 -0.5229  0.4324 -0.0878
 1590PEP     CB59882   8.899  18.673   6.295  0.1775  0.1172 -0.0616
 1590PEP     CB59883   9.332  18.772   6.526 -0.2068 -0.0529  0.1423
 1590PEP     CB59884   9.678  18.906   6.454  0.0691 -0.2099  0.1346
 1590PEP     CB59885   9.894  19.251   6.231 -0.4335 -0.4951  0.2611
 1590PEP     CB59886  10.280  19.424   6.027  0.0775  0.2937 -0.2520
 1590PEP     CB59887  10.767  19.530   5.904  0.0584  0.3199 -0.2684
 1590PEP     CB59888  10.952  19.845   5.812 -0.5292  0.1298 -0.3106
 1590PEP     CB59889  10.702  20.252   5.876  0.6460 -0.0947  0.3227
 1590PEP     CB59890  10.354  20.355   6.170 -0.1833  0.0162  0.0001
 1590PEP     CB59891   9.978  20.454   6.066  0.0956 -0.1655 -0.4781
 1590PEP     CB59892   9.811  20.549   5.695  0.0111  0.1320 -0.1084
 1590PEP     CB59893   9.826  20.374   5.421  0.1118  0.2782 -0.3392
 1590PEP     CB59894   9.652  19.985   5.471  0.0130 -0.0367  0.1259
 1590PEP     CB59895   9.351  19.755   5.671  0.0504 -0.2639 -0.1173
 1590PEP     CB59896   9.417  19.379   5.919 -0.1113 -0.0963  0.0362
 1590PEP     CB59897   9.323  19.141   6.106 -0.2444 -0.0842 -0.1616
 1590PEP     CB59898   9.058  19.228   6.502 -0.3141  0.0388 -0.5367
 1590PEP     CB59899   9.038  19.547   6.798  0.0794  0.3169  0.1400
 1590PEP     CB59900   8.968  20.003   7.092 -0.3580 -0.1958  0.0155
 1590PEP     CB59901   8.762  20.453   7.023  0.3634  0.2208 -0.2348
 1590PEP     CB59902   8.842  20.828   6.773 -0.2407  0.0660 -0.1687
 1590PEP     CB59903   9.117  20.861   6.401  0.2267  0.5290 -0.3076
 1590PEP     CB59904   9.109  20.483   6.129 -0.3003  0.4648  0.2591
 1590PEP     CB59905   8.931  20.110   6.036 -0.3088 -0.1278 -0.0711
 1590PEP     CB59906   8.845  19.674   6.004  0.1268 -0.0618 -0.0023
 1590PEP     CB59907   8.382  19.416   5.909  0.2158 -0.0317  0.4141
 1590PEP     CB59908   8.007  19.634   5.930  0.1079 -0.3444  0.1416
 1590PEP     CB59909   7.823  19.998   5.714  0.1751 -0.4156  0.0787
 1590PEP     CB59910   8.161  20.331   5.485 -0.0604  0.1165 -0.0791
 1590PEP     CB59911   8.641  20.221   5.549 -0.2919 -0.0250  0.0335
 1590PEP     CB59912   9.138  20.211   5.616 -0.0276  0.1081 -0.4348
 1590PEP     CB59913   9.491  20.163   5.942  0.2423 -0.0074  0.0658
 1590PEP     CB59914   9.624  20.236   6.351  0.0069  0.0134  0.2589
 1590PEP     CB59915   9.998  20.076   6.543 -0.1334 -0.2417 -0.1616
 1590PEP     CB59916  10.492  20.193   6.676  0.1714  0.0634 -0.0193
 1590PEP     CB59917  10.838  20.156   6.925  0.3563  0.0499  0.1854
 1590PEP     CB59918  11.190  19.930   7.171  0.0088  0.0321  0.0687
 1590PEP     CB59919  11.553  19.898   7.478  0.3568 -0.0163  0.2609
 1590PEP     CB59920  11.489  19.602   7.887 -0.3232 -0.4212  0.1893
 1591PEP     CB59921   7.862  19.171   0.741 -0.6390  0.2801  0.0572
 1591PEP     CB59922   7.533  19.041   0.978  0.1721  0.1799 -0.2609
 1591PEP     CB59923   7.372  18.917   1.445 -0.0603  0.2560 -0.2272
 1591PEP     CB59924   7.012  18.863   1.653 -0.0840  0.2204  0.1717
 1591PEP     CB59925   6.807  18.789   2.051 -0.0078 -0.3434 -0.2043
 1591PEP     CB59926   6.662  18.602   2.440  0.2001 -0.1540 -0.0940
 1591PEP     CB59927   6.452  18.348   2.724 -0.1419 -0.1923  0.0866
 1591PEP     CB59928   6.162  17.998   2.634 -0.0252  0.1520  0.1358
 1591PEP     CB59929   5.901  17.887   2.270 -0.4123 -0.2801 -0.0903
 1591PEP     CB59930   5.811  17.878   1.874  0.4662 -0.1324  0.0794
 1591PEP     CB59931   5.770  17.506   1.636  0.0344 -0.3119 -0.2523
 1591PEP     CB59932   5.516  17.101   1.842 -0.1818  0.3289  0.3050
 1591PEP     CB59933   5.511  16.692   2.030  0.0316 -0.3608  0.2587
 1591PEP     CB59934   5.611  16.286   2.205 -0.1519  0.3622  0.2604
 1591PEP     CB59935   5.886  16.077   2.489 -0.0117 -0.1620 -0.2283
 1591PEP     CB59936   5.994  15.809   2.841 -0.2820 -0.2363  0.2494
 1591PEP     CB59937   6.197  15.763   3.251  0.0490  0.0212  0.0340
 1591PEP     CB59938   6.323  15.657   3.694  0.1505  0.0618 -0.3477
 1591PEP     CB59939   6.581  15.302   3.755  0.0360 -0.5115 -0.1454
 1591PEP     CB59940   6.924  15.069   3.932 -0.1284 -0.0717  0.4470
 1591PEP     CB59941   7.331  14.914   3.935  0.1432  0.0958  0.1720
 1591PEP     CB59942   7.665  14.700   3.673  0.0277 -0.3429  0.2467
 1591PEP     CB59943   8.101  14.759   3.446  0.0135  0.1101 -0.3071
 1591PEP     CB59944   8.357  15.096   3.379  0.2956 -0.0153  0.3234
 1591PEP     CB59945   8.524  15.365   3.807 -0.1622  0.3669 -0.1335
 1591PEP     CB59946   8.263  15.161   4.157  0.0559  0.2644  0.2831
 1591PEP     CB59947   7.839  15.063   4.243  0.1280 -0.2064 -0.0124
 1591PEP     CB59948   7.454  15.309   4.246 -0.1033  0.0456 -0.0846
 1591PEP     CB59949   7.021  15.434   4.285  0.1281 -0.1158 -0.1499
 1591PEP     CB59950   6.630  15.594   4.584 -0.0136  0.0885 -0.0230
 1591PEP     CB59951   6.472  15.713   4.996 -0.2264  0.1157 -0.0999
 1591PEP     CB59952   6.058  15.797   5.214 -0.0689  0.4234 -0.2632
 1591PEP     CB59953   5.616  15.935   5.043 -0.2815 -0.3605  0.1326
 1591PEP     CB59954   5.546  15.971   4.623 -0.1269 -0.0685 -0.1710
 1591PEP     CB59955   5.771  15.887   4.219 -0.0504 -0.2216  0.0831
 1591PEP     CB59956   5.805  15.640   3.870 -0.1541 -0.3141 -0.2961
 1591PEP     CB59957   5.962  15.347   3.518  0.3272  0.0359  0.5882
 1591PEP     CB59958   6.192  15.043   3.268  0.0048 -0.5855 -0.4354
 1591PEP     CB59959   6.461  14.929   2.838 -0.0191 -0.1823  0.1006
 1591PEP     CB59960   6.788  15.079   2.542  0.0220 -0.0288 -0.1058
 1592PEP     CB59961   3.317  12.352   5.262  0.0488 -0.0440 -0.1867
 1592PEP     CB59962   3.034  11.966   5.339 -0.5451  0.2644 -0.4527
 1592PEP     CB59963   2.970  11.530   5.248 -0.0997  0.0464  0.3388
 1592PEP     CB59964   3.210  11.116   5.196  0.3370  0.0494 -0.2298
 1592PEP     CB59965   3.217  10.798   4.845  0.0278  0.0158 -0.3154
 1592PEP     CB59966   3.534  10.661   4.481 -0.0246  0.0536 -0.1119
 1592PEP     CB59967   3.657  10.769   4.161 -0.0508  0.1683  0.1180
 1592PEP     CB59968   3.792  11.107   3.807  0.0820 -0.0207  0.1906
 1592PEP     CB59969   3.900  11.192   3.394  0.1850  0.1457 -0.1273
 1592PEP     CB59970   3.785  11.460   3.047  0.1504 -0.2000  0.3311
 1592PEP     CB59971   3.654  11.893   3.021  0.0796 -0.5371  0.2223
 1592PEP     CB59972   3.417  12.127   2.738 -0.0284 -0.2662 -0.1629
 1592PEP     CB59973   3.223  12.446   2.552  0.2993 -0.1557  0.2628
 1592PEP     CB59974   3.250  12.772   2.183  0.0995 -0.1188 -0.3160
 1592PEP     CB59975   3.433  13.097   2.032  0.1403  0.0053  0.3359
 1592PEP     CB59976   3.583  13.404   1.699  0.2860 -0.2383  0.1993
 1592PEP     CB59977   3.907  13.463   1.375  0.2860  0.0510 -0.1478
 1592PEP     CB59978   4.177  13.181   1.126  0.0186  0.2587  0.2450
 1592PEP     CB59979   4.324  13.182   0.669 -0.0239 -0.0046 -0.0578
 1592PEP     CB59980   4.405  13.407   0.316 -0.3124 -0.1094  0.0233
 1592PEP     CB59981   4.867  13.437   0.222  0.0076  0.2482 -0.3386
 1592PEP     CB59982   5.081  13.763   0.349 -0.2861 -0.1444 -0.0381
 1592PEP     CB59983   5.239  14.118   0.370  0.1519  0.3151  0.2257
 1592PEP     CB59984   5.116  14.444   0.642  0.4752  0.1360 -0.2281
 1592PEP     CB59985   4.714  14.763   0.500 -0.8166 -0.1759  0.0673
 1592PEP     CB59986   4.464  14.625   0.161  0.1921 -0.0007  0.0001
 1592PEP     CB59987   4.508  14.093   0.052  0.0271 -0.0700  0.1701
 1592PEP     CB59988   4.950  13.933  -0.096  0.4561  0.2524  0.2210
 1592PEP     CB59989   5.193  13.614  -0.170 -0.0297 -0.0290  0.1281
 1592PEP     CB59990   5.318  13.308   0.059  0.1316  0.1398 -0.1246
 1592PEP     CB59991   5.233  13.292   0.574  0.1741  0.1708 -0.6139
 1592PEP     CB59992   5.364  13.148   0.945  0.3834  0.2939 -0.2821
 1592PEP     CB59993   5.607  13.229   1.264  0.1710  0.1172 -0.2373
 1592PEP     CB59994   5.775  13.520   1.557 -0.1797  0.2262  0.0153
 1592PEP     CB59995   5.932  13.833   1.825  0.1341 -0.5873 -0.0118
 1592PEP     CB59996   6.226  14.095   1.999 -0.0075 -0.0581 -0.2009
 1592PEP     CB59997   6.264  14.462   2.210  0.0657  0.1731 -0.4248
 1592PEP     CB59998   6.441  14.825   2.236  0.2373 -0.0052  0.1627
 1592PEP     CB59999   6.476  15.162   2.091  0.0174 -0.2021  0.1984
 1592PEP     CB60000   6.678  15.492   1.761  0.3227  0.1544 -0.1205
 1593PEP     CB60001   2.848  18.212   9.700 -0.0544  0.3922  0.2729
 1593PEP     CB60002   2.631  17.733   9.669  0.1372 -0.1342 -0.0937
 1593PEP     CB60003   2.417  17.319   9.617 -0.0544 -0.4664 -0.1092
 1593PEP     CB60004   2.636  16.880   9.582 -0.0616 -0.0131 -0.2485
 1593PEP     CB60005   3.010  16.891   9.652  0.0568 -0.2224 -0.1080
 1593PEP     CB60006   3.498  16.813   9.824 -0.1132  0.0996  0.0489
 1593PEP     CB60007   3.919  16.597   9.767  0.4500 -0.0072  0.2029
 1593PEP     CB60008   4.155  16.274   9.664  0.0174 -0.3374 -0.1115
 1593PEP     CB60009   4.175  15.805   9.693  0.1284 -0.0568 -0.1093
 1593PEP     CB60010   3.944  15.525   9.505 -0.2223 -0.1679 -0.2968
 1593PEP     CB60011   3.530  15.602   9.263 -0.1827  0.1540  0.0373
 1593PEP     CB60012   3.219  15.928   9.080  0.1778  0.1593  0.2082
 1593PEP     CB60013   2.834  16.021   9.050  0.0338 -0.2947  0.3765
 1593PEP     CB60014   2.437  15.776   9.214  0.0313 -0.2177 -0.2368
 1593PEP     CB60015   2.150  15.460   9.484 -0.0599 -0.2162 -0.0048
 1593PEP     CB60016   1.981  15.191   9.898 -0.1398  0.4129 -0.0879
 1593PEP     CB60017   1.907  15.258  10.322 -0.2857  0.2537  0.3044
 1593PEP     CB60018   1.899  15.611  10.580 -0.1579  0.1007 -0.0893
 1593PEP     CB60019   2.081  15.965  10.656  0.4446  0.1808  0.1496
 1593PEP     CB60020   2.253  16.327  10.709  0.0049  0.1329  0.1014
 1593PEP     CB60021   2.281  16.743  11.011 -0.1463  0.1301 -0.2289
 1593PEP     CB60022   2.330  17.177  11.060  0.0126  0.3113 -0.1892
 1593PEP     CB60023   2.416  17.495  10.817 -0.1552 -0.0741  0.4278
 1593PEP     CB60024   2.455  17.627  10.492 -0.0799  0.2585  0.0182
 1593PEP     CB60025   2.396  17.527  10.112 -0.5769  0.0979 -0.4267
 1593PEP     CB60026   2.028  17.463   9.919 -0.1433  0.1137  0.0169
 1593PEP     CB60027   1.812  17.767   9.766 -0.0495 -0.1765 -0.1142
 1593PEP     CB60028   1.735  17.854   9.285  0.0148  0.0728  0.1570
 1593PEP     CB60029   2.024  17.973   8.986  0.1264  0.3442  0.3839
 1593PEP     CB60030   2.459  17.772   8.901 -0.2814  0.1390  0.1746
 1593PEP     CB60031   2.857  17.691   8.682  0.3678  0.3951 -0.0206
 1593PEP     CB60032   3.242  17.842   8.574  0.0120 -0.2388 -0.1953
 1593PEP     CB60033   3.584  17.722   8.811  0.2792  0.0961  0.1485
 1593PEP     CB60034   3.513  17.359   8.879 -0.1363 -0.4556  0.1227
 1593PEP     CB60035   3.090  17.159   8.798 -0.0826 -0.2014 -0.0444
 1593PEP     CB60036   2.656  17.135   8.546 -0.1746  0.2371 -0.0468
 1593PEP     CB60037   2.358  17.455   8.467 -0.1442  0.0865  0.0668
 1593PEP     CB60038   2.438  17.855   8.375 -0.4790  0.2755  0.1751
 1593PEP     CB60039   2.722  18.025   8.257  0.1052 -0.1065 -0.2794
 1593PEP     CB60040   3.077  17.914   8.136 -0.3514 -0.2261  0.2760
 1594PEP     CB60041  11.508   4.149   4.869 -0.2726  0.4976 -0.1342
 1594PEP     CB60042  11.347   4.570   4.777 -0.1688 -0.0173 -0.0053
 1594PEP     CB60043  11.275   4.993   4.501  0.2377  0.2166  0.0710
 1594PEP     CB60044  10.937   5.168   4.154  0.1841 -0.3000  0.1665
 1594PEP     CB60045  10.910   5.373   3.703 -0.0189 -0.2185  0.0755
 1594PEP     CB60046  11.022   5.354   3.241  0.1322  0.1776  0.0195
 1594PEP     CB60047  11.203   5.146   2.880 -0.4168  0.3013  0.2660
 1594PEP     CB60048  11.391   5.159   2.515 -0.0716 -0.3478  0.1983
 1594PEP     CB60049  11.685   5.053   2.351  0.0344 -0.0930  0.0679
 1594PEP     CB60050  12.087   4.822   2.551  0.0537 -0.3369 -0.0500
 1594PEP     CB60051  12.017   4.428   2.840 -0.1980  0.0233  0.1257
 1594PEP     CB60052  11.592   4.219   2.952  0.1762  0.2734  0.1321
 1594PEP     CB60053  11.268   4.411   3.076 -0.1455 -0.2585 -0.0953
 1594PEP     CB60054  10.985   4.683   3.027 -0.1642 -0.0577 -0.2074
 1594PEP     CB60055  10.769   4.953   2.702 -0.0788  0.1977  0.1713
 1594PEP     CB60056  10.520   5.105   2.365 -0.0999  0.2175  0.1646
 1594PEP     CB60057  10.412   5.378   2.008  0.2842  0.3018  0.0621
 1594PEP     CB60058  10.479   5.264   1.556 -0.1975 -0.1240  0.2201
 1594PEP     CB60059  10.458   4.861   1.475  0.4689 -0.0523  0.1164
 1594PEP     CB60060  10.173   4.695   1.798 -0.0886  0.4036  0.0708
 1594PEP     CB60061  10.139   4.921   2.194  0.0247 -0.1780  0.1102
 1594PEP     CB60062  10.078   5.434   2.440  0.1041  0.3054 -0.0501
 1594PEP     CB60063  10.211   5.630   2.745 -0.1215  0.4487 -0.0277
 1594PEP     CB60064  10.381   5.984   2.861  0.2665 -0.1483 -0.2551
 1594PEP     CB60065  10.502   6.385   3.082  0.1333  0.2549  0.0600
 1594PEP     CB60066  10.351   6.780   3.197  0.4105 -0.0057  0.1061
 1594PEP     CB60067  10.344   7.147   3.564 -0.1558 -0.1872 -0.2349
 1594PEP     CB60068  10.411   7.046   4.061  0.2863 -0.0116 -0.0778
 1594PEP     CB60069  10.796   7.053   4.239 -0.0057  0.1308  0.2735
 1594PEP     CB60070  11.230   7.287   4.307 -0.0862 -0.0865 -0.4012
 1594PEP     CB60071  11.516   7.546   4.507 -0.2612  0.2731 -0.0563
 1594PEP     CB60072  11.684   7.970   4.517 -0.1209 -0.1791  0.2251
 1594PEP     CB60073  12.105   8.152   4.434 -0.2181 -0.1726  0.0591
 1594PEP     CB60074  12.315   8.449   4.187 -0.0994  0.1335 -0.0789
 1594PEP     CB60075  12.232   8.626   3.845  0.2365 -0.3073  0.2282
 1594PEP     CB60076  12.266   8.396   3.404  0.0183 -0.1842  0.2444
 1594PEP     CB60077  12.448   8.044   3.257 -0.2143 -0.6074  0.1184
 1594PEP     CB60078  12.327   7.614   3.035 -0.1935 -0.1616  0.2691
 1594PEP     CB60079  12.089   7.238   2.876  0.1620 -0.0143 -0.3103
 1594PEP     CB60080  12.115   6.957   2.547  0.1380 -0.0135 -0.2231
 1595PEP     CB60081   2.378  19.800   5.064 -0.2779 -0.2030  0.1159
 1595PEP     CB60082   2.023  19.698   4.959  0.1203 -0.0921 -0.2290
 1595PEP     CB60083   1.709  19.714   4.558  0.1049 -0.0063  0.4568
 1595PEP     CB60084   1.619  19.938   4.197 -0.1513 -0.1458 -0.3549
 1595PEP     CB60085   1.869  20.239   3.924  0.1325 -0.1594 -0.0845
 1595PEP     CB60086   1.990  20.289   3.504 -0.2464 -0.2935 -0.0428
 1595PEP     CB60087   2.025  19.994   3.182 -0.1224 -0.2097 -0.5268
 1595PEP     CB60088   2.210  19.613   3.305 -0.4069 -0.2397  0.0719
 1595PEP     CB60089   2.232  19.392   3.622  0.2220  0.1459  0.1597
 1595PEP     CB60090   2.474  19.387   3.942  0.0773 -0.2369  0.2415
 1595PEP     CB60091   2.486  19.681   4.290 -0.1285 -0.2066 -0.2546
 1595PEP     CB60092   2.287  19.951   4.595 -0.1943  0.5228 -0.1132
 1595PEP     CB60093   1.964  20.112   4.633  0.0356 -0.0491  0.1474
 1595PEP     CB60094   1.697  20.395   4.315  0.1358 -0.3430  0.0669
 1595PEP     CB60095   1.379  20.601   4.132 -0.1061 -0.2719  0.3465
 1595PEP     CB60096   1.109  20.731   3.795  0.0963 -0.2261  0.1444
 1595PEP     CB60097   0.808  20.809   3.559  0.1610 -0.4299 -0.3114
 1595PEP     CB60098   0.472  21.106   3.412  0.1629  0.1117  0.1298
 1595PEP     CB60099   0.438  21.540   3.488 -0.2696 -0.2101 -0.0673
 1595PEP     CB60100   0.641  21.925   3.556 -0.0499 -0.0288 -0.2268
 1595PEP     CB60101   0.804  22.330   3.765  0.0041 -0.1608 -0.1462
 1595PEP     CB60102   0.922  22.414   4.185  0.3282  0.3456  0.1018
 1595PEP     CB60103   1.203  22.277   4.412  0.3792 -0.2432 -0.2764
 1595PEP     CB60104   1.571  22.019   4.539  0.1293  0.0287  0.4517
 1595PEP     CB60105   1.828  21.819   4.778  0.2956 -0.1744 -0.1769
 1595PEP     CB60106   2.236  21.608   4.685 -0.5921  0.4079 -0.2878
 1595PEP     CB60107   2.568  21.295   4.509 -0.2090 -0.1745  0.1577
 1595PEP     CB60108   2.801  21.125   4.222 -0.3066  0.2896  0.1901
 1595PEP     CB60109   3.044  20.809   4.085  0.2514 -0.0345 -0.2556
 1595PEP     CB60110   3.232  20.474   4.133  0.0185  0.0690 -0.0019
 1595PEP     CB60111   3.209  20.060   4.308  0.1119 -0.3141 -0.2090
 1595PEP     CB60112   3.229  19.736   4.401 -0.2269 -0.2616 -0.1598
 1595PEP     CB60113   2.961  19.458   4.582  0.1735  0.3834  0.0737
 1595PEP     CB60114   2.554  19.244   4.445 -0.2209  0.1583  0.4072
 1595PEP     CB60115   2.259  18.905   4.324  0.2856  0.3126  0.0326
 1595PEP     CB60116   2.003  18.530   4.260 -0.3368  0.0786 -0.4987
 1595PEP     CB60117   1.578  18.450   4.339 -0.1243 -0.0973  0.3076
 1595PEP     CB60118   1.161  18.502   4.469  0.4893 -0.4517  0.3186
 1595PEP     CB60119   0.817  18.641   4.701  0.2260 -0.3701 -0.1498
 1595PEP     CB60120   0.454  18.753   4.962 -0.0966  0.0042 -0.2066
 1596PEP     CB60121   2.991  14.285  16.510 -0.0820 -0.3883  0.4362
 1596PEP     CB60122   2.969  14.581  16.716 -0.0887 -0.0321 -0.2605
 1596PEP     CB60123   3.304  14.781  17.074  0.0645 -0.2049  0.1139
 1596PEP     CB60124   3.519  15.271  17.158 -0.0984  0.1566  0.1307
 1596PEP     CB60125   3.762  15.691  17.336  0.1918  0.3285 -0.0005
 1596PEP     CB60126   3.930  16.161  17.489  0.2881  0.4596 -0.0850
 1596PEP     CB60127   4.163  16.144  17.964 -0.0029 -0.2060 -0.0578
 1596PEP     CB60128   4.100  15.810  18.159  0.0185 -0.4020 -0.0882
 1596PEP     CB60129   3.772  15.539  18.267  0.0409  0.0240 -0.3171
 1596PEP     CB60130   3.391  15.563  18.297  0.1469 -0.0381 -0.2887
 1596PEP     CB60131   2.988  15.347  18.194  0.0736  0.3791 -0.0256
 1596PEP     CB60132   2.869  14.985  18.276 -0.1774 -0.1099  0.2918
 1596PEP     CB60133   3.020  14.590  18.557  0.0638 -0.1488 -0.0826
 1596PEP     CB60134   3.439  14.523  18.746 -0.1782  0.2056  0.5028
 1596PEP     CB60135   3.760  14.480  19.012  0.0210  0.1758  0.4709
 1596PEP     CB60136   4.181  14.467  19.233 -0.3571 -0.0895  0.5224
 1596PEP     CB60137   4.571  14.742  19.188 -0.1014 -0.3131 -0.0071
 1596PEP     CB60138   4.956  14.686  18.989 -0.0222 -0.0574 -0.1319
 1596PEP     CB60139   5.339  14.740  18.816  0.2191  0.0608  0.3118
 1596PEP     CB60140   5.680  14.716  18.715 -0.1062 -0.0459 -0.1574
 1596PEP     CB60141   6.036  14.591  18.880  0.1860 -0.2669 -0.1514
 1596PEP     CB60142   6.250  14.551  19.199 -0.2330 -0.3441 -0.1839
 1596PEP     CB60143   6.542  14.423  19.547  0.4484  0.1832 -0.0708
 1596PEP     CB60144   6.847  14.100  19.497 -0.2738 -0.0058  0.1006
 1596PEP     CB60145   6.840  13.827  19.063 -0.4281  0.2320 -0.0830
 1596PEP     CB60146   6.573  13.581  18.876  0.2598 -0.1744 -0.3604
 1596PEP     CB60147   6.232  13.699  18.565 -0.1512  0.0271  0.0510
 1596PEP     CB60148   5.839  13.694  18.722 -0.3863 -0.2045 -0.1524
 1596PEP     CB60149   5.784  13.560  19.207  0.1446  0.0064 -0.0884
 1596PEP     CB60150   5.551  13.541  19.569 -0.0998 -0.0059  0.3494
 1596PEP     CB60151   5.469  13.794  19.937  0.0897  0.1661  0.2590
 1596PEP     CB60152   5.349  13.826  20.323 -0.0290 -0.2907 -0.0036
 1596PEP     CB60153   5.017  14.077  20.631  0.0060  0.2923 -0.0398
 1596PEP     CB60154   4.840  14.081  21.086  0.1498 -0.1698  0.0978
 1596PEP     CB60155   4.744  13.772  21.432  0.2082  0.0104 -0.2028
 1596PEP     CB60156   4.606  13.563  21.862  0.1879  0.0435 -0.0330
 1596PEP     CB60157   4.125  13.571  21.999  0.1160  0.1208 -0.2033
 1596PEP     CB60158   3.768  13.861  21.990 -0.0106  0.4213  0.0405
 1596PEP     CB60159   3.554  14.172  21.625 -0.0329 -0.1659 -0.0121
 1596PEP     CB60160   3.052  14.258  21.535 -0.4911  0.0462  0.4306
 1597PEP     CB60161   2.513  17.599  15.091  0.0279 -0.2353 -0.1716
 1597PEP     CB60162   2.515  17.989  15.080 -0.1454  0.1269  0.0056
 1597PEP     CB60163   2.396  18.464  14.989  0.2093 -0.0555  0.2419
 1597PEP     CB60164   2.120  18.672  15.148  0.1013  0.0942  0.1546
 1597PEP     CB60165   2.148  18.697  15.602 -0.3215 -0.2179  0.2172
 1597PEP     CB60166   2.055  18.383  15.831 -0.3277 -0.2582  0.1687
 1597PEP     CB60167   1.929  17.889  15.607  0.1297 -0.1282 -0.1331
 1597PEP     CB60168   1.645  17.838  15.267  0.2114 -0.1206  0.0455
 1597PEP     CB60169   1.508  18.033  14.821 -0.0866 -0.0023  0.0827
 1597PEP     CB60170   1.361  18.025  14.380 -0.0180 -0.0180  0.2162
 1597PEP     CB60171   1.111  18.028  14.098 -0.2884 -0.3358  0.1169
 1597PEP     CB60172   0.660  18.215  14.163 -0.6050  0.2565 -0.0664
 1597PEP     CB60173   0.369  18.498  14.000  0.4320 -0.0424 -0.0815
 1597PEP     CB60174   0.129  18.885  13.781 -0.0624  0.3335 -0.1287
 1597PEP     CB60175  -0.104  19.166  13.546  0.1386 -0.0151  0.0108
 1597PEP     CB60176  -0.559  19.331  13.506  0.1236 -0.2749  0.0129
 1597PEP     CB60177  -0.856  19.547  13.663  0.1600  0.0289  0.5593
 1597PEP     CB60178  -1.057  19.960  13.867  0.3314 -0.2056 -0.1595
 1597PEP     CB60179  -1.375  20.354  13.840 -0.2212 -0.1061 -0.0406
 1597PEP     CB60180  -1.856  20.264  13.867 -0.2275  0.2336 -0.4003
 1597PEP     CB60181  -2.168  20.457  13.954 -0.1042  0.3357 -0.2718
 1597PEP     CB60182  -2.331  20.851  14.041 -0.1762 -0.1340 -0.0366
 1597PEP     CB60183  -2.418  21.265  13.961  0.1998  0.0105 -0.1907
 1597PEP     CB60184  -2.216  21.595  14.185  0.1847 -0.1860 -0.1220
 1597PEP     CB60185  -1.998  22.051  14.204  0.2437 -0.1475  0.1249
 1597PEP     CB60186  -1.775  22.462  14.070 -0.4290  0.1068 -0.1418
 1597PEP     CB60187  -1.441  22.640  14.188 -0.0109  0.1252  0.0423
 1597PEP     CB60188  -1.277  22.920  14.374  0.2690  0.1648 -0.2457
 1597PEP     CB60189  -1.198  23.224  14.589  0.2416  0.2246 -0.0002
 1597PEP     CB60190  -0.979  23.512  14.888 -0.2851 -0.3671  0.1329
 1597PEP     CB60191  -0.982  23.727  15.195 -0.1211 -0.4959  0.1852
 1597PEP     CB60192  -0.974  23.964  15.505 -0.2059 -0.0527  0.2211
 1597PEP     CB60193  -0.833  24.340  15.544 -0.0016 -0.1647  0.1000
 1597PEP     CB60194  -0.721  24.729  15.383  0.1810  0.2782  0.4265
 1597PEP     CB60195  -0.698  25.119  15.580  0.2040 -0.0263 -0.0144
 1597PEP     CB60196  -0.945  25.494  15.777  0.1610  0.0987 -0.2472
 1597PEP     CB60197  -1.248  25.844  15.900  0.1485 -0.2409 -0.0402
 1597PEP     CB60198  -1.701  25.622  16.190 -0.3777  0.0974 -0.1439
 1597PEP     CB60199  -1.593  25.330  16.565  0.1345 -0.2164  0.2088
 1597PEP     CB60200  -1.507  25.263  16.993 -0.0388 -0.5247  0.5948
 1598PEP     CB60201   1.442  17.772  12.115 -0.0301 -0.1029  0.2230
 1598PEP     CB60202   1.422  17.756  11.637  0.1892  0.0312  0.0495
 1598PEP     CB60203   1.486  17.687  11.109 -0.3649 -0.0037 -0.0061
 1598PEP     CB60204   1.370  17.659  10.741  0.0897  0.0439  0.1262
 1598PEP     CB60205   1.092  17.514  10.471 -0.1788  0.1737  0.5448
 1598PEP     CB60206   0.838  17.430  10.029  0.2390  0.1682 -0.4462
 1598PEP     CB60207   0.810  17.186   9.627  0.0235  0.0969 -0.0225
 1598PEP     CB60208   0.703  16.997   9.154  0.0292  0.1984  0.1906
 1598PEP     CB60209   0.707  16.611   8.962  0.0777 -0.0843  0.2803
 1598PEP     CB60210   0.582  16.276   9.228  0.0811  0.0445  0.0178
 1598PEP     CB60211   0.443  16.252   9.718  0.0211 -0.0851  0.1519
 1598PEP     CB60212   0.248  16.063   9.963 -0.1493  0.2794  0.2168
 1598PEP     CB60213  -0.074  15.876  10.248 -0.2769  0.2283  0.2785
 1598PEP     CB60214  -0.465  15.853  10.360 -0.0985  0.0758 -0.1617
 1598PEP     CB60215  -0.810  15.650  10.346  0.0755  0.1026 -0.3452
 1598PEP     CB60216  -1.152  15.449  10.632  0.3791 -0.3553  0.2102
 1598PEP     CB60217  -1.468  15.087  10.658  0.2201  0.2774 -0.0582
 1598PEP     CB60218  -1.859  14.849  10.806  0.1943 -0.2644 -0.1361
 1598PEP     CB60219  -2.297  14.986  10.815  0.1063  0.1332 -0.3284
 1598PEP     CB60220  -2.716  15.099  10.863  0.0457 -0.3921 -0.2119
 1598PEP     CB60221  -2.904  15.374  11.272  0.1358  0.0561  0.1128
 1598PEP     CB60222  -2.608  15.487  11.664 -0.1142 -0.1110  0.1445
 1598PEP     CB60223  -2.140  15.338  11.702  0.0662  0.1704 -0.0396
 1598PEP     CB60224  -1.910  15.036  11.588  0.1714  0.2465  0.1812
 1598PEP     CB60225  -1.683  14.831  11.822  0.2058 -0.0002  0.1502
 1598PEP     CB60226  -1.510  14.914  12.202 -0.2234 -0.1030  0.6461
 1598PEP     CB60227  -1.312  14.721  12.528 -0.1861 -0.2551 -0.0143
 1598PEP     CB60228  -0.981  14.809  12.775 -0.0130  0.1929 -0.0056
 1598PEP     CB60229  -0.693  15.175  12.683  0.2821  0.7077 -0.1241
 1598PEP     CB60230  -0.593  15.481  12.379  0.1705  0.4110 -0.3995
 1598PEP     CB60231  -0.503  15.495  11.969  0.0623 -0.2913 -0.1811
 1598PEP     CB60232  -0.515  15.096  11.779  0.0590 -0.0997 -0.0506
 1598PEP     CB60233  -0.477  14.904  11.381  0.1141  0.2107  0.0867
 1598PEP     CB60234  -0.584  14.515  11.197 -0.3073  0.1506 -0.3265
 1598PEP     CB60235  -0.614  14.111  10.880  0.0055  0.6693  0.2736
 1598PEP     CB60236  -0.746  13.863  10.426 -0.1912  0.0941 -0.0977
 1598PEP     CB60237  -0.803  13.764  10.054 -0.0872  0.2507  0.0704
 1598PEP     CB60238  -0.925  14.011   9.632  0.2758 -0.2349 -0.2057
 1598PEP     CB60239  -1.255  13.984   9.346  0.0944 -0.2723 -0.3220
 1598PEP     CB60240  -1.634  14.096   9.307  0.1707 -0.1628  0.3081
 1599PEP     CB60241  19.016   8.614   4.890 -0.0603  0.1221 -0.0399
 1599PEP     CB60242  18.639   8.384   5.027 -0.0077 -0.0915  0.0670
 1599PEP     CB60243  18.242   8.170   5.199  0.0462 -0.0789  0.3335
 1599PEP     CB60244  17.862   8.062   5.389 -0.0967  0.2583 -0.4229
 1599PEP     CB60245  17.454   8.237   5.543  0.2379  0.3060 -0.0097
 1599PEP     CB60246  17.004   8.145   5.539  0.2908 -0.3567 -0.2826
 1599PEP     CB60247  16.563   8.196   5.515  0.0872  0.1761 -0.2701
 1599PEP     CB60248  16.307   7.993   5.565  0.3377  0.1987  0.1587
 1599PEP     CB60249  16.020   8.076   5.859 -0.2176  0.2757  0.1300
 1599PEP     CB60250  15.860   8.439   6.188  0.2627 -0.2035 -0.1659
 1599PEP     CB60251  16.073   8.602   6.525 -0.3909 -0.1888 -0.0173
 1599PEP     CB60252  16.285   8.388   6.886 -0.0019 -0.0100  0.0037
 1599PEP     CB60253  16.109   8.162   7.184  0.4339  0.1639 -0.3694
 1599PEP     CB60254  15.987   7.748   7.110  0.3039 -0.0507  0.2918
 1599PEP     CB60255  16.067   7.518   6.746  0.3940 -0.1043  0.0270
 1599PEP     CB60256  16.124   7.721   6.344 -0.1142  0.3165  0.2112
 1599PEP     CB60257  16.327   8.154   6.222 -0.1923 -0.3726 -0.2195
 1599PEP     CB60258  16.598   8.536   6.429  0.0354  0.1309 -0.0904
 1599PEP     CB60259  16.762   8.337   6.849 -0.3722 -0.1161  0.1148
 1599PEP     CB60260  16.981   7.856   6.827 -0.2125  0.1539  0.0252
 1599PEP     CB60261  17.012   7.465   6.834  0.1050  0.2744 -0.2967
 1599PEP     CB60262  16.980   7.081   6.942 -0.0792  0.1275 -0.1989
 1599PEP     CB60263  17.257   6.638   6.932  0.0073  0.3383  0.3937
 1599PEP     CB60264  17.521   6.261   7.091  0.0392  0.0941 -0.2927
 1599PEP     CB60265  17.710   5.989   7.427  0.1991  0.0259 -0.1905
 1599PEP     CB60266  17.922   5.421   7.503  0.2824 -0.0670 -0.3166
 1599PEP     CB60267  18.126   5.040   7.451  0.3731  0.0870 -0.0895
 1599PEP     CB60268  18.192   4.605   7.587  0.0038 -0.1055 -0.0808
 1599PEP     CB60269  18.074   4.249   7.470  0.1130 -0.0484  0.1746
 1599PEP     CB60270  17.863   3.835   7.683 -0.0086 -0.0349 -0.1538
 1599PEP     CB60271  17.707   3.709   8.031 -0.7553 -0.2493  0.3647
 1599PEP     CB60272  17.356   3.455   8.308 -0.3859 -0.2201  0.4060
 1599PEP     CB60273  17.293   3.134   8.606  0.2915  0.4596  0.2308
 1599PEP     CB60274  17.318   3.097   9.110 -0.3056  0.0752 -0.2970
 1599PEP     CB60275  17.103   3.238   9.464 -0.0550 -0.1342 -0.0275
 1599PEP     CB60276  17.223   3.510   9.786  0.2102 -0.3815  0.0986
 1599PEP     CB60277  17.624   3.541  10.091  0.3487 -0.1544 -0.3926
 1599PEP     CB60278  17.823   3.493  10.527 -0.1566 -0.5639  0.2278
 1599PEP     CB60279  17.917   3.150  11.002 -0.2002  0.0456  0.3491
 1599PEP     CB60280  17.786   2.955  11.286 -0.1689 -0.0797  0.4050
 1600PEP     CB60281  11.283   0.153   1.108 -0.1682  0.0108  0.0928
 1600PEP     CB60282  10.957  -0.120   1.266 -0.0074 -0.1259  0.1201
 1600PEP     CB60283  10.817  -0.355   1.590  0.1704 -0.2479  0.1277
 1600PEP     CB60284  10.685  -0.586   1.954  0.3753  0.0961 -0.0788
 1600PEP     CB60285  10.841  -0.949   2.105  0.0666  0.1456  0.3973
 1600PEP     CB60286  10.950  -1.206   2.330 -0.0856  0.1628 -0.5565
 1600PEP     CB60287  11.259  -1.343   2.412 -0.1821  0.1387 -0.0010
 1600PEP     CB60288  11.418  -1.693   2.309  0.0342 -0.0863  0.0060
 1600PEP     CB60289  11.386  -2.112   2.507  0.1885  0.3445 -0.1632
 1600PEP     CB60290  11.482  -2.393   2.907 -0.1082 -0.2364 -0.2412
 1600PEP     CB60291  11.430  -2.813   2.978  0.1251 -0.1812  0.1699
 1600PEP     CB60292  11.175  -3.128   2.695  0.0023  0.0793  0.0034
 1600PEP     CB60293  11.152  -3.264   2.268  0.5060  0.0850  0.0021
 1600PEP     CB60294  11.463  -3.210   2.009  0.1658  0.2091  0.0853
 1600PEP     CB60295  11.686  -2.813   1.972  0.0246  0.2946  0.1492
 1600PEP     CB60296  11.525  -2.457   1.880  0.2372  0.3332 -0.4491
 1600PEP     CB60297  11.143  -2.340   2.138 -0.0665  0.6659  0.5262
 1600PEP     CB60298  10.693  -2.416   2.281  0.4263  0.5047  0.2349
 1600PEP     CB60299  10.436  -2.292   2.681  0.1604  0.0393 -0.1377
 1600PEP     CB60300  10.457  -2.245   3.179  0.2488  0.2496  0.0660
 1600PEP     CB60301  10.514  -2.417   3.549 -0.0030 -0.0722 -0.0286
 1600PEP     CB60302  10.440  -2.651   3.847  0.1721  0.0431 -0.1507
 1600PEP     CB60303  10.292  -2.592   4.306  0.0285 -0.0585  0.0307
 1600PEP     CB60304   9.993  -2.594   4.649  0.0811 -0.0315  0.1267
 1600PEP     CB60305   9.850  -2.452   5.042 -0.3088  0.1250  0.0834
 1600PEP     CB60306   9.578  -2.753   5.237 -0.0336 -0.2806 -0.2311
 1600PEP     CB60307   9.409  -3.055   5.396 -0.1552 -0.3168  0.1641
 1600PEP     CB60308   9.062  -3.063   5.636  0.0917  0.1988 -0.5033
 1600PEP     CB60309   8.870  -2.760   5.753 -0.1496  0.2477 -0.5450
 1600PEP     CB60310   8.721  -2.375   5.569  0.1106  0.2255 -0.0365
 1600PEP     CB60311   8.775  -2.230   5.188  0.2159  0.0122  0.3462
 1600PEP     CB60312   8.860  -1.830   5.060  0.2386 -0.0630 -0.3205
 1600PEP     CB60313   8.880  -1.405   5.321  0.1277 -0.1527 -0.3021
 1600PEP     CB60314   8.785  -1.394   5.800 -0.3986 -0.3739 -0.4015
 1600PEP     CB60315   8.500  -1.699   6.032  0.0664  0.0744  0.0008
 1600PEP     CB60316   8.429  -2.085   5.947 -0.0288 -0.1627  0.5547
 1600PEP     CB60317   8.253  -2.256   5.542 -0.0106 -0.0413  0.4100
 1600PEP     CB60318   8.327  -2.038   5.218  0.0098 -0.5041  0.1825
 1600PEP     CB60319   8.438  -1.615   5.093 -0.0049 -0.0604 -0.1749
 1600PEP     CB60320   8.331  -1.212   5.221  0.1771  0.2924  0.2672
 1601PEP     CB60321  13.076  21.656  21.681 -0.0407  0.0947  0.0705
 1601PEP     CB60322  13.210  22.039  21.834 -0.1922 -0.4304  0.0851
 1601PEP     CB60323  13.319  22.440  21.745  0.2951  0.6232 -0.3474
 1601PEP     CB60324  13.267  22.925  21.570  0.1789 -0.3237 -0.4522
 1601PEP     CB60325  13.040  23.304  21.778  0.1453 -0.1609  0.0632
 1601PEP     CB60326  12.632  23.525  21.823  0.0135 -0.3783  0.0992
 1601PEP     CB60327  12.287  23.348  22.095  0.2412  0.3369  0.1281
 1601PEP     CB60328  12.276  23.219  22.591  0.3403  0.3935  0.2072
 1601PEP     CB60329  12.631  23.307  22.830  0.1255 -0.0710  0.0455
 1601PEP     CB60330  12.958  23.660  22.707 -0.3252  0.2507 -0.0933
 1601PEP     CB60331  12.914  23.987  22.591  0.0438 -0.0781 -0.0880
 1601PEP     CB60332  12.984  24.232  22.271 -0.8066 -0.0833  0.0866
 1601PEP     CB60333  12.829  24.091  21.810  0.0885  0.1039  0.1551
 1601PEP     CB60334  12.578  24.096  21.454  0.3166 -0.2483 -0.1805
 1601PEP     CB60335  12.165  24.019  21.142 -0.1510 -0.2036 -0.1671
 1601PEP     CB60336  11.805  23.796  21.145 -0.2267  0.1666 -0.0711
 1601PEP     CB60337  11.451  23.736  21.117  0.2463  0.2739 -0.0693
 1601PEP     CB60338  11.004  23.749  20.956 -0.1473  0.0590 -0.0975
 1601PEP     CB60339  10.750  23.974  20.713  0.1319  0.0708 -0.1265
 1601PEP     CB60340  10.821  24.123  20.351  0.1935  0.0005 -0.0496
 1601PEP     CB60341  10.961  24.210  19.913  0.0179 -0.1462 -0.0584
 1601PEP     CB60342  11.172  23.995  19.637 -0.3469  0.1270  0.1146
 1601PEP     CB60343  11.250  23.638  19.433 -0.1203  0.0572 -0.0872
 1601PEP     CB60344  11.393  23.401  19.551 -0.1367 -0.1597  0.2127
 1601PEP     CB60345  11.676  23.069  19.726  0.0826 -0.0930 -0.2012
 1601PEP     CB60346  11.822  22.626  19.952  0.1084  0.3839  0.0104
 1601PEP     CB60347  12.000  22.272  20.134 -0.0170  0.3374  0.2259
 1601PEP     CB60348  12.242  22.086  20.495 -0.3166 -0.0994 -0.0792
 1601PEP     CB60349  12.539  21.846  20.698  0.1816 -0.1084 -0.1923
 1601PEP     CB60350  12.856  21.746  20.936 -0.2699  0.1457 -0.3071
 1601PEP     CB60351  13.302  21.786  20.868  0.2640 -0.3483  0.0445
 1601PEP     CB60352  13.779  21.618  20.739  0.3625  0.2569 -0.5162
 1601PEP     CB60353  14.300  21.563  20.763 -0.1074 -0.0908 -0.1754
 1601PEP     CB60354  14.603  21.271  20.629  0.0427 -0.1443 -0.1926
 1601PEP     CB60355  14.757  21.207  20.250 -0.0068 -0.2395 -0.1127
 1601PEP     CB60356  14.917  21.052  19.851  0.3627 -0.0525  0.0263
 1601PEP     CB60357  15.217  20.918  19.523 -0.2697  0.3277 -0.2002
 1601PEP     CB60358  15.187  20.612  19.173  0.1414  0.0457  0.3561
 1601PEP     CB60359  15.092  20.446  18.761 -0.1193 -0.1142 -0.0381
 1601PEP     CB60360  15.160  20.242  18.450  0.3654 -0.0116  0.2915
 1602PEP     CB60361  15.663   5.468  16.390 -0.3922 -0.0901  0.0283
 1602PEP     CB60362  15.337   5.187  16.277 -0.3648  0.0935  0.4892
 1602PEP     CB60363  15.280   4.822  16.026 -0.1816 -0.0767  0.2264
 1602PEP     CB60364  15.498   4.641  15.712  0.0755 -0.2537  0.2299
 1602PEP     CB60365  15.939   4.411  15.614 -0.4180  0.3657 -0.1074
 1602PEP     CB60366  16.145   4.197  15.277 -0.0628 -0.1511 -0.4177
 1602PEP     CB60367  16.146   4.368  14.854  0.4548 -0.0283 -0.0748
 1602PEP     CB60368  15.713   4.617  14.505 -0.3025 -0.0199  0.0439
 1602PEP     CB60369  15.346   4.391  14.460  0.0565 -0.3968  0.1511
 1602PEP     CB60370  15.196   4.089  14.778 -0.4150 -0.0081  0.2879
 1602PEP     CB60371  15.343   3.725  14.940 -0.1282 -0.1153  0.1022
 1602PEP     CB60372  15.603   3.401  15.090 -0.1114  0.1338  0.2083
 1602PEP     CB60373  15.638   3.017  15.329 -0.0943  0.3399  0.4281
 1602PEP     CB60374  15.629   2.853  15.738 -0.3432 -0.1258  0.1740
 1602PEP     CB60375  15.793   2.494  16.018 -0.3370 -0.2993  0.1808
 1602PEP     CB60376  15.986   2.127  16.347 -0.0001 -0.2214  0.7081
 1602PEP     CB60377  16.228   1.955  16.648 -0.4556  0.3188  0.2605
 1602PEP     CB60378  16.682   1.695  16.725  0.0087 -0.0518  0.1090
 1602PEP     CB60379  16.963   1.374  16.825 -0.0773  0.1255 -0.2919
 1602PEP     CB60380  17.320   1.126  16.735 -0.3213 -0.6045 -0.0079
 1602PEP     CB60381  17.520   0.837  16.495 -0.6298 -0.0330 -0.3183
 1602PEP     CB60382  17.732   0.741  16.135 -0.0041 -0.2156 -0.0405
 1602PEP     CB60383  17.939   0.598  15.751 -0.0039  0.1521  0.0762
 1602PEP     CB60384  18.340   0.407  15.565 -0.0294  0.0508  0.1090
 1602PEP     CB60385  18.769   0.340  15.252  0.2584  0.0476  0.0680
 1602PEP     CB60386  19.148   0.414  15.094 -0.2447 -0.0329  0.1312
 1602PEP     CB60387  19.494   0.180  15.154 -0.0208 -0.2541 -0.4459
 1602PEP     CB60388  19.487  -0.261  15.353 -0.5515 -0.0666  0.1734
 1602PEP     CB60389  19.649  -0.537  15.575 -0.1567 -0.1362  0.0942
 1602PEP     CB60390  19.756  -0.496  15.952 -0.4851  0.0305 -0.0855
 1602PEP     CB60391  19.749  -0.340  16.357  0.1215  0.0917 -0.1724
 1602PEP     CB60392  19.576  -0.009  16.631  0.0082 -0.1617  0.3674
 1602PEP     CB60393  19.473   0.290  16.692 -0.0716 -0.3928  0.1400
 1602PEP     CB60394  19.633   0.721  16.755 -0.0798  0.4492 -0.3724
 1602PEP     CB60395  19.899   0.891  17.188 -0.3743  0.1216  0.1401
 1602PEP     CB60396  19.916   1.094  17.597 -0.0392 -0.1383  0.3940
 1602PEP     CB60397  19.988   1.515  17.600  0.1954 -0.2123  0.0595
 1602PEP     CB60398  20.236   1.735  17.375 -0.2932 -0.0447 -0.2348
 1602PEP     CB60399  20.711   1.615  17.366 -0.1065  0.1061 -0.2206
 1602PEP     CB60400  20.761   1.162  17.375 -0.4639  0.1142  0.0715
 1603PEP     CB60401  15.094   3.008  15.072  0.0136 -0.1604  0.0950
 1603PEP     CB60402  15.165   2.549  15.043  0.1361 -0.2442  0.3677
 1603PEP     CB60403  15.460   2.315  14.959 -0.1952  0.5007  0.0274
 1603PEP     CB60404  15.622   1.988  14.794 -0.4339  0.2569  0.0304
 1603PEP     CB60405  15.841   1.670  14.609 -0.0110  0.1823 -0.1727
 1603PEP     CB60406  15.947   1.342  14.354  0.1443 -0.2988  0.2260
 1603PEP     CB60407  16.175   0.946  14.161  0.1326  0.1150 -0.1172
 1603PEP     CB60408  16.206   0.540  14.175 -0.3525  0.1611  0.0785
 1603PEP     CB60409  16.164   0.172  14.508 -0.2812  0.0566  0.3614
 1603PEP     CB60410  15.898   0.121  14.874 -0.3148  0.0849 -0.2246
 1603PEP     CB60411  15.644   0.067  15.143  0.3203  0.0885  0.1129
 1603PEP     CB60412  15.212   0.058  15.405 -0.5544  0.1024 -0.3491
 1603PEP     CB60413  14.797   0.012  15.521 -0.1259 -0.0437 -0.0125
 1603PEP     CB60414  14.604   0.144  15.878  0.0224 -0.0699 -0.0292
 1603PEP     CB60415  14.368   0.210  16.275  0.0851  0.0975  0.0103
 1603PEP     CB60416  14.071   0.471  16.435 -0.1887 -0.1434 -0.0968
 1603PEP     CB60417  13.772   0.549  16.734 -0.1523 -0.2397 -0.1050
 1603PEP     CB60418  13.711   0.941  16.816 -0.2062 -0.0752 -0.4033
 1603PEP     CB60419  13.333   1.210  16.908 -0.0383  0.0991  0.0613
 1603PEP     CB60420  13.085   1.521  17.174  0.2226  0.1569  0.1483
 1603PEP     CB60421  12.904   1.632  17.659 -0.1958 -0.0147 -0.2186
 1603PEP     CB60422  12.486   1.833  17.782  0.0884  0.0929  0.1169
 1603PEP     CB60423  12.071   2.011  18.002 -0.3557 -0.1403 -0.2783
 1603PEP     CB60424  11.904   2.363  17.970 -0.0985 -0.1514  0.0284
 1603PEP     CB60425  11.969   2.736  17.686 -0.2391  0.1261  0.3990
 1603PEP     CB60426  12.030   3.023  17.314 -0.1480  0.0123 -0.0987
 1603PEP     CB60427  11.835   3.094  16.972  0.1023  0.2514  0.1675
 1603PEP     CB60428  12.015   3.243  16.541  0.2501  0.1637 -0.0602
 1603PEP     CB60429  12.294   3.577  16.494 -0.1261  0.0249 -0.2436
 1603PEP     CB60430  12.745   3.653  16.447  0.2372  0.0866  0.0396
 1603PEP     CB60431  13.080   3.356  16.378 -0.2098 -0.0557 -0.0974
 1603PEP     CB60432  13.066   2.917  16.408  0.3266  0.2689 -0.1529
 1603PEP     CB60433  12.703   2.612  16.368  0.0213 -0.2449  0.3384
 1603PEP     CB60434  12.212   2.452  16.284  0.1417  0.1911 -0.0922
 1603PEP     CB60435  11.828   2.184  16.354  0.2589  0.2918 -0.2453
 1603PEP     CB60436  11.441   2.064  16.274  0.2819 -0.4368 -0.2470
 1603PEP     CB60437  11.256   2.128  15.896  0.0180 -0.1736 -0.0611
 1603PEP     CB60438  11.028   2.066  15.530 -0.2008 -0.3852  0.1127
 1603PEP     CB60439  10.776   1.746  15.219  0.2546 -0.1547 -0.2061
 1603PEP     CB60440  10.487   1.481  15.368  0.1258 -0.1403  0.3136
 1604PEP     CB60441   9.131  22.036   8.070 -0.4780 -0.0934  0.3246
 1604PEP     CB60442   9.116  22.195   7.639  0.4270 -0.0563 -0.0276
 1604PEP     CB60443   8.926  22.555   7.356 -0.4332  0.0063 -0.0734
 1604PEP     CB60444   8.509  22.740   7.422 -0.1146 -0.3194 -0.0294
 1604PEP     CB60445   8.243  22.667   7.725  0.0112 -0.0862  0.0438
 1604PEP     CB60446   8.298  22.632   8.180  0.1466  0.0001  0.0111
 1604PEP     CB60447   8.412  22.788   8.585 -0.2728  0.0147  0.1182
 1604PEP     CB60448   8.365  22.801   8.952  0.2713 -0.3624 -0.0690
 1604PEP     CB60449   8.017  22.720   9.217 -0.0072  0.0697  0.0829
 1604PEP     CB60450   7.530  22.646   8.994  0.4777 -0.4077 -0.3713
 1604PEP     CB60451   7.374  22.893   8.620  0.3577  0.3116  0.1728
 1604PEP     CB60452   7.030  22.833   8.338  0.0674  0.2040  0.2217
 1604PEP     CB60453   6.628  22.603   8.238 -0.3026  0.1473  0.0341
 1604PEP     CB60454   6.126  22.533   8.244  0.0117  0.0940  0.0626
 1604PEP     CB60455   5.689  22.387   8.283 -0.0295 -0.0884  0.2106
 1604PEP     CB60456   5.374  22.236   8.618 -0.0056 -0.1363  0.1197
 1604PEP     CB60457   5.394  22.288   9.109 -0.1742 -0.0276 -0.1629
 1604PEP     CB60458   5.261  22.645   9.457  0.1831  0.0740 -0.1375
 1604PEP     CB60459   4.960  22.912   9.431  0.1452 -0.1013  0.1862
 1604PEP     CB60460   4.521  22.969   9.402  0.3021  0.1288 -0.0001
 1604PEP     CB60461   4.244  22.654   9.254 -0.2188  0.2881  0.2611
 1604PEP     CB60462   4.323  22.339   8.985  0.2944 -0.3881  0.2264
 1604PEP     CB60463   4.445  22.377   8.639 -0.4446  0.1510 -0.2307
 1604PEP     CB60464   4.749  22.236   8.412  0.1484  0.1204 -0.1557
 1604PEP     CB60465   5.005  22.022   8.063  0.2419  0.4153  0.0386
 1604PEP     CB60466   5.405  21.913   7.886  0.4223 -0.0241 -0.1871
 1604PEP     CB60467   5.550  21.402   7.839 -0.2648 -0.3256  0.3422
 1604PEP     CB60468   5.703  21.185   8.167  0.0954  0.0054 -0.1808
 1604PEP     CB60469   6.066  21.274   8.416 -0.0358  0.2142 -0.2785
 1604PEP     CB60470   6.488  21.394   8.614  0.1001 -0.2462  0.2524
 1604PEP     CB60471   6.803  21.646   8.520 -0.1050 -0.1594  0.3415
 1604PEP     CB60472   7.137  21.888   8.675 -0.5293 -0.5059 -0.2201
 1604PEP     CB60473   7.434  22.130   8.992  0.2248  0.2264  0.0993
 1604PEP     CB60474   7.693  22.250   9.303 -0.1544 -0.1016  0.0409
 1604PEP     CB60475   7.797  22.531   9.669 -0.0810 -0.1263 -0.3382
 1604PEP     CB60476   8.134  22.613  10.000 -0.0690  0.2714 -0.1485
 1604PEP     CB60477   8.457  22.601  10.275 -0.0206  0.2635 -0.0522
 1604PEP     CB60478   8.734  22.270  10.439  0.2487 -0.2800  0.0701
 1604PEP     CB60479   8.957  22.078  10.200 -0.0211 -0.2243  0.0569
 1604PEP     CB60480   9.294  21.697  10.201  0.3143 -0.2196  0.4274
 1605PEP     CB60481   4.093   8.163  10.484 -0.4506  0.3504  0.3573
 1605PEP     CB60482   3.703   7.930  10.496  0.1770 -0.1521 -0.2480
 1605PEP     CB60483   3.468   7.503  10.601 -0.4580 -0.0242 -0.2996
 1605PEP     CB60484   3.154   7.369  10.937  0.4743  0.1173 -0.0869
 1605PEP     CB60485   3.104   7.455  11.367 -0.0742  0.0637 -0.0809
 1605PEP     CB60486   3.581   7.558  11.572 -0.0985  0.1326  0.0146
 1605PEP     CB60487   3.868   7.576  11.836 -0.2501  0.1148 -0.0601
 1605PEP     CB60488   4.198   7.327  11.895  0.0439 -0.0455 -0.2236
 1605PEP     CB60489   4.388   6.924  11.885 -0.2792 -0.1652 -0.1424
 1605PEP     CB60490   4.419   6.575  12.137 -0.2136  0.1051 -0.2963
 1605PEP     CB60491   4.466   6.093  12.119  0.2780  0.1378 -0.0198
 1605PEP     CB60492   4.706   5.793  11.971 -0.1441 -0.2217 -0.0866
 1605PEP     CB60493   4.894   5.443  11.819  0.1468 -0.3077  0.0868
 1605PEP     CB60494   4.945   4.985  11.608 -0.2464 -0.2203  0.2640
 1605PEP     CB60495   4.809   4.554  11.811  0.1336 -0.0933 -0.1798
 1605PEP     CB60496   4.543   4.424  12.102  0.0372  0.0422 -0.1629
 1605PEP     CB60497   4.636   4.466  12.548 -0.0682 -0.3115 -0.1189
 1605PEP     CB60498   5.100   4.587  12.674 -0.1696 -0.1603  0.2368
 1605PEP     CB60499   5.485   4.791  12.681 -0.1863  0.0231 -0.2159
 1605PEP     CB60500   5.921   4.989  12.730  0.1332 -0.4765  0.0250
 1605PEP     CB60501   6.356   5.117  12.823  0.3039 -0.3966 -0.0869
 1605PEP     CB60502   6.669   5.459  12.754  0.3376  0.0290 -0.1488
 1605PEP     CB60503   6.989   5.743  12.762  0.1569  0.0335 -0.3701
 1605PEP     CB60504   7.307   5.928  12.888  0.0363  0.1159 -0.2518
 1605PEP     CB60505   7.677   5.981  13.138 -0.0107  0.0160  0.4562
 1605PEP     CB60506   7.891   6.241  13.448  0.0708  0.5940 -0.0544
 1605PEP     CB60507   7.724   6.505  13.784  0.1810 -0.3894  0.2915
 1605PEP     CB60508   7.402   6.859  13.941 -0.3486  0.2683 -0.1737
 1605PEP     CB60509   7.037   6.996  14.074  0.1016 -0.2033 -0.2109
 1605PEP     CB60510   6.646   7.193  14.015  0.3119 -0.2910  0.3085
 1605PEP     CB60511   6.341   7.479  14.269 -0.4744  0.0845 -0.0790
 1605PEP     CB60512   6.169   7.394  14.624  0.1384 -0.3074 -0.2636
 1605PEP     CB60513   5.855   7.218  14.760  0.0952  0.0027 -0.1688
 1605PEP     CB60514   5.467   7.201  15.018  0.3159  0.1145  0.0212
 1605PEP     CB60515   5.274   6.893  14.743  0.1304 -0.0211 -0.0471
 1605PEP     CB60516   5.565   6.682  14.466 -0.1175  0.1358  0.0544
 1605PEP     CB60517   5.891   6.841  14.339 -0.1649  0.0622 -0.4264
 1605PEP     CB60518   6.304   6.956  14.346  0.0953  0.1331  0.1383
 1605PEP     CB60519   6.615   6.788  14.387 -0.4023 -0.0837  0.0304
 1605PEP     CB60520   6.740   6.370  14.400  0.0158 -0.2119 -0.1301
 1606PEP     CB60521  12.651   4.273  12.717  0.1902  0.0479  0.0102
 1606PEP     CB60522  13.049   4.306  12.789  0.0394  0.0517 -0.1549
 1606PEP     CB60523  13.162   4.084  13.096 -0.1223  0.2435  0.3606
 1606PEP     CB60524  13.114   3.602  13.248  0.4080 -0.2615 -0.3752
 1606PEP     CB60525  13.249   3.295  13.561  0.1226 -0.3155 -0.1542
 1606PEP     CB60526  13.240   2.946  13.716 -0.4795  0.1388  0.1612
 1606PEP     CB60527  12.911   2.713  13.915 -0.0037  0.0203 -0.1340
 1606PEP     CB60528  12.534   2.749  14.023 -0.2066  0.0541 -0.0615
 1606PEP     CB60529  11.995   2.755  14.203 -0.0007  0.1327 -0.2572
 1606PEP     CB60530  11.697   2.580  14.482  0.2652 -0.1101 -0.0154
 1606PEP     CB60531  11.422   2.807  14.725  0.0853 -0.0044 -0.3733
 1606PEP     CB60532  11.250   3.303  14.667  0.0817  0.2679  0.3505
 1606PEP     CB60533  10.921   3.421  14.362 -0.1144  0.1014  0.2197
 1606PEP     CB60534  10.568   3.238  14.156 -0.0123  0.1477  0.1469
 1606PEP     CB60535  10.307   3.133  13.785  0.1134  0.1282  0.0729
 1606PEP     CB60536  10.033   3.131  13.405  0.0291  0.1955  0.0396
 1606PEP     CB60537   9.736   3.140  13.045  0.0353  0.2206  0.0890
 1606PEP     CB60538   9.624   2.842  12.778  0.3527 -0.1588  0.0054
 1606PEP     CB60539   9.684   2.480  12.544  0.0139  0.3042 -0.1547
 1606PEP     CB60540   9.604   2.312  12.105 -0.2073  0.4557 -0.0071
 1606PEP     CB60541   9.520   2.126  11.664 -0.0424  0.4621 -0.0106
 1606PEP     CB60542   9.230   2.017  11.279  0.1260  0.2831  0.3090
 1606PEP     CB60543   8.964   1.653  11.212  0.1031  0.0235  0.0624
 1606PEP     CB60544   8.764   1.211  11.047  0.2581 -0.1502  0.1170
 1606PEP     CB60545   8.529   0.914  11.232 -0.0046  0.1049 -0.3150
 1606PEP     CB60546   8.350   0.587  11.534  0.4603  0.2342 -0.1449
 1606PEP     CB60547   8.191   0.332  11.859 -0.0175 -0.1495 -0.3581
 1606PEP     CB60548   8.124  -0.164  11.928  0.2537  0.3476 -0.1535
 1606PEP     CB60549   7.932  -0.504  11.803  0.4545 -0.2044 -0.3333
 1606PEP     CB60550   7.970  -0.753  11.497 -0.1693 -0.0183 -0.1583
 1606PEP     CB60551   8.262  -1.009  11.345  0.1652 -0.1424 -0.0508
 1606PEP     CB60552   8.407  -1.458  11.408 -0.0260  0.1616  0.0579
 1606PEP     CB60553   8.481  -1.837  11.574  0.2162  0.0176  0.0522
 1606PEP     CB60554   8.628  -2.144  11.863  0.0067 -0.1918  0.3750
 1606PEP     CB60555   8.452  -2.363  12.275 -0.2924  0.1522 -0.1106
 1606PEP     CB60556   8.364  -2.350  12.710  0.3091 -0.0347  0.0220
 1606PEP     CB60557   8.515  -2.554  13.111 -0.2630  0.1462  0.0526
 1606PEP     CB60558   8.490  -2.661  13.533  0.2179 -0.0502 -0.3784
 1606PEP     CB60559   8.298  -2.522  13.904 -0.0476  0.1888 -0.3386
 1606PEP     CB60560   8.088  -2.229  14.162 -0.0810  0.1116  0.0428
 1607PEP     CB60561  20.550  15.427  14.713 -0.4125 -0.2501 -0.0727
 1607PEP     CB60562  20.923  15.723  14.895  0.1849  0.3363 -0.2038
 1607PEP     CB60563  21.227  16.107  14.900 -0.0278 -0.2261  0.4381
 1607PEP     CB60564  21.345  16.561  14.748 -0.0273 -0.3243  0.0952
 1607PEP     CB60565  21.591  16.936  14.774  0.0059 -0.0215 -0.0582
 1607PEP     CB60566  21.840  17.292  14.787  0.2765 -0.0149 -0.3808
 1607PEP     CB60567  22.117  17.616  14.633  0.1221 -0.2286 -0.1729
 1607PEP     CB60568  22.162  18.040  14.246  0.1037 -0.1487 -0.2477
 1607PEP     CB60569  22.284  18.006  13.806  0.0894  0.0117  0.0467
 1607PEP     CB60570  22.417  17.883  13.384  0.2187 -0.3325  0.2709
 1607PEP     CB60571  22.704  17.569  13.235 -0.2008 -0.3079  0.5080
 1607PEP     CB60572  22.824  17.112  13.395 -0.1339 -0.0189 -0.2141
 1607PEP     CB60573  22.878  16.797  13.764 -0.1597 -0.2146  0.2536
 1607PEP     CB60574  22.755  16.440  13.905 -0.1787  0.3461 -0.0075
 1607PEP     CB60575  22.816  16.121  14.063  0.0708 -0.0455  0.2213
 1607PEP     CB60576  23.047  15.842  14.222 -0.0202  0.1822  0.0177
 1607PEP     CB60577  23.434  15.924  14.510 -0.0357  0.5453 -0.2320
 1607PEP     CB60578  23.938  16.126  14.526 -0.0124 -0.2553 -0.3049
 1607PEP     CB60579  24.343  16.016  14.617 -0.0743 -0.1750  0.0387
 1607PEP     CB60580  24.563  15.616  14.575  0.0134 -0.1144  0.2068
 1607PEP     CB60581  24.596  15.231  14.317  0.3749 -0.4601 -0.4396
 1607PEP     CB60582  24.530  15.065  14.036 -0.3372  0.2634  0.0647
 1607PEP     CB60583  24.859  14.711  13.851 -0.3231 -0.0052 -0.3924
 1607PEP     CB60584  24.981  14.277  13.767 -0.1098  0.5770  0.0375
 1607PEP     CB60585  25.095  13.889  13.845 -0.0786 -0.1577 -0.2769
 1607PEP     CB60586  25.125  13.490  13.937 -0.1290 -0.0137  0.0099
 1607PEP     CB60587  25.158  13.058  13.676 -0.0670 -0.0455 -0.4276
 1607PEP     CB60588  25.283  13.096  13.203 -0.4039  0.2483  0.0851
 1607PEP     CB60589  25.412  12.621  12.905 -0.0103  0.2714 -0.0466
 1607PEP     CB60590  25.468  12.428  12.487  0.4010  0.1398 -0.0710
 1607PEP     CB60591  25.319  12.424  12.074  0.4205 -0.1695  0.0428
 1607PEP     CB60592  24.837  12.467  11.915 -0.1479 -0.0646  0.6677
 1607PEP     CB60593  24.511  12.739  12.154 -0.0002  0.0635  0.3853
 1607PEP     CB60594  24.486  13.047  12.524  0.4972 -0.1479 -0.0023
 1607PEP     CB60595  24.201  13.295  12.741 -0.1624  0.1793  0.2011
 1607PEP     CB60596  23.814  13.245  12.817  0.1010  0.1621  0.4788
 1607PEP     CB60597  23.611  12.840  12.973 -0.1028 -0.1511  0.3256
 1607PEP     CB60598  23.679  12.363  13.032  0.1479 -0.0754  0.1369
 1607PEP     CB60599  23.608  11.967  13.297  0.1966 -0.0528  0.1722
 1607PEP     CB60600  23.726  11.658  13.622 -0.1103 -0.0183  0.0287
 1608PEP     CB60601  21.917  10.576  10.366  0.0520 -0.0280 -0.1043
 1608PEP     CB60602  21.708  10.962  10.344 -0.1321 -0.0058 -0.0618
 1608PEP     CB60603  21.437  11.322  10.532 -0.1393  0.0014  0.1555
 1608PEP     CB60604  21.304  11.555  10.915 -0.3356  0.1136 -0.1558
 1608PEP     CB60605  20.972  11.592  11.290  0.1216 -0.5454  0.1555
 1608PEP     CB60606  20.703  11.564  11.671  0.1523 -0.1478  0.2892
 1608PEP     CB60607  20.541  11.464  12.140 -0.4432  0.1453 -0.0469
 1608PEP     CB60608  20.415  11.778  12.470  0.0769  0.1579 -0.0439
 1608PEP     CB60609  20.353  12.165  12.287 -0.0439 -0.0951  0.0158
 1608PEP     CB60610  20.443  12.278  11.883 -0.2744  0.0703 -0.2382
 1608PEP     CB60611  20.600  12.620  11.611  0.1546  0.0320 -0.0374
 1608PEP     CB60612  20.978  12.831  11.592 -0.3143  0.3005  0.0424
 1608PEP     CB60613  21.213  13.040  11.752  0.0767 -0.1190  0.0432
 1608PEP     CB60614  21.584  13.230  11.608  0.2519 -0.2754  0.1277
 1608PEP     CB60615  21.865  13.511  11.535 -0.1221  0.0586  0.0693
 1608PEP     CB60616  22.136  13.837  11.599  0.0576 -0.2038  0.4599
 1608PEP     CB60617  22.503  14.060  11.534  0.0401 -0.3631  0.0283
 1608PEP     CB60618  22.920  14.176  11.383  0.1447 -0.0747 -0.0389
 1608PEP     CB60619  23.338  14.368  11.364  0.1407 -0.4608 -0.6107
 1608PEP     CB60620  23.616  14.703  11.356 -0.2575 -0.0880 -0.2716
 1608PEP     CB60621  23.728  14.982  11.149 -0.0145 -0.3908 -0.0214
 1608PEP     CB60622  23.726  14.995  10.744  0.2308 -0.0835 -0.0525
 1608PEP     CB60623  23.487  14.743  10.580  0.1443  0.1290 -0.0537
 1608PEP     CB60624  23.059  14.572  10.500 -0.0414  0.3241  0.0955
 1608PEP     CB60625  22.672  14.743  10.330  0.1319 -0.0093  0.0660
 1608PEP     CB60626  22.246  14.827  10.188 -0.1269 -0.1458  0.0948
 1608PEP     CB60627  21.903  14.981   9.929 -0.3085  0.1510  0.1294
 1608PEP     CB60628  21.535  14.862   9.774 -0.2083 -0.3873  0.0739
 1608PEP     CB60629  21.357  14.463   9.553  0.2046  0.2269  0.0314
 1608PEP     CB60630  21.180  14.323   9.271  0.2672  0.1227 -0.0286
 1608PEP     CB60631  20.940  14.465   8.941  0.2878 -0.1238 -0.1812
 1608PEP     CB60632  20.641  14.642   8.652 -0.1429  0.0567  0.2271
 1608PEP     CB60633  20.312  14.468   8.493  0.0121 -0.1175 -0.0453
 1608PEP     CB60634  19.928  14.601   8.400  0.5702 -0.0200  0.0935
 1608PEP     CB60635  19.449  14.764   8.486 -0.3944 -0.0668  0.1265
 1608PEP     CB60636  19.256  15.075   8.549 -0.0945  0.4454 -0.1122
 1608PEP     CB60637  19.186  15.365   8.259  0.0139 -0.0394 -0.2973
 1608PEP     CB60638  19.484  15.421   7.942  0.5131  0.0608  0.1628
 1608PEP     CB60639  19.918  15.573   7.742  0.0435 -0.0767  0.4404
 1608PEP     CB60640  20.279  15.852   7.820 -0.2279 -0.2957  0.2550
 1609PEP     CB60641  11.504  20.486  17.228 -0.0245 -0.1950  0.4530
 1609PEP     CB60642  11.423  20.907  17.448 -0.1640 -0.0193  0.0634
 1609PEP     CB60643  11.562  21.104  17.750  0.2095  0.0512  0.4678
 1609PEP     CB60644  11.999  21.113  17.780  0.0187 -0.2162 -0.3046
 1609PEP     CB60645  12.318  20.849  17.761  0.0981  0.1501 -0.1538
 1609PEP     CB60646  12.375  20.458  17.585  0.1196 -0.1638 -0.4002
 1609PEP     CB60647  12.500  19.944  17.627 -0.1571  0.1426  0.3433
 1609PEP     CB60648  12.790  19.724  17.787 -0.1850  0.0995  0.0559
 1609PEP     CB60649  12.821  19.828  18.250  0.6402 -0.3825  0.1763
 1609PEP     CB60650  12.455  20.133  18.373  0.1285 -0.1370  0.0900
 1609PEP     CB60651  12.155  20.107  18.074  0.0674 -0.0167 -0.0515
 1609PEP     CB60652  11.942  20.187  17.772  0.0652  0.0081  0.1069
 1609PEP     CB60653  11.478  20.352  17.783  0.3893  0.0926 -0.0641
 1609PEP     CB60654  11.274  20.687  17.883 -0.1370 -0.5229  0.7595
 1609PEP     CB60655  11.069  21.038  17.887  0.2784  0.2520 -0.2444
 1609PEP     CB60656  11.048  21.473  18.062  0.1814  0.1091  0.2004
 1609PEP     CB60657  11.159  21.602  18.371 -0.1840 -0.3183 -0.2238
 1609PEP     CB60658  11.411  21.848  18.665  0.2503 -0.1676  0.0563
 1609PEP     CB60659  11.753  22.191  18.692  0.5476  0.1562  0.0560
 1609PEP     CB60660  11.765  22.502  18.473 -0.4727  0.0943  0.3334
 1609PEP     CB60661  11.835  22.750  18.040  0.2068  0.0308  0.4597
 1609PEP     CB60662  12.054  23.073  18.049  0.1992  0.0311 -0.1729
 1609PEP     CB60663  12.211  23.236  18.491 -0.2477  0.4805 -0.3508
 1609PEP     CB60664  12.066  23.103  18.882  0.0989 -0.0285  0.1197
 1609PEP     CB60665  11.972  22.591  19.011  0.0675 -0.1246 -0.0240
 1609PEP     CB60666  12.112  22.197  19.110 -0.4607 -0.3031 -0.2602
 1609PEP     CB60667  12.363  21.947  18.856  0.3817  0.3420 -0.3043
 1609PEP     CB60668  12.275  21.846  18.484  0.1709 -0.3118 -0.0658
 1609PEP     CB60669  12.007  21.972  18.250  0.1075 -0.1285 -0.0144
 1609PEP     CB60670  11.514  22.152  18.248  0.2048  0.5814 -0.3230
 1609PEP     CB60671  10.975  22.012  18.136  0.0021 -0.5436  0.0707
 1609PEP     CB60672  10.567  22.072  17.926 -0.1176  0.3214 -0.2917
 1609PEP     CB60673  10.134  21.938  18.072 -0.2456  0.0499 -0.2535
 1609PEP     CB60674   9.809  21.840  18.353 -0.3314 -0.0040  0.4002
 1609PEP     CB60675   9.683  21.692  18.771  0.0488  0.2849  0.1695
 1609PEP     CB60676   9.466  21.557  19.103 -0.1748 -0.1618  0.3748
 1609PEP     CB60677   9.562  21.083  19.231 -0.1990 -0.3160  0.1107
 1609PEP     CB60678   9.979  20.879  19.362 -0.1232  0.2777 -0.2546
 1609PEP     CB60679  10.324  20.970  19.648 -0.3815  0.2851 -0.0400
 1609PEP     CB60680  10.724  21.086  19.737 -0.1976  0.0039 -0.1778
 1610PEP     CB60681   4.815   5.047   5.662  0.2043  0.0676  0.2526
 1610PEP     CB60682   4.481   4.773   5.654  0.0556  0.0519  0.0883
 1610PEP     CB60683   4.432   4.317   5.631  0.2790 -0.1149 -0.2099
 1610PEP     CB60684   4.345   3.963   5.399 -0.1027 -0.0105 -0.0441
 1610PEP     CB60685   4.538   3.973   5.073 -0.1712  0.1559  0.0223
 1610PEP     CB60686   4.633   4.285   4.791 -0.1747  0.1326 -0.0305
 1610PEP     CB60687   4.752   4.668   4.762  0.1099  0.0825  0.0963
 1610PEP     CB60688   4.640   5.174   4.729 -0.1299 -0.1618 -0.0619
 1610PEP     CB60689   4.694   5.598   4.836  0.0867  0.0586  0.3232
 1610PEP     CB60690   4.358   5.853   4.819 -0.1841  0.1732  0.0393
 1610PEP     CB60691   3.898   5.851   4.706 -0.0521 -0.0764 -0.4015
 1610PEP     CB60692   3.677   5.567   4.335  0.2108 -0.1914 -0.1031
 1610PEP     CB60693   3.791   5.132   4.180  0.0086 -0.0264 -0.2576
 1610PEP     CB60694   3.588   4.697   4.078  0.1553 -0.0757 -0.1918
 1610PEP     CB60695   3.435   4.319   3.996 -0.1001  0.1941 -0.3599
 1610PEP     CB60696   3.353   3.961   3.665  0.4480 -0.0747 -0.0478
 1610PEP     CB60697   3.653   3.791   3.519 -0.4870  0.2051  0.2045
 1610PEP     CB60698   4.076   3.994   3.320  0.1968 -0.1140 -0.3228
 1610PEP     CB60699   4.431   3.847   3.082 -0.2228  0.0326  0.1517
 1610PEP     CB60700   4.928   3.807   3.208 -0.0563  0.3735 -0.0058
 1610PEP     CB60701   5.269   4.049   3.113 -0.1797  0.0577 -0.5051
 1610PEP     CB60702   5.495   4.160   2.752  0.1463  0.3697  0.4123
 1610PEP     CB60703   5.760   4.530   2.762  0.0747  0.1614 -0.2222
 1610PEP     CB60704   5.666   4.899   3.026  0.0834 -0.0232 -0.1499
 1610PEP     CB60705   5.597   4.914   3.437 -0.0070  0.1389  0.3402
 1610PEP     CB60706   5.461   4.684   3.741 -0.0093  0.5923  0.3772
 1610PEP     CB60707   4.945   4.538   3.878  0.0954  0.0412  0.0283
 1610PEP     CB60708   4.512   4.420   3.584 -0.3784  0.2842  0.3080
 1610PEP     CB60709   4.602   4.291   3.186 -0.2650  0.1896  0.3587
 1610PEP     CB60710   4.975   4.432   2.926  0.1754 -0.0534 -0.1862
 1610PEP     CB60711   5.158   4.875   3.069  0.1113 -0.1442  0.2780
 1610PEP     CB60712   4.995   5.173   3.348  0.0742  0.0111  0.4106
 1610PEP     CB60713   4.999   5.598   3.586  0.0201  0.4042  0.1119
 1610PEP     CB60714   4.997   5.976   3.367  0.0905  0.0530 -0.2176
 1610PEP     CB60715   4.909   6.004   2.965  0.3168 -0.0652 -0.1257
 1610PEP     CB60716   4.768   6.366   2.761  0.2534 -0.0865  0.3834
 1610PEP     CB60717   4.426   6.669   2.605 -0.3736 -0.5724 -0.0124
 1610PEP     CB60718   4.047   6.810   2.385  0.0637 -0.1987  0.1568
 1610PEP     CB60719   3.809   7.096   2.518  0.0042  0.0844  0.1868
 1610PEP     CB60720   3.504   7.121   2.858 -0.2478 -0.3381 -0.0605
 1611PEP     CB60721  19.519   4.942  13.279  0.0268 -0.2550 -0.0882
 1611PEP     CB60722  19.189   4.707  13.490 -0.4312 -0.0660 -0.4077
 1611PEP     CB60723  18.865   4.854  13.656  0.1540  0.1511  0.0111
 1611PEP     CB60724  18.567   5.141  13.608  0.1468  0.1226 -0.0900
 1611PEP     CB60725  18.114   5.417  13.770  0.1400  0.0854  0.2017
 1611PEP     CB60726  18.023   5.820  13.903 -0.4743 -0.5502  0.0980
 1611PEP     CB60727  17.648   6.006  13.751 -0.1489 -0.2555 -0.0076
 1611PEP     CB60728  17.384   5.864  13.501  0.0808 -0.2521  0.4475
 1611PEP     CB60729  17.056   5.514  13.430  0.2280  0.1109  0.1293
 1611PEP     CB60730  16.775   5.200  13.438 -0.4760  0.3654 -0.0755
 1611PEP     CB60731  16.410   4.914  13.382  0.1608 -0.0490 -0.0093
 1611PEP     CB60732  16.250   4.560  13.527 -0.0654 -0.0794 -0.0505
 1611PEP     CB60733  16.402   4.144  13.654  0.0962  0.0283 -0.3307
 1611PEP     CB60734  16.692   3.938  13.534  0.2139  0.1697  0.2207
 1611PEP     CB60735  17.028   4.079  13.245 -0.2044 -0.0236  0.2580
 1611PEP     CB60736  17.473   4.124  13.126  0.1349 -0.0104 -0.2553
 1611PEP     CB60737  17.838   4.325  13.298 -0.0425 -0.1578  0.1792
 1611PEP     CB60738  18.054   4.154  13.600 -0.4807  0.0582 -0.2452
 1611PEP     CB60739  18.293   4.133  14.043 -0.2326 -0.0118 -0.0544
 1611PEP     CB60740  18.410   3.853  14.368 -0.3994 -0.0705  0.0745
 1611PEP     CB60741  18.588   3.861  14.850  0.0866 -0.1160  0.2212
 1611PEP     CB60742  18.938   3.976  14.990  0.2975  0.3666  0.2033
 1611PEP     CB60743  19.173   4.400  15.157 -0.0508  0.0652 -0.1192
 1611PEP     CB60744  19.375   4.741  15.197 -0.2951 -0.0599 -0.0162
 1611PEP     CB60745  19.335   5.113  15.440  0.3127 -0.3782  0.0082
 1611PEP     CB60746  19.129   5.412  15.841  0.3523 -0.2139  0.2160
 1611PEP     CB60747  18.927   5.809  15.814 -0.2555 -0.1577  0.3886
 1611PEP     CB60748  18.783   6.111  16.067 -0.0434 -0.2153  0.3308
 1611PEP     CB60749  18.720   6.453  16.323  0.1335  0.3168  0.1605
 1611PEP     CB60750  19.004   6.774  16.463 -0.2545  0.3657  0.0764
 1611PEP     CB60751  19.364   7.040  16.394  0.0982 -0.1050  0.0308
 1611PEP     CB60752  19.712   7.241  16.110  0.2219  0.0460  0.5163
 1611PEP     CB60753  19.990   7.170  15.704  0.2340 -0.0302  0.1610
 1611PEP     CB60754  19.828   6.954  15.196 -0.0726 -0.1281 -0.2107
 1611PEP     CB60755  19.285   6.899  15.150  0.1251 -0.3039 -0.3923
 1611PEP     CB60756  19.026   6.918  15.578  0.2075  0.0152 -0.0331
 1611PEP     CB60757  19.163   7.130  15.932 -0.2323 -0.0649 -0.2626
 1611PEP     CB60758  19.354   7.547  15.880 -0.2354 -0.0608 -0.0734
 1611PEP     CB60759  19.280   7.751  15.551 -0.0104 -0.1457 -0.1835
 1611PEP     CB60760  18.834   7.828  15.488  0.3728  0.2019 -0.0629
 1612PEP     CB60761   3.410   1.562  10.453  0.0751 -0.1927 -0.0769
 1612PEP     CB60762   3.399   1.499  10.006  0.0361  0.0421 -0.0774
 1612PEP     CB60763   3.182   1.372   9.640  0.1159  0.0391 -0.1464
 1612PEP     CB60764   2.911   1.585   9.302  0.0840 -0.3870 -0.3344
 1612PEP     CB60765   2.903   1.983   9.030  0.0722 -0.0111 -0.0123
 1612PEP     CB60766   2.964   2.402   9.012  0.2494  0.1616  0.0657
 1612PEP     CB60767   2.922   2.811   9.185 -0.2031  0.1525  0.2010
 1612PEP     CB60768   2.943   3.272   9.270 -0.0054  0.3256 -0.0475
 1612PEP     CB60769   3.296   3.565   9.372  0.0774 -0.1378  0.4518
 1612PEP     CB60770   3.688   3.522   9.508  0.5123  0.3638  0.2743
 1612PEP     CB60771   3.946   3.193   9.555 -0.4817 -0.1056 -0.1875
 1612PEP     CB60772   3.902   2.733   9.661  0.1182 -0.0044  0.0517
 1612PEP     CB60773   3.659   2.482   9.908  0.2344 -0.1845  0.1803
 1612PEP     CB60774   3.403   2.520  10.262  0.2125  0.0109 -0.0418
 1612PEP     CB60775   2.977   2.466  10.378 -0.2004  0.4719 -0.0150
 1612PEP     CB60776   2.606   2.556  10.644 -0.2204  0.2772 -0.1157
 1612PEP     CB60777   2.278   2.686  10.893 -0.1438  0.0913  0.0737
 1612PEP     CB60778   1.865   2.666  11.129 -0.0981 -0.0401 -0.0055
 1612PEP     CB60779   1.441   2.874  11.137 -0.0550 -0.0020 -0.0531
 1612PEP     CB60780   1.092   3.188  11.011  0.3030  0.1240  0.1760
 1612PEP     CB60781   0.737   3.450  10.917  0.0760 -0.5764  0.0991
 1612PEP     CB60782   0.518   3.780  11.064  0.0753 -0.0986 -0.0398
 1612PEP     CB60783   0.264   3.963  11.451 -0.2087  0.2426 -0.0148
 1612PEP     CB60784  -0.020   3.796  11.809 -0.1904 -0.0902  0.1711
 1612PEP     CB60785  -0.295   3.539  12.093 -0.0511  0.0371 -0.2258
 1612PEP     CB60786  -0.258   3.241  12.476  0.3748  0.2684  0.0320
 1612PEP     CB60787  -0.055   2.963  12.746 -0.0526  0.2025  0.2648
 1612PEP     CB60788   0.222   2.725  12.947 -0.2002 -0.1363  0.4629
 1612PEP     CB60789   0.500   2.663  13.245 -0.0378 -0.1541  0.0681
 1612PEP     CB60790   0.734   2.445  13.505  0.2914 -0.0440  0.1674
 1612PEP     CB60791   0.969   2.090  13.628  0.1971 -0.0379 -0.0941
 1612PEP     CB60792   1.219   1.852  13.958  0.1186 -0.0111  0.0575
 1612PEP     CB60793   1.368   1.732  14.395  0.1034  0.2223 -0.3742
 1612PEP     CB60794   1.508   1.519  14.792  0.0376 -0.2786  0.0432
 1612PEP     CB60795   1.858   1.509  14.913 -0.2509 -0.1714 -0.2312
 1612PEP     CB60796   2.228   1.689  14.688  0.1379 -0.3050 -0.1431
 1612PEP     CB60797   2.423   1.813  14.340 -0.2008 -0.0514 -0.1285
 1612PEP     CB60798   2.242   2.160  13.961  0.1207  0.0123 -0.0920
 1612PEP     CB60799   1.822   2.402  13.846  0.0490 -0.2185  0.1779
 1612PEP     CB60800   1.404   2.267  13.725  0.2718  0.1874  0.0762
 1613PEP     CB60801  21.096   4.653   3.124  0.0805 -0.3750 -0.1332
 1613PEP     CB60802  20.827   4.618   2.789  0.0034  0.0612 -0.1349
 1613PEP     CB60803  20.832   4.773   2.351 -0.1094 -0.2107 -0.6149
 1613PEP     CB60804  20.853   4.855   1.875 -0.0858 -0.3066 -0.0522
 1613PEP     CB60805  20.598   5.020   1.508 -0.1298  0.3459 -0.5237
 1613PEP     CB60806  20.241   5.221   1.336 -0.3230 -0.1153 -0.1582
 1613PEP     CB60807  19.836   5.172   1.295 -0.4093 -0.0491 -0.2305
 1613PEP     CB60808  19.421   5.289   1.286  0.0863  0.3579  0.0799
 1613PEP     CB60809  18.889   5.463   1.370 -0.4382  0.0828 -0.1097
 1613PEP     CB60810  18.488   5.370   1.214  0.1241  0.5322  0.1546
 1613PEP     CB60811  18.288   5.578   0.896 -0.0938  0.0596  0.1641
 1613PEP     CB60812  18.265   5.994   0.664 -0.3252 -0.3150 -0.0814
 1613PEP     CB60813  18.497   6.390   0.709  0.1077 -0.0718 -0.1763
 1613PEP     CB60814  18.912   6.573   0.823  0.0923 -0.0314 -0.1035
 1613PEP     CB60815  18.982   6.991   1.042  0.1860 -0.0674  0.2273
 1613PEP     CB60816  19.122   7.068   1.424  0.0630 -0.0506 -0.1225
 1613PEP     CB60817  19.453   7.248   1.658 -0.2294  0.1033 -0.4326
 1613PEP     CB60818  19.749   7.410   1.866 -0.2708  0.0012  0.0225
 1613PEP     CB60819  20.139   7.667   1.752 -0.0532  0.2153  0.3459
 1613PEP     CB60820  20.231   8.091   1.891  0.0675 -0.0596 -0.0038
 1613PEP     CB60821  20.425   8.404   2.192  0.1292 -0.0703 -0.2048
 1613PEP     CB60822  20.337   8.549   2.600 -0.0582 -0.1238  0.2149
 1613PEP     CB60823  20.286   8.554   3.006 -0.0619 -0.2307 -0.2507
 1613PEP     CB60824  20.407   8.567   3.407  0.0999 -0.3161  0.0020
 1613PEP     CB60825  20.321   8.540   3.844  0.1566  0.1032 -0.1070
 1613PEP     CB60826  20.415   8.756   4.240 -0.0682  0.1456  0.0079
 1613PEP     CB60827  20.477   8.889   4.700  0.2770 -0.0487  0.0531
 1613PEP     CB60828  20.495   8.944   5.231 -0.3263 -0.3043  0.1368
 1613PEP     CB60829  20.509   9.050   5.605 -0.3059 -0.1472 -0.1590
 1613PEP     CB60830  20.617   9.419   5.941  0.2442  0.0676  0.2438
 1613PEP     CB60831  20.593   9.829   6.020  0.0114  0.4355 -0.1048
 1613PEP     CB60832  20.800  10.253   5.942 -0.1012  0.0565 -0.0094
 1613PEP     CB60833  20.643  10.667   6.002 -0.1772 -0.4965 -0.1689
 1613PEP     CB60834  20.888  11.053   6.163  0.2640 -0.2388  0.3126
 1613PEP     CB60835  21.316  10.934   6.299  0.0059 -0.1401  0.2638
 1613PEP     CB60836  21.696  11.049   6.288 -0.0632 -0.5675  0.1867
 1613PEP     CB60837  22.155  11.226   6.218  0.1023 -0.0118  0.0370
 1613PEP     CB60838  22.423  11.359   5.940 -0.0622  0.3437  0.0034
 1613PEP     CB60839  22.710  11.066   5.692 -0.1544 -0.1833 -0.2210
 1613PEP     CB60840  22.770  10.993   5.282  0.3214 -0.2645  0.0516
 1614PEP     CB60841   4.471  18.814   0.505 -0.1347  0.4286 -0.0946
 1614PEP     CB60842   4.704  18.501   0.640 -0.0087  0.1372  0.0852
 1614PEP     CB60843   5.080  18.537   0.890  0.2308  0.3550 -0.1021
 1614PEP     CB60844   5.098  18.475   1.301  0.0070 -0.1121 -0.1389
 1614PEP     CB60845   4.856  18.382   1.615 -0.1167  0.0291  0.0009
 1614PEP     CB60846   4.990  18.161   2.043 -0.1400  0.2543  0.0173
 1614PEP     CB60847   5.406  18.130   2.184  0.4391  0.2607  0.0580
 1614PEP     CB60848   5.735  18.458   2.029  0.6078 -0.1388 -0.1516
 1614PEP     CB60849   5.669  18.746   1.619  0.4754  0.0452 -0.1891
 1614PEP     CB60850   5.589  18.522   1.216  0.4071  0.2435  0.2328
 1614PEP     CB60851   5.908  18.243   0.945  0.1044 -0.0963 -0.3188
 1614PEP     CB60852   6.293  17.992   0.884 -0.0993 -0.4620 -0.0435
 1614PEP     CB60853   6.664  18.020   0.722  0.1045 -0.0566 -0.0431
 1614PEP     CB60854   7.082  18.142   0.622 -0.0669  0.2120  0.0190
 1614PEP     CB60855   7.408  18.358   0.922  0.3014 -0.4902  0.0383
 1614PEP     CB60856   7.394  18.405   1.408 -0.3076 -0.3242 -0.2251
 1614PEP     CB60857   7.315  18.527   1.839  0.3392  0.0791  0.1545
 1614PEP     CB60858   7.072  18.396   2.241  0.0170  0.0328 -0.0206
 1614PEP     CB60859   6.723  18.066   2.479  0.4569 -0.3486 -0.2644
 1614PEP     CB60860   6.763  17.718   2.797  0.1570  0.0027 -0.2379
 1614PEP     CB60861   6.925  17.371   3.125  0.3732  0.0614  0.2194
 1614PEP     CB60862   6.806  17.072   3.397 -0.1753 -0.1075 -0.2976
 1614PEP     CB60863   6.793  16.668   3.636 -0.2129  0.1018 -0.0133
 1614PEP     CB60864   7.023  16.329   3.608  0.1454 -0.2437  0.0425
 1614PEP     CB60865   7.477  16.182   3.442 -0.2035 -0.1181  0.3166
 1614PEP     CB60866   7.855  16.357   3.473  0.2825  0.2035 -0.1293
 1614PEP     CB60867   7.972  16.778   3.486 -0.3395 -0.2846  0.0819
 1614PEP     CB60868   7.758  17.031   3.701 -0.1393 -0.4853 -0.1759
 1614PEP     CB60869   7.607  17.004   4.142  0.1642 -0.0252 -0.1146
 1614PEP     CB60870   7.609  16.647   4.425  0.2193  0.1412  0.1747
 1614PEP     CB60871   8.066  16.602   4.703 -0.4584  0.2083 -0.1428
 1614PEP     CB60872   8.545  16.737   4.567 -0.1141  0.1574  0.0637
 1614PEP     CB60873   8.649  17.068   4.283  0.0215 -0.0643  0.1997
 1614PEP     CB60874   8.491  17.482   4.170  0.1473 -0.2340  0.1012
 1614PEP     CB60875   8.235  17.800   4.086 -0.4171 -0.0876  0.1858
 1614PEP     CB60876   7.806  18.016   3.996  0.3635  0.1948 -0.1043
 1614PEP     CB60877   7.384  18.077   3.937  0.1407  0.1655  0.0522
 1614PEP     CB60878   6.990  17.787   3.927 -0.1851 -0.0855 -0.1487
 1614PEP     CB60879   6.916  17.427   3.813  0.3468  0.0867  0.1532
 1614PEP     CB60880   7.101  17.053   3.818  0.1649  0.4005 -0.0743
 1615PEP     CB60881  15.531  17.318   2.076 -0.2421  0.0914 -0.0632
 1615PEP     CB60882  15.597  16.915   2.265  0.0213  0.3423 -0.0182
 1615PEP     CB60883  15.415  16.583   2.224  0.0549 -0.0265 -0.0374
 1615PEP     CB60884  15.630  16.124   2.204  0.3752  0.2095 -0.0622
 1615PEP     CB60885  15.907  15.824   2.416 -0.0524  0.2490 -0.0635
 1615PEP     CB60886  16.106  15.485   2.436  0.1292 -0.0763 -0.2062
 1615PEP     CB60887  16.027  15.159   2.678  0.1356  0.3018 -0.3996
 1615PEP     CB60888  15.939  14.854   2.927  0.0031 -0.3080  0.0875
 1615PEP     CB60889  15.778  14.395   2.912 -0.1133 -0.1945 -0.0998
 1615PEP     CB60890  15.809  14.018   3.131 -0.3984 -0.2917 -0.1196
 1615PEP     CB60891  15.966  13.662   2.997  0.1570  0.2848 -0.3343
 1615PEP     CB60892  15.980  13.268   3.118  0.3398 -0.0265 -0.1019
 1615PEP     CB60893  15.788  12.928   3.370 -0.2206 -0.0133  0.0695
 1615PEP     CB60894  15.972  12.654   3.638  0.1705  0.3261  0.3978
 1615PEP     CB60895  16.369  12.454   3.697  0.1215  0.1361 -0.0361
 1615PEP     CB60896  16.491  12.007   3.588  0.2648 -0.1447 -0.2009
 1615PEP     CB60897  16.261  11.646   3.450 -0.0516 -0.3802 -0.3147
 1615PEP     CB60898  15.866  11.483   3.625  0.1315 -0.1257  0.0957
 1615PEP     CB60899  15.476  11.348   3.759 -0.0269  0.1400  0.1975
 1615PEP     CB60900  15.126  11.488   3.921 -0.1508 -0.1890 -0.2060
 1615PEP     CB60901  14.903  11.818   4.161 -0.1672 -0.1517 -0.0990
 1615PEP     CB60902  15.031  11.953   4.641  0.1298  0.2106  0.1155
 1615PEP     CB60903  15.378  11.716   4.805  0.0976 -0.0601 -0.3324
 1615PEP     CB60904  15.695  11.312   4.730  0.0905 -0.3357  0.0276
 1615PEP     CB60905  15.882  10.846   4.762  0.0243 -0.0849 -0.2141
 1615PEP     CB60906  15.974  10.418   4.882 -0.3690  0.0969 -0.3441
 1615PEP     CB60907  16.059  10.166   5.252 -0.3249 -0.1577  0.2071
 1615PEP     CB60908  16.119   9.967   5.567  0.0450 -0.0383 -0.0328
 1615PEP     CB60909  15.974   9.540   5.663 -0.5314  0.2311 -0.2124
 1615PEP     CB60910  15.708   9.367   5.388  0.2114 -0.5284  0.1280
 1615PEP     CB60911  15.283   9.549   5.352  0.2450  0.1154 -0.0759
 1615PEP     CB60912  15.055   9.687   5.687  0.0939  0.1815 -0.0175
 1615PEP     CB60913  15.080   9.578   6.272  0.0713 -0.2611 -0.0443
 1615PEP     CB60914  15.456   9.471   6.560 -0.0991  0.2896  0.1765
 1615PEP     CB60915  15.694   9.225   6.765  0.2426  0.2896  0.0467
 1615PEP     CB60916  16.206   9.134   6.716 -0.2351  0.0437 -0.4715
 1615PEP     CB60917  16.604   9.010   6.713  0.1046 -0.3467 -0.3115
 1615PEP     CB60918  16.991   8.943   6.598  0.0468 -0.3581 -0.5687
 1615PEP     CB60919  17.284   8.885   6.431 -0.0532  0.1067 -0.0232
 1615PEP     CB60920  17.732   8.700   6.321 -0.1248  0.1572  0.2132
 1616PEP     CB60921   2.301  18.132   2.794 -0.1195 -0.1944  0.1331
 1616PEP     CB60922   2.786  18.166   2.703 -0.2626  0.1420  0.0627
 1616PEP     CB60923   3.168  18.312   2.411  0.0591 -0.1135 -0.3821
 1616PEP     CB60924   3.365  18.651   2.163 -0.0786  0.0537  0.0024
 1616PEP     CB60925   3.789  18.911   2.257  0.1641 -0.0849 -0.0511
 1616PEP     CB60926   4.195  18.687   2.441  0.0150  0.0313 -0.1177
 1616PEP     CB60927   4.112  18.253   2.663 -0.0896  0.1130 -0.3431
 1616PEP     CB60928   3.747  18.183   2.931  0.0555  0.2168 -0.2055
 1616PEP     CB60929   3.370  18.327   3.024  0.0033 -0.2138 -0.0187
 1616PEP     CB60930   3.010  18.557   2.883 -0.1505  0.4052  0.2077
 1616PEP     CB60931   2.946  19.088   2.885  0.3951  0.3189  0.1715
 1616PEP     CB60932   3.027  19.469   2.762  0.3413  0.1413 -0.0035
 1616PEP     CB60933   3.090  19.846   2.494 -0.1730  0.4007  0.0267
 1616PEP     CB60934   3.250  20.195   2.239 -0.2304 -0.2504  0.1268
 1616PEP     CB60935   3.022  20.529   2.030  0.0683 -0.2202 -0.3240
 1616PEP     CB60936   2.781  20.572   1.764 -0.1469  0.2865 -0.1951
 1616PEP     CB60937   2.456  20.545   1.464  0.2139  0.3834 -0.1894
 1616PEP     CB60938   2.044  20.376   1.486 -0.4659 -0.1326 -0.0005
 1616PEP     CB60939   1.804  20.153   1.856 -0.3847 -0.0243  0.1298
 1616PEP     CB60940   1.824  20.356   2.190 -0.1778 -0.3831 -0.0079
 1616PEP     CB60941   1.898  20.888   2.252 -0.1375 -0.1063  0.2840
 1616PEP     CB60942   2.221  21.178   2.127 -0.2590  0.0210 -0.2122
 1616PEP     CB60943   2.593  21.451   2.008 -0.0410 -0.0129  0.4737
 1616PEP     CB60944   2.816  21.750   1.725  0.1103 -0.1739  0.0003
 1616PEP     CB60945   2.958  22.059   1.467 -0.1242  0.2971  0.0960
 1616PEP     CB60946   2.939  22.530   1.368  0.0231 -0.3091  0.1580
 1616PEP     CB60947   2.966  22.927   1.480  0.1472  0.1380  0.0322
 1616PEP     CB60948   2.710  23.165   1.733 -0.2350  0.3815  0.3733
 1616PEP     CB60949   2.261  23.211   1.851 -0.3609 -0.1036  0.0473
 1616PEP     CB60950   1.853  23.262   1.827  0.0376 -0.2506 -0.1423
 1616PEP     CB60951   1.500  23.490   1.918 -0.0447 -0.1154 -0.1328
 1616PEP     CB60952   1.292  23.843   1.690  0.1155  0.1012  0.0144
 1616PEP     CB60953   1.296  24.039   1.276  0.3425 -0.0296 -0.0391
 1616PEP     CB60954   1.382  23.820   0.856 -0.1087  0.2657 -0.2982
 1616PEP     CB60955   1.232  23.463   0.662  0.1138  0.1470 -0.0523
 1616PEP     CB60956   0.836  23.346   0.481 -0.5218  0.0487 -0.3347
 1616PEP     CB60957   0.477  23.074   0.356 -0.0965 -0.1193  0.1243
 1616PEP     CB60958   0.032  23.053   0.173 -0.0186  0.2332  0.3923
 1616PEP     CB60959  -0.313  23.041  -0.164  0.0867  0.2526 -0.1526
 1616PEP     CB60960  -0.741  23.057  -0.077  0.1523 -0.1100 -0.2188
 1617PEP     CB60961   4.276   1.274  19.741 -0.1523  0.0356  0.1229
 1617PEP     CB60962   4.325   1.688  19.564  0.1064 -0.3356 -0.2763
 1617PEP     CB60963   4.599   1.949  19.576 -0.1185 -0.2694 -0.0257
 1617PEP     CB60964   4.867   2.034  19.234  0.1948 -0.2920  0.0433
 1617PEP     CB60965   4.691   2.022  18.811 -0.0659 -0.2521 -0.1397
 1617PEP     CB60966   4.409   1.854  18.393 -0.0890  0.0372 -0.1008
 1617PEP     CB60967   4.102   1.605  18.190 -0.1002  0.3916 -0.1625
 1617PEP     CB60968   4.195   1.137  18.243 -0.4517 -0.0628  0.1286
 1617PEP     CB60969   4.308   0.999  18.653 -0.0930  0.1293  0.3679
 1617PEP     CB60970   4.351   0.683  19.009  0.0207  0.1488 -0.1713
 1617PEP     CB60971   4.183   0.432  19.309  0.0923 -0.0445 -0.1708
 1617PEP     CB60972   4.204   0.142  19.660 -0.1174 -0.3893  0.1115
 1617PEP     CB60973   4.421  -0.124  20.042  0.0951 -0.3091  0.3115
 1617PEP     CB60974   4.763  -0.362  20.221 -0.2385  0.3389 -0.1523
 1617PEP     CB60975   5.136  -0.576  19.958 -0.0855 -0.2507 -0.4276
 1617PEP     CB60976   5.142  -0.542  19.605 -0.0754  0.2310  0.4418
 1617PEP     CB60977   5.151  -0.075  19.384 -0.0482 -0.0527 -0.1810
 1617PEP     CB60978   5.389   0.197  19.201  0.2216  0.5016  0.0254
 1617PEP     CB60979   5.510   0.271  18.824  0.0656  0.2751 -0.1944
 1617PEP     CB60980   5.730   0.298  18.409 -0.1080 -0.2732 -0.1410
 1617PEP     CB60981   5.818   0.210  18.022 -0.0389  0.0529 -0.1812
 1617PEP     CB60982   5.883  -0.098  17.816 -0.1715 -0.3566 -0.3498
 1617PEP     CB60983   6.311  -0.388  17.878  0.1042  0.0627 -0.0273
 1617PEP     CB60984   6.714  -0.400  17.977  0.1899  0.5355  0.0823
 1617PEP     CB60985   7.193  -0.327  18.145 -0.3562 -0.0885  0.0680
 1617PEP     CB60986   7.557  -0.344  18.411  0.0806 -0.1925 -0.2294
 1617PEP     CB60987   7.727  -0.203  18.727  0.0830 -0.0419 -0.0478
 1617PEP     CB60988   7.985   0.049  18.795 -0.2683  0.1755  0.1132
 1617PEP     CB60989   8.020   0.425  18.478 -0.3273  0.3219 -0.0141
 1617PEP     CB60990   8.324   0.590  18.106 -0.3230 -0.0654 -0.0293
 1617PEP     CB60991   8.635   0.825  18.136 -0.3829 -0.0072  0.2897
 1617PEP     CB60992   8.954   1.099  18.150  0.0690 -0.0019 -0.6964
 1617PEP     CB60993   9.356   1.299  18.100  0.2471 -0.2490  0.1521
 1617PEP     CB60994   9.603   1.778  18.155 -0.0494  0.3672  0.1545
 1617PEP     CB60995   9.401   2.149  18.258 -0.0394  0.1019  0.0150
 1617PEP     CB60996   9.165   2.164  18.713  0.0682  0.2653 -0.1204
 1617PEP     CB60997   8.955   2.391  19.157  0.2548 -0.1249 -0.3256
 1617PEP     CB60998   8.743   2.765  19.261  0.1794 -0.0912  0.1714
 1617PEP     CB60999   8.653   3.156  19.087  0.0151  0.3355 -0.1455
 1617PEP     CB61000   8.875   3.280  18.751 -0.4001 -0.0467  0.0441
 1618PEP     CB61001  20.961  17.397  19.777 -0.1875  0.1010 -0.0396
 1618PEP     CB61002  20.883  17.075  20.092 -0.2745 -0.1377 -0.4299
 1618PEP     CB61003  20.845  16.763  20.322 -0.1949  0.1307 -0.0665
 1618PEP     CB61004  20.663  16.496  20.576  0.0373  0.0398 -0.2548
 1618PEP     CB61005  20.294  16.136  20.690  0.5089 -0.3961  0.2928
 1618PEP     CB61006  19.848  16.106  20.668 -0.0315  0.0015 -0.3272
 1618PEP     CB61007  19.479  16.062  21.011 -0.1658  0.1992  0.0274
 1618PEP     CB61008  19.278  16.378  21.159 -0.0913  0.3911 -0.0834
 1618PEP     CB61009  18.887  16.552  21.197  0.4384 -0.2344  0.3702
 1618PEP     CB61010  18.453  16.728  21.215 -0.2206  0.0889 -0.4082
 1618PEP     CB61011  18.135  17.023  21.475  0.2761 -0.2397 -0.1609
 1618PEP     CB61012  17.753  17.241  21.564 -0.3602 -0.2314 -0.0123
 1618PEP     CB61013  17.349  17.235  21.431  0.2322  0.4214  0.1291
 1618PEP     CB61014  17.399  17.125  21.048  0.1799  0.2466  0.3228
 1618PEP     CB61015  17.553  16.803  20.713 -0.3927 -0.0867 -0.0698
 1618PEP     CB61016  17.922  16.398  20.594  0.2338  0.2680  0.1981
 1618PEP     CB61017  17.995  16.090  20.349 -0.1725 -0.2463 -0.3148
 1618PEP     CB61018  17.852  15.957  19.938 -0.2841 -0.1055  0.0642
 1618PEP     CB61019  17.628  16.072  19.620  0.0667 -0.0485 -0.2789
 1618PEP     CB61020  17.222  16.145  19.427 -0.2864 -0.0164  0.1582
 1618PEP     CB61021  17.056  16.105  19.015  0.7058  0.1123  0.0928
 1618PEP     CB61022  17.297  16.246  18.615  0.1597 -0.0152  0.3295
 1618PEP     CB61023  17.762  16.332  18.651  0.1733  0.1390  0.3147
 1618PEP     CB61024  18.011  16.318  19.049 -0.2100  0.1161 -0.1209
 1618PEP     CB61025  18.073  16.266  19.578  0.3397 -0.1403  0.2650
 1618PEP     CB61026  17.963  16.517  20.001 -0.3208  0.3225 -0.2639
 1618PEP     CB61027  18.302  16.511  20.288 -0.1844 -0.4148 -0.1347
 1618PEP     CB61028  18.725  16.610  20.382 -0.1821 -0.1743  0.4983
 1618PEP     CB61029  19.116  16.602  20.103 -0.2327  0.2257  0.0185
 1618PEP     CB61030  19.462  16.418  19.858 -0.5216 -0.1043  0.3395
 1618PEP     CB61031  19.604  16.029  19.747  0.0290 -0.1407 -0.1216
 1618PEP     CB61032  19.862  15.655  19.786 -0.0733 -0.1609  0.0382
 1618PEP     CB61033  20.041  15.349  19.633 -0.2156  0.1905 -0.0392
 1618PEP     CB61034  19.939  14.975  19.425  0.1802  0.1610 -0.3272
 1618PEP     CB61035  19.735  14.656  19.105  0.4072 -0.1490 -0.1600
 1618PEP     CB61036  19.610  14.541  18.668  0.2193 -0.1126 -0.2425
 1618PEP     CB61037  19.875  14.458  18.279 -0.1035 -0.3281 -0.1800
 1618PEP     CB61038  20.237  14.348  18.185 -0.0382  0.0975 -0.0503
 1618PEP     CB61039  20.557  14.346  17.789  0.1433 -0.1558 -0.3952
 1618PEP     CB61040  20.786  14.621  17.555 -0.1696  0.0560 -0.0176
 1619PEP     CB61041  18.151   4.765   2.629 -0.2732 -0.1198  0.0600
 1619PEP     CB61042  17.877   4.413   2.656  0.2452 -0.0169  0.2350
 1619PEP     CB61043  17.817   4.074   2.919  0.1492 -0.4452 -0.2416
 1619PEP     CB61044  17.544   3.870   3.283  0.2687  0.0575 -0.3086
 1619PEP     CB61045  17.383   3.645   3.687  0.4334  0.1250 -0.0650
 1619PEP     CB61046  17.261   3.271   3.955  0.1140 -0.3034 -0.0164
 1619PEP     CB61047  17.388   2.891   4.152 -0.0492  0.1028 -0.3261
 1619PEP     CB61048  17.643   2.600   4.101 -0.0704  0.1694 -0.2009
 1619PEP     CB61049  17.899   2.395   3.832 -0.1811 -0.0157 -0.1172
 1619PEP     CB61050  18.169   2.518   3.579 -0.2171 -0.1526  0.1138
 1619PEP     CB61051  18.596   2.601   3.520  0.1077  0.1680 -0.3403
 1619PEP     CB61052  19.117   2.576   3.557 -0.0076 -0.0909  0.0845
 1619PEP     CB61053  19.639   2.491   3.448  0.3659 -0.2656 -0.2586
 1619PEP     CB61054  20.071   2.623   3.387  0.0027  0.2023 -0.2113
 1619PEP     CB61055  20.498   2.676   3.525  0.0809  0.1317 -0.3844
 1619PEP     CB61056  20.769   2.756   3.834 -0.2678 -0.2370  0.0388
 1619PEP     CB61057  20.999   2.895   4.179 -0.1593 -0.0430 -0.0092
 1619PEP     CB61058  21.144   3.225   4.442 -0.0563  0.3780 -0.2396
 1619PEP     CB61059  21.526   3.437   4.725  0.3471  0.0281 -0.0623
 1619PEP     CB61060  21.805   3.380   5.019  0.3724  0.4399 -0.3345
 1619PEP     CB61061  21.784   2.912   5.214 -0.0309 -0.0303  0.1306
 1619PEP     CB61062  21.396   2.720   5.224 -0.2002  0.0776 -0.2552
 1619PEP     CB61063  21.208   2.262   5.171  0.2691  0.2388  0.2468
 1619PEP     CB61064  21.408   1.868   4.895  0.3017  0.2096  0.0538
 1619PEP     CB61065  21.409   1.790   4.503 -0.2814  0.2103  0.2234
 1619PEP     CB61066  21.070   1.779   4.187 -0.0334 -0.0918 -0.3324
 1619PEP     CB61067  20.606   1.852   4.279 -0.0012  0.0502 -0.2487
 1619PEP     CB61068  20.424   1.608   4.716  0.1014  0.0429  0.4680
 1619PEP     CB61069  20.484   1.201   5.009 -0.2018  0.3051  0.3557
 1619PEP     CB61070  20.533   0.798   5.110 -0.2281 -0.2873  0.2452
 1619PEP     CB61071  20.758   0.406   5.012  0.0376 -0.0341 -0.5267
 1619PEP     CB61072  20.883   0.053   5.008  0.0785 -0.2254 -0.0139
 1619PEP     CB61073  21.058  -0.437   5.133  0.1256 -0.2197  0.0812
 1619PEP     CB61074  21.470  -0.500   5.271 -0.0217 -0.1260  0.0569
 1619PEP     CB61075  21.618  -0.297   5.614  0.0236 -0.1701 -0.1435
 1619PEP     CB61076  21.844   0.037   5.830  0.0373 -0.2123  0.3467
 1619PEP     CB61077  21.724   0.249   6.265  0.3905  0.1080 -0.1192
 1619PEP     CB61078  21.729   0.173   6.735  0.4145  0.3752 -0.0954
 1619PEP     CB61079  21.957   0.112   7.135 -0.3296  0.0149 -0.0242
 1619PEP     CB61080  21.918   0.187   7.559 -0.1797  0.3266 -0.3764
 1620PEP     CB61081   7.984  17.348  15.218 -0.0218 -0.1746 -0.1919
 1620PEP     CB61082   7.929  17.761  15.323 -0.1422 -0.3500  0.3642
 1620PEP     CB61083   7.638  17.991  15.455 -0.1522  0.1578  0.1426
 1620PEP     CB61084   7.223  18.131  15.360  0.3789  0.0730  0.0223
 1620PEP     CB61085   6.763  18.036  15.293  0.3381 -0.0819  0.1684
 1620PEP     CB61086   6.587  17.577  15.469  0.0883  0.0477 -0.0786
 1620PEP     CB61087   6.870  17.318  15.795  0.1301  0.0347 -0.5265
 1620PEP     CB61088   7.240  17.255  16.006  0.0150  0.1999  0.4373
 1620PEP     CB61089   7.473  16.977  15.968 -0.0572 -0.2911  0.2948
 1620PEP     CB61090   7.708  16.644  15.983  0.0161  0.0554 -0.6318
 1620PEP     CB61091   7.675  16.238  16.028  0.3747 -0.1318  0.1633
 1620PEP     CB61092   7.260  16.009  16.178 -0.0197 -0.2793 -0.1734
 1620PEP     CB61093   6.869  16.171  16.104 -0.0516 -0.1405 -0.1604
 1620PEP     CB61094   6.697  16.440  15.751  0.1977  0.0526  0.2713
 1620PEP     CB61095   6.888  16.888  15.521  0.1605  0.2098 -0.3276
 1620PEP     CB61096   7.057  17.274  15.395  0.0150 -0.4380 -0.2056
 1620PEP     CB61097   7.089  17.757  15.651  0.2051  0.1631 -0.2753
 1620PEP     CB61098   6.865  18.072  15.823  0.1278  0.0860 -0.0411
 1620PEP     CB61099   6.611  18.371  15.601  0.0782  0.0631 -0.1003
 1620PEP     CB61100   6.410  18.300  15.176  0.1437  0.2292 -0.3476
 1620PEP     CB61101   6.210  18.021  14.800 -0.2719 -0.1147 -0.1781
 1620PEP     CB61102   5.990  17.834  14.420  0.2649 -0.2047 -0.3601
 1620PEP     CB61103   5.527  18.047  14.250 -0.2867  0.1387 -0.1324
 1620PEP     CB61104   5.462  18.477  14.500  0.1519  0.4680 -0.2231
 1620PEP     CB61105   5.428  18.673  14.820 -0.0324 -0.1488  0.2378
 1620PEP     CB61106   5.374  19.022  15.040 -0.1345 -0.1350  0.2648
 1620PEP     CB61107   5.459  19.290  15.362  0.3088  0.0529 -0.0279
 1620PEP     CB61108   5.528  19.714  15.405  0.0379  0.1386 -0.2609
 1620PEP     CB61109   5.712  20.022  15.069  0.0341 -0.1392  0.2407
 1620PEP     CB61110   5.619  20.083  14.724 -0.4958  0.0997 -0.1825
 1620PEP     CB61111   5.478  20.268  14.371  0.2276  0.2617 -0.2936
 1620PEP     CB61112   5.764  20.292  14.045  0.1539  0.2275  0.0067
 1620PEP     CB61113   6.026  20.538  14.093 -0.1688 -0.1344  0.4112
 1620PEP     CB61114   6.105  20.969  14.363  0.4616  0.0848 -0.1468
 1620PEP     CB61115   5.989  21.158  14.814 -0.0853 -0.4837  0.2317
 1620PEP     CB61116   5.936  21.362  15.135 -0.2014 -0.1101 -0.0201
 1620PEP     CB61117   6.242  21.572  15.454 -0.1373  0.1213  0.0163
 1620PEP     CB61118   6.498  21.660  15.705  0.3943  0.2275 -0.3137
 1620PEP     CB61119   6.735  21.525  16.153  0.3907 -0.2183  0.2252
 1620PEP     CB61120   6.970  21.470  16.446  0.1041 -0.0116  0.0528
 1621PEP     CB61121  21.133  21.659  13.733  0.3295  0.1339 -0.5772
 1621PEP     CB61122  20.950  21.554  14.138 -0.0385  0.0109  0.0172
 1621PEP     CB61123  20.858  21.278  14.369  0.1468  0.2632  0.2304
 1621PEP     CB61124  20.905  20.907  14.573 -0.0306  0.3406  0.1263
 1621PEP     CB61125  20.906  20.445  14.784 -0.1081  0.0214 -0.1514
 1621PEP     CB61126  20.975  20.103  15.044  0.3464 -0.3733  0.2862
 1621PEP     CB61127  20.922  19.645  15.108 -0.2235 -0.1532 -0.1122
 1621PEP     CB61128  21.178  19.363  14.776  0.0559  0.2887 -0.1113
 1621PEP     CB61129  21.436  19.484  14.440  0.5121 -0.2658 -0.4694
 1621PEP     CB61130  21.379  19.756  14.144 -0.1467  0.2256  0.1918
 1621PEP     CB61131  21.426  20.107  14.045 -0.0618 -0.2680 -0.0078
 1621PEP     CB61132  21.845  20.259  14.109 -0.2176 -0.3079  0.4953
 1621PEP     CB61133  22.198  20.171  14.477 -0.0798  0.0056  0.1054
 1621PEP     CB61134  22.419  19.832  14.678  0.1724  0.2871  0.2847
 1621PEP     CB61135  22.715  19.521  14.389  0.0259 -0.0574  0.1652
 1621PEP     CB61136  22.989  19.713  14.029 -0.1708  0.2585  0.3546
 1621PEP     CB61137  22.893  20.075  13.715 -0.1384  0.5566  0.1532
 1621PEP     CB61138  22.638  20.322  13.376  0.3392 -0.2100 -0.0552
 1621PEP     CB61139  22.221  20.572  13.372 -0.0333  0.0987  0.1490
 1621PEP     CB61140  21.892  20.632  13.490  0.1098  0.3252  0.2607
 1621PEP     CB61141  21.509  20.793  13.356 -0.0199 -0.0612  0.0751
 1621PEP     CB61142  21.324  20.745  13.037  0.4753 -0.0152 -0.1246
 1621PEP     CB61143  21.146  20.384  12.693  0.0131 -0.2720  0.2471
 1621PEP     CB61144  20.795  20.241  12.489  0.0735  0.0047 -0.3634
 1621PEP     CB61145  20.440  20.309  12.633 -0.0361  0.6136 -0.2558
 1621PEP     CB61146  20.164  20.230  12.966 -0.0257 -0.0274 -0.1768
 1621PEP     CB61147  20.139  20.070  13.317  0.0702 -0.3246 -0.2383
 1621PEP     CB61148  20.461  19.889  13.543 -0.0415 -0.3727 -0.1678
 1621PEP     CB61149  20.788  19.732  13.399 -0.2345 -0.1063 -0.0570
 1621PEP     CB61150  21.099  19.488  13.185  0.2261  0.0524  0.2083
 1621PEP     CB61151  21.465  19.346  13.045 -0.1941 -0.2304 -0.2306
 1621PEP     CB61152  21.892  19.291  12.922  0.0226 -0.1768  0.0968
 1621PEP     CB61153  22.242  19.080  12.880  0.2675  0.5346 -0.3883
 1621PEP     CB61154  22.690  18.875  12.926  0.0196  0.2816 -0.0916
 1621PEP     CB61155  22.876  18.694  12.693  0.0715  0.0966  0.1024
 1621PEP     CB61156  22.935  18.535  12.261  0.1020 -0.1855 -0.0718
 1621PEP     CB61157  23.219  18.406  12.048 -0.0022 -0.0686 -0.2267
 1621PEP     CB61158  23.392  18.266  11.649 -0.0813 -0.0361 -0.1564
 1621PEP     CB61159  23.644  18.126  11.326 -0.2386  0.0016 -0.0813
 1621PEP     CB61160  24.048  18.144  11.265 -0.1379 -0.1500  0.0333
 1622PEP     CB61161   8.264  20.723   6.876 -0.5591 -0.2854  0.1903
 1622PEP     CB61162   8.382  20.907   6.464  0.1748 -0.0717 -0.1387
 1622PEP     CB61163   8.631  21.035   6.234 -0.0186 -0.8746  0.3169
 1622PEP     CB61164   8.955  21.161   6.015  0.3612  0.4003 -0.0515
 1622PEP     CB61165   9.131  21.490   5.711 -0.1816 -0.2106  0.1921
 1622PEP     CB61166   9.024  21.912   5.571  0.1022  0.0161  0.3369
 1622PEP     CB61167   8.967  22.068   5.073  0.2233  0.0710  0.0763
 1622PEP     CB61168   8.913  22.343   4.722  0.1975  0.2349  0.2517
 1622PEP     CB61169   8.937  22.288   4.244  0.1008 -0.2341  0.2333
 1622PEP     CB61170   8.894  22.272   3.770  0.1624  0.0420  0.0369
 1622PEP     CB61171   8.629  22.274   3.401 -0.2344  0.4789 -0.1103
 1622PEP     CB61172   8.608  22.539   3.044  0.0059 -0.2431  0.1506
 1622PEP     CB61173   8.791  22.960   2.886 -0.0940  0.1936 -0.2792
 1622PEP     CB61174   9.107  22.971   2.581  0.1711  0.1431  0.0993
 1622PEP     CB61175   9.539  22.933   2.567 -0.1507  0.2736  0.3914
 1622PEP     CB61176   9.992  23.086   2.683 -0.1349 -0.0303 -0.0450
 1622PEP     CB61177  10.436  22.975   2.957 -0.2943  0.0851 -0.0756
 1622PEP     CB61178  10.890  23.046   2.921  0.1722  0.4694 -0.3041
 1622PEP     CB61179  11.269  23.098   3.079 -0.0599 -0.3139 -0.1367
 1622PEP     CB61180  11.488  23.350   3.350 -0.1734 -0.1221 -0.2503
 1622PEP     CB61181  11.928  23.335   3.509 -0.2371 -0.4419 -0.0938
 1622PEP     CB61182  12.252  23.012   3.545  0.3842  0.2186 -0.1023
 1622PEP     CB61183  12.665  22.730   3.428 -0.0353  0.0327  0.0824
 1622PEP     CB61184  12.815  22.337   3.553  0.1021 -0.3285  0.2596
 1622PEP     CB61185  12.826  21.852   3.513  0.1166 -0.5032  0.2429
 1622PEP     CB61186  12.705  21.502   3.616 -0.0723 -0.1226 -0.0683
 1622PEP     CB61187  12.634  21.103   3.535  0.3927  0.2265 -0.2653
 1622PEP     CB61188  12.721  20.704   3.294  0.2646 -0.0704  0.0101
 1622PEP     CB61189  12.600  20.474   2.960  0.0003  0.0825  0.0611
 1622PEP     CB61190  12.242  20.289   2.857  0.0459  0.2252 -0.0225
 1622PEP     CB61191  11.813  20.107   2.812 -0.1903  0.3944  0.4402
 1622PEP     CB61192  11.443  20.195   2.898  0.3569 -0.2342 -0.1330
 1622PEP     CB61193  11.131  20.552   2.849 -0.1149  0.1080  0.0111
 1622PEP     CB61194  10.708  20.730   2.768 -0.2123 -0.0031 -0.1058
 1622PEP     CB61195  10.336  20.838   2.621 -0.3103 -0.0677 -0.1699
 1622PEP     CB61196  10.045  21.054   2.331 -0.1261  0.1500  0.2991
 1622PEP     CB61197  10.041  21.330   1.910 -0.2074  0.4820 -0.0115
 1622PEP     CB61198   9.867  21.574   1.597 -0.1579  0.2231  0.1975
 1622PEP     CB61199   9.769  21.854   1.247  0.2532 -0.0682  0.2144
 1622PEP     CB61200   9.457  22.029   0.988  0.2806  0.0102 -0.0764
 1623PEP     CB61201  16.066  13.573   1.749  0.4165 -0.0731 -0.0028
 1623PEP     CB61202  16.080  13.161   1.648  0.3170 -0.4032 -0.3391
 1623PEP     CB61203  15.936  12.742   1.415  0.4948 -0.1927 -0.0223
 1623PEP     CB61204  15.770  12.370   1.670  0.0127 -0.0994 -0.5440
 1623PEP     CB61205  15.841  12.331   2.079 -0.3020 -0.4455  0.0456
 1623PEP     CB61206  15.846  12.582   2.548  0.4189 -0.3099  0.3880
 1623PEP     CB61207  15.973  12.679   2.999 -0.0729 -0.3846  0.1151
 1623PEP     CB61208  16.257  12.890   3.259 -0.0201 -0.1459  0.0752
 1623PEP     CB61209  16.253  13.080   3.680  0.0723  0.2487  0.1356
 1623PEP     CB61210  16.170  13.378   3.945  0.0395  0.0918  0.4375
 1623PEP     CB61211  15.837  13.633   4.164  0.1023  0.3598 -0.0153
 1623PEP     CB61212  15.425  13.692   4.116  0.2192 -0.2975  0.1473
 1623PEP     CB61213  14.948  13.742   4.123  0.4021 -0.2388  0.0992
 1623PEP     CB61214  14.661  13.990   4.384 -0.2147  0.3549  0.0089
 1623PEP     CB61215  14.700  14.338   4.540  0.1151  0.1467 -0.2233
 1623PEP     CB61216  14.797  14.519   4.931 -0.3063 -0.2169  0.0433
 1623PEP     CB61217  14.569  14.403   5.315  0.0633  0.4245  0.2229
 1623PEP     CB61218  14.312  13.982   5.301 -0.2595 -0.3117  0.1164
 1623PEP     CB61219  14.147  13.837   4.988  0.0754 -0.4662  0.2390
 1623PEP     CB61220  14.123  13.978   4.536  0.3398  0.0580  0.3051
 1623PEP     CB61221  13.867  14.055   4.181  0.1301 -0.1128 -0.0272
 1623PEP     CB61222  13.535  13.890   4.034 -0.2056 -0.1695 -0.0875
 1623PEP     CB61223  13.431  13.742   3.565 -0.2659  0.0399  0.0986
 1623PEP     CB61224  13.688  13.804   3.141  0.1006  0.3405  0.0274
 1623PEP     CB61225  13.906  14.233   3.110  0.5402  0.0282  0.0803
 1623PEP     CB61226  14.054  14.712   3.052  0.1504 -0.0304 -0.1362
 1623PEP     CB61227  14.212  15.126   3.160 -0.1250 -0.0176  0.0066
 1623PEP     CB61228  14.117  15.575   3.086  0.0443 -0.2171  0.3788
 1623PEP     CB61229  13.758  15.875   2.994  0.0489  0.0937  0.0689
 1623PEP     CB61230  13.453  16.156   2.688  0.4719 -0.3995 -0.0438
 1623PEP     CB61231  13.173  16.500   2.513 -0.1586  0.1702 -0.3365
 1623PEP     CB61232  12.975  16.920   2.541 -0.5655 -0.1773 -0.0250
 1623PEP     CB61233  12.607  17.130   2.431  0.0630  0.3470 -0.1181
 1623PEP     CB61234  12.131  17.195   2.517  0.2064  0.1024  0.1602
 1623PEP     CB61235  11.700  17.043   2.668  0.3093 -0.1046 -0.3327
 1623PEP     CB61236  11.611  16.932   2.950  0.3230 -0.2840  0.1212
 1623PEP     CB61237  11.602  16.585   3.265  0.2829 -0.0024  0.0266
 1623PEP     CB61238  11.575  16.311   3.670 -0.1876  0.4037 -0.0435
 1623PEP     CB61239  11.667  16.372   4.147 -0.0091  0.0598  0.0347
 1623PEP     CB61240  11.898  16.533   4.457  0.1092 -0.1796 -0.3039
 1624PEP     CB61241   6.861  17.437  18.928 -0.0935  0.0213 -0.2152
 1624PEP     CB61242   6.519  17.642  18.700 -0.2496  0.1249 -0.3430
 1624PEP     CB61243   6.275  18.001  18.522 -0.2580 -0.4826 -0.2462
 1624PEP     CB61244   6.083  18.260  18.560  0.1687  0.1703 -0.2273
 1624PEP     CB61245   6.130  18.670  18.751 -0.0753 -0.5848 -0.2477
 1624PEP     CB61246   6.396  18.900  19.055  0.1900  0.0745  0.5286
 1624PEP     CB61247   6.461  18.845  19.482 -0.3316  0.2562  0.0648
 1624PEP     CB61248   6.382  18.829  19.903 -0.1748 -0.1066  0.3018
 1624PEP     CB61249   6.091  18.747  20.215  0.0266 -0.0533  0.1633
 1624PEP     CB61250   5.739  18.782  20.355  0.5461 -0.1747  0.1172
 1624PEP     CB61251   5.449  19.085  20.615 -0.3780 -0.0934 -0.3129
 1624PEP     CB61252   5.515  19.461  20.639  0.3109 -0.0841 -0.1495
 1624PEP     CB61253   5.363  19.831  20.866 -0.0830 -0.0174 -0.2405
 1624PEP     CB61254   5.255  20.093  21.256 -0.1758  0.0551 -0.0884
 1624PEP     CB61255   5.048  20.411  21.640  0.3391  0.4420  0.0871
 1624PEP     CB61256   5.117  20.393  22.021 -0.1617 -0.0702 -0.3072
 1624PEP     CB61257   5.364  20.618  22.288 -0.1674  0.3259 -0.2953
 1624PEP     CB61258   5.862  20.695  22.277  0.2743  0.0060  0.1381
 1624PEP     CB61259   6.101  20.454  22.059  0.3362  0.3701  0.8046
 1624PEP     CB61260   5.955  20.365  21.630  0.2147 -0.1884  0.0151
 1624PEP     CB61261   5.707  20.132  21.393  0.0747  0.1474 -0.0769
 1624PEP     CB61262   5.551  19.678  21.252  0.4873 -0.2320 -0.0772
 1624PEP     CB61263   5.666  19.336  21.125 -0.1817  0.0862 -0.0393
 1624PEP     CB61264   5.856  18.979  21.396  0.3208 -0.1171  0.1506
 1624PEP     CB61265   6.199  18.732  21.490  0.0020 -0.0083  0.4188
 1624PEP     CB61266   6.581  18.628  21.220  0.0083  0.2848 -0.0136
 1624PEP     CB61267   6.936  18.304  21.026 -0.2174  0.0355  0.1023
 1624PEP     CB61268   7.244  18.025  21.337  0.1619 -0.0845  0.3550
 1624PEP     CB61269   7.389  17.614  21.200  0.0579 -0.4129 -0.0634
 1624PEP     CB61270   7.665  17.605  20.823  0.0788 -0.0843  0.1940
 1624PEP     CB61271   7.663  18.002  20.544  0.0646 -0.0322  0.3473
 1624PEP     CB61272   7.549  18.493  20.515  0.2948 -0.0752  0.0136
 1624PEP     CB61273   7.324  18.798  20.313  0.1690  0.1279 -0.0715
 1624PEP     CB61274   7.286  18.944  19.828 -0.3906 -0.1882 -0.4123
 1624PEP     CB61275   7.222  18.712  19.368  0.3268  0.0112  0.1085
 1624PEP     CB61276   6.749  18.566  19.145  0.0182 -0.0728  0.0928
 1624PEP     CB61277   6.403  18.291  19.003 -0.1824 -0.1443 -0.1214
 1624PEP     CB61278   6.240  17.912  19.151  0.2030 -0.0141 -0.1728
 1624PEP     CB61279   6.483  17.650  19.444  0.0185 -0.2688  0.0856
 1624PEP     CB61280   6.716  17.323  19.628 -0.1948  0.3443  0.0511
 1625PEP     CB61281  17.576   4.981   4.591 -0.3556 -0.2793 -0.0675
 1625PEP     CB61282  17.737   5.135   4.186  0.0477 -0.0096 -0.0340
 1625PEP     CB61283  18.067   5.353   3.879 -0.2363 -0.2146 -0.0192
 1625PEP     CB61284  18.536   5.263   3.603 -0.0509 -0.3537  0.0479
 1625PEP     CB61285  18.689   4.897   3.479  0.0439 -0.2999  0.4349
 1625PEP     CB61286  18.701   4.583   3.302  0.0543  0.1115 -0.0976
 1625PEP     CB61287  18.653   4.184   3.045 -0.0031  0.0847  0.4410
 1625PEP     CB61288  18.972   3.930   2.878 -0.0566 -0.3028 -0.1126
 1625PEP     CB61289  19.369   4.067   2.754  0.3050 -0.0992 -0.1823
 1625PEP     CB61290  19.682   4.348   2.584 -0.1166 -0.1269  0.2685
 1625PEP     CB61291  19.892   4.722   2.607 -0.0770 -0.2555  0.0092
 1625PEP     CB61292  20.319   4.946   2.505  0.2865  0.2534  0.2100
 1625PEP     CB61293  20.432   5.064   2.037 -0.0395  0.1819  0.1160
 1625PEP     CB61294  20.088   5.222   1.810  0.0377  0.1369  0.2970
 1625PEP     CB61295  19.828   5.536   1.631  0.0695  0.4097 -0.0989
 1625PEP     CB61296  19.348   5.738   1.754  0.1351 -0.3715  0.3998
 1625PEP     CB61297  19.195   5.924   2.176  0.0456  0.2907  0.2909
 1625PEP     CB61298  19.302   5.714   2.542 -0.0098 -0.6787 -0.0028
 1625PEP     CB61299  19.441   5.358   2.698 -0.1379 -0.2408 -0.0074
 1625PEP     CB61300  19.365   4.827   2.731  0.1563  0.5445  0.1351
 1625PEP     CB61301  19.214   4.385   2.423  0.3111  0.2971  0.0564
 1625PEP     CB61302  19.394   3.959   2.213 -0.3556 -0.2911  0.2762
 1625PEP     CB61303  19.656   3.550   2.150 -0.2265  0.0795  0.1552
 1625PEP     CB61304  19.601   3.114   2.397 -0.0969  0.2976 -0.1821
 1625PEP     CB61305  19.340   3.120   2.789  0.2828 -0.0530 -0.2787
 1625PEP     CB61306  19.191   3.498   2.964 -0.3069  0.0996 -0.3247
 1625PEP     CB61307  19.416   3.798   3.144 -0.0598 -0.1551  0.1307
 1625PEP     CB61308  19.814   3.705   3.154  0.5688 -0.1188  0.0274
 1625PEP     CB61309  20.238   3.546   3.100 -0.0355 -0.1117 -0.2249
 1625PEP     CB61310  20.565   3.300   2.726  0.4017 -0.4309 -0.0471
 1625PEP     CB61311  20.714   3.462   2.372 -0.1491  0.0141  0.0342
 1625PEP     CB61312  20.733   3.777   2.133 -0.2454 -0.4789 -0.3813
 1625PEP     CB61313  20.881   4.066   1.894  0.1136  0.1581  0.0709
 1625PEP     CB61314  21.164   4.230   1.549 -0.1427  0.2112 -0.0827
 1625PEP     CB61315  21.509   4.402   1.423  0.2267  0.1392  0.0649
 1625PEP     CB61316  21.876   4.428   1.131  0.1962  0.1410  0.1733
 1625PEP     CB61317  21.880   4.424   0.708 -0.2363 -0.2853  0.1171
 1625PEP     CB61318  21.624   4.565   0.443  0.0816  0.0908 -0.1779
 1625PEP     CB61319  21.217   4.696   0.293 -0.0606  0.2701 -0.2350
 1625PEP     CB61320  20.814   4.539   0.157  0.1687  0.0238  0.1320
 1626PEP     CB61321  18.918  16.366   4.762  0.1206 -0.1717 -0.1764
 1626PEP     CB61322  18.646  16.676   4.596  0.1579  0.1927 -0.0076
 1626PEP     CB61323  18.214  16.755   4.448 -0.0028 -0.1723 -0.2791
 1626PEP     CB61324  17.891  16.467   4.457  0.0841  0.2280  0.0207
 1626PEP     CB61325  17.783  16.103   4.579 -0.4975 -0.0984 -0.4092
 1626PEP     CB61326  17.703  15.807   4.900 -0.0282  0.1206 -0.0509
 1626PEP     CB61327  17.516  15.454   5.206 -0.1298 -0.0835 -0.1090
 1626PEP     CB61328  17.429  15.016   5.138  0.2623  0.1175  0.4712
 1626PEP     CB61329  17.326  14.748   5.441 -0.0388 -0.1711  0.1748
 1626PEP     CB61330  17.228  14.947   5.808  0.2725 -0.0642  0.1304
 1626PEP     CB61331  17.432  15.358   5.813 -0.1283 -0.1983  0.1358
 1626PEP     CB61332  17.534  15.796   5.859  0.5692 -0.0514  0.0398
 1626PEP     CB61333  17.446  16.021   6.205 -0.0995  0.2878  0.2642
 1626PEP     CB61334  17.043  15.890   6.368 -0.0497 -0.1283 -0.2942
 1626PEP     CB61335  16.933  15.478   6.556 -0.0843  0.0624 -0.0431
 1626PEP     CB61336  16.854  15.017   6.616  0.0179  0.4442  0.0507
 1626PEP     CB61337  16.891  14.615   6.439 -0.0833  0.0014 -0.2643
 1626PEP     CB61338  16.975  14.133   6.545  0.3754  0.0602  0.0777
 1626PEP     CB61339  17.176  13.749   6.499  0.1114 -0.0869  0.1775
 1626PEP     CB61340  17.223  13.304   6.448  0.0998  0.1263  0.1939
 1626PEP     CB61341  16.941  12.931   6.123 -0.5402  0.3229  0.1068
 1626PEP     CB61342  16.607  12.509   6.169  0.2799  0.2232  0.0028
 1626PEP     CB61343  16.194  12.518   6.316  0.0289  0.1776  0.1444
 1626PEP     CB61344  15.884  12.949   6.378  0.0849  0.3353  0.0660
 1626PEP     CB61345  15.913  13.369   6.379 -0.0271 -0.1414  0.2699
 1626PEP     CB61346  16.088  13.775   6.189  0.3110 -0.1334 -0.3627
 1626PEP     CB61347  15.946  14.072   5.960 -0.0834 -0.3032  0.3586
 1626PEP     CB61348  15.864  14.364   5.573  0.0989  0.0658 -0.0074
 1626PEP     CB61349  15.805  14.383   5.103  0.0746  0.0979  0.3019
 1626PEP     CB61350  15.772  14.214   4.817 -0.1757 -0.0649  0.1936
 1626PEP     CB61351  15.737  13.831   4.690 -0.1343 -0.1729 -0.0360
 1626PEP     CB61352  15.657  13.378   4.856 -0.1417  0.1359 -0.3493
 1626PEP     CB61353  15.369  13.152   4.937 -0.1236  0.4667  0.3630
 1626PEP     CB61354  15.176  12.872   5.224  0.1458  0.1341  0.2156
 1626PEP     CB61355  14.822  12.565   5.362  0.0162 -0.1891 -0.2460
 1626PEP     CB61356  14.807  12.186   5.275  0.0664 -0.0672  0.0488
 1626PEP     CB61357  14.885  11.742   5.136  0.1777 -0.0179  0.2968
 1626PEP     CB61358  15.170  11.426   5.146 -0.1341  0.3226  0.1996
 1626PEP     CB61359  15.525  11.334   5.162  0.2121  0.3887  0.0089
 1626PEP     CB61360  15.963  11.432   5.126  0.1915 -0.0142  0.3434
 1627PEP     CB61361  18.887   1.460  12.293 -0.0026 -0.0071 -0.0622
 1627PEP     CB61362  18.476   1.185  12.256 -0.1902  0.2826 -0.2499
 1627PEP     CB61363  18.165   0.965  12.416  0.2043 -0.0331  0.0900
 1627PEP     CB61364  18.100   0.525  12.451  0.0942 -0.0976 -0.2264
 1627PEP     CB61365  18.213   0.195  12.204  0.0332 -0.1131  0.2043
 1627PEP     CB61366  18.416  -0.101  12.111  0.0122 -0.2241 -0.0795
 1627PEP     CB61367  18.456  -0.258  11.635  0.0330 -0.2870  0.6122
 1627PEP     CB61368  18.295  -0.061  11.280 -0.1103  0.0082 -0.4460
 1627PEP     CB61369  17.913   0.190  11.246 -0.0526 -0.1974 -0.0586
 1627PEP     CB61370  17.638   0.375  11.603 -0.5586  0.0420  0.1194
 1627PEP     CB61371  17.275   0.300  11.871 -0.0317 -0.0217 -0.0559
 1627PEP     CB61372  17.042   0.261  12.213  0.0611 -0.2458  0.1422
 1627PEP     CB61373  17.153   0.031  12.659 -0.0222 -0.0802  0.0002
 1627PEP     CB61374  17.520   0.035  12.843  0.2992  0.4049  0.3157
 1627PEP     CB61375  17.918   0.337  12.945 -0.8678  0.0994  0.0315
 1627PEP     CB61376  18.283   0.487  13.152  0.1780  0.0719 -0.1616
 1627PEP     CB61377  18.548   0.715  13.463  0.3573 -0.3991 -0.2699
 1627PEP     CB61378  18.754   1.067  13.585  0.1376  0.0736 -0.2795
 1627PEP     CB61379  19.084   1.302  13.623 -0.2073  0.0406  0.0751
 1627PEP     CB61380  19.131   1.672  13.889 -0.3547  0.1868  0.3606
 1627PEP     CB61381  18.796   1.710  14.133  0.3325 -0.2050  0.3725
 1627PEP     CB61382  18.685   1.768  14.501  0.3088  0.4545 -0.0084
 1627PEP     CB61383  18.642   1.994  14.861 -0.1310 -0.1658 -0.0843
 1627PEP     CB61384  18.505   2.026  15.357 -0.1605  0.1745  0.1343
 1627PEP     CB61385  18.686   2.312  15.643  0.2639  0.1785 -0.2877
 1627PEP     CB61386  18.917   2.718  15.504  0.0823  0.0920  0.1661
 1627PEP     CB61387  18.895   2.892  15.118 -0.0132 -0.2089 -0.0486
 1627PEP     CB61388  18.415   3.009  14.844 -0.1593 -0.3730 -0.3231
 1627PEP     CB61389  18.018   2.704  14.937  0.1307  0.0883 -0.3106
 1627PEP     CB61390  18.021   2.338  15.183  0.3128 -0.1346  0.1335
 1627PEP     CB61391  18.007   2.159  15.539  0.1050 -0.3087 -0.0508
 1627PEP     CB61392  17.862   1.962  15.960 -0.0739  0.2150  0.0859
 1627PEP     CB61393  17.813   1.999  16.462  0.0641 -0.0891 -0.1318
 1627PEP     CB61394  17.976   2.134  16.935  0.1330 -0.0137 -0.0738
 1627PEP     CB61395  18.384   2.016  17.199  0.5993  0.0871  0.2317
 1627PEP     CB61396  18.653   1.724  17.263  0.2337 -0.1246 -0.2467
 1627PEP     CB61397  19.126   1.489  17.236 -0.3871 -0.3066  0.3392
 1627PEP     CB61398  19.460   1.676  16.994 -0.0920 -0.4835 -0.3925
 1627PEP     CB61399  19.840   1.861  16.827  0.1871  0.0395  0.0336
 1627PEP     CB61400  20.214   2.107  16.824  0.0463  0.1208 -0.0221
 1628PEP     CB61401   0.998   6.019  15.717  0.3097  0.3808  0.3717
 1628PEP     CB61402   1.035   5.732  15.878 -0.0792 -0.1382  0.1895
 1628PEP     CB61403   1.179   5.344  15.920 -0.1658 -0.0439  0.3514
 1628PEP     CB61404   1.003   4.960  16.123 -0.3667  0.2502 -0.2116
 1628PEP     CB61405   0.585   4.844  16.413 -0.3359 -0.3883  0.2033
 1628PEP     CB61406   0.343   4.865  16.813 -0.4908 -0.0118  0.1076
 1628PEP     CB61407   0.374   4.841  17.256 -0.1176 -0.0738  0.0871
 1628PEP     CB61408   0.407   4.945  17.738 -0.0213 -0.0862 -0.2665
 1628PEP     CB61409   0.050   4.779  17.961  0.0335  0.1800 -0.2896
 1628PEP     CB61410  -0.373   4.828  17.843  0.2835 -0.0402 -0.2304
 1628PEP     CB61411  -0.588   5.078  17.601 -0.2970 -0.0443  0.3904
 1628PEP     CB61412  -0.523   5.305  17.245  0.1133  0.0489 -0.1001
 1628PEP     CB61413  -0.221   5.577  17.246  0.3040  0.3069 -0.0341
 1628PEP     CB61414  -0.228   5.878  17.645  0.0292 -0.0238 -0.0940
 1628PEP     CB61415  -0.303   5.741  18.070 -0.3460  0.0948 -0.0451
 1628PEP     CB61416  -0.573   5.305  18.298 -0.0519 -0.2140  0.2644
 1628PEP     CB61417  -0.887   5.103  18.489  0.0684 -0.3243 -0.1116
 1628PEP     CB61418  -1.184   5.107  18.727  0.2404  0.1741  0.2760
 1628PEP     CB61419  -1.453   5.236  19.051  0.1158  0.0848  0.0737
 1628PEP     CB61420  -1.478   5.540  19.409  0.1762 -0.3625  0.3259
 1628PEP     CB61421  -1.215   5.871  19.583  0.1348  0.2750 -0.2663
 1628PEP     CB61422  -0.989   6.159  19.635  0.1508  0.3118 -0.0966
 1628PEP     CB61423  -0.797   6.527  19.610  0.0746  0.3490 -0.2023
 1628PEP     CB61424  -0.435   6.705  19.538 -0.1163 -0.0694  0.1073
 1628PEP     CB61425  -0.101   7.070  19.460 -0.2072 -0.3566  0.1672
 1628PEP     CB61426  -0.007   7.316  19.183  0.2342  0.0493 -0.0645
 1628PEP     CB61427   0.040   7.418  18.788  0.0068  0.0795  0.1578
 1628PEP     CB61428   0.021   7.525  18.389 -0.1339  0.0116 -0.0856
 1628PEP     CB61429   0.162   7.780  18.048  0.0987  0.1438  0.1780
 1628PEP     CB61430   0.294   8.003  17.628 -0.2154  0.0060 -0.0980
 1628PEP     CB61431   0.687   7.996  17.425  0.3612  0.1506  0.2292
 1628PEP     CB61432   1.067   8.065  17.621  0.1058 -0.3224  0.3139
 1628PEP     CB61433   1.120   8.490  17.691  0.0122 -0.1083  0.3835
 1628PEP     CB61434   0.724   8.687  17.560 -0.2905  0.0766 -0.1600
 1628PEP     CB61435   0.250   8.593  17.512 -0.0673  0.3566 -0.0360
 1628PEP     CB61436  -0.202   8.734  17.495 -0.5091 -0.0856  0.2780
 1628PEP     CB61437  -0.633   9.110  17.576  0.0077  0.1073 -0.0145
 1628PEP     CB61438  -0.871   9.426  17.667 -0.1847  0.0336 -0.0890
 1628PEP     CB61439  -0.962   9.790  17.885 -0.1054 -0.2199  0.2143
 1628PEP     CB61440  -0.966   9.986  18.317 -0.0589  0.0371  0.1370
 1629PEP     CB61441  14.569  14.812   3.077  0.0375 -0.0615  0.1861
 1629PEP     CB61442  14.718  14.610   2.684  0.0281  0.1987  0.1451
 1629PEP     CB61443  14.979  14.624   2.419 -0.1283 -0.2064  0.1067
 1629PEP     CB61444  15.227  14.733   2.057 -0.0063  0.0608  0.2871
 1629PEP     CB61445  15.300  15.188   2.134  0.0838  0.2959 -0.4003
 1629PEP     CB61446  15.002  15.556   2.222 -0.1030 -0.1546  0.5213
 1629PEP     CB61447  14.659  15.805   2.379  0.3450  0.0135 -0.0748
 1629PEP     CB61448  14.299  15.850   2.655  0.0766  0.2149  0.0628
 1629PEP     CB61449  14.104  16.184   2.821  0.0553 -0.1707 -0.2031
 1629PEP     CB61450  14.175  16.614   2.956 -0.3619  0.0600  0.1277
 1629PEP     CB61451  14.470  16.766   3.357  0.4362 -0.3126  0.0935
 1629PEP     CB61452  14.383  17.032   3.681 -0.1209 -0.1432 -0.1321
 1629PEP     CB61453  14.632  17.457   3.643  0.2756 -0.1198  0.5859
 1629PEP     CB61454  14.943  17.441   3.446  0.0094 -0.2576  0.4833
 1629PEP     CB61455  15.355  17.129   3.417 -0.0563 -0.3297 -0.0704
 1629PEP     CB61456  15.467  16.808   3.721 -0.1168  0.1289  0.1708
 1629PEP     CB61457  15.263  16.780   4.114  0.2311  0.3256 -0.0995
 1629PEP     CB61458  15.013  16.910   4.423  0.4583 -0.2555 -0.2617
 1629PEP     CB61459  14.608  16.787   4.544 -0.0798  0.1593 -0.4568
 1629PEP     CB61460  14.289  16.726   4.262 -0.0441 -0.2805  0.0404
 1629PEP     CB61461  14.029  16.771   3.865 -0.4840 -0.2276  0.2228
 1629PEP     CB61462  13.877  16.934   3.480 -0.4058 -0.1760  0.1418
 1629PEP     CB61463  13.739  16.882   3.090  0.0277  0.0602  0.1134
 1629PEP     CB61464  13.449  16.634   2.891  0.2376 -0.1856  0.0413
 1629PEP     CB61465  13.181  16.319   3.135  0.2868  0.1275 -0.2986
 1629PEP     CB61466  13.329  16.058   3.375 -0.4105 -0.0462 -0.1677
 1629PEP     CB61467  13.755  15.978   3.531  0.0633 -0.1057 -0.3301
 1629PEP     CB61468  14.124  16.009   3.344  0.2189  0.3067  0.3743
 1629PEP     CB61469  14.583  16.153   3.305 -0.0039  0.2177  0.2280
 1629PEP     CB61470  14.846  16.434   3.382 -0.4934 -0.1017  0.1752
 1629PEP     CB61471  14.907  16.916   3.577  0.3499  0.0874  0.1645
 1629PEP     CB61472  15.067  17.196   3.991  0.1357 -0.0301 -0.2562
 1629PEP     CB61473  15.202  17.512   4.136 -0.2914  0.3292  0.0759
 1629PEP     CB61474  15.463  17.817   4.337  0.3382  0.2262 -0.0858
 1629PEP     CB61475  15.364  18.123   4.490  0.0517  0.0337 -0.0861
 1629PEP     CB61476  15.102  18.084   4.859  0.0786 -0.0436  0.1686
 1629PEP     CB61477  15.210  17.857   5.205 -0.6063  0.0852  0.0304
 1629PEP     CB61478  15.294  17.387   5.237 -0.0649  0.0987  0.2186
 1629PEP     CB61479  15.005  17.129   4.949  0.1980 -0.2850  0.1397
 1629PEP     CB61480  14.828  17.339   4.607  0.9009  0.1616  0.0944
 1630PEP     CB61481  15.200  19.648   3.811  0.4370 -0.1754  0.2385
 1630PEP     CB61482  15.581  19.593   3.766 -0.1285 -0.0779  0.1420
 1630PEP     CB61483  16.012  19.574   3.774  0.2299  0.0742 -0.1640
 1630PEP     CB61484  16.408  19.751   3.789  0.2508  0.1176 -0.3747
 1630PEP     CB61485  16.569  20.059   3.899  0.1989 -0.1509 -0.2701
 1630PEP     CB61486  16.421  20.323   4.220  0.0076 -0.0397 -0.0915
 1630PEP     CB61487  16.162  20.335   4.640 -0.0814 -0.3580 -0.2337
 1630PEP     CB61488  15.879  20.509   4.814  0.3658  0.5055 -0.1446
 1630PEP     CB61489  15.776  20.881   5.143 -0.0415 -0.1400 -0.2997
 1630PEP     CB61490  16.108  21.158   5.360  0.0851  0.3309 -0.3157
 1630PEP     CB61491  16.289  21.561   5.583 -0.5108 -0.3620 -0.3099
 1630PEP     CB61492  16.292  21.808   5.875  0.1289 -0.0103  0.2660
 1630PEP     CB61493  16.308  21.968   6.285 -0.0336 -0.1871  0.0921
 1630PEP     CB61494  16.255  21.929   6.598 -0.3030 -0.0303  0.2009
 1630PEP     CB61495  16.413  22.152   6.910  0.2973  0.0740 -0.1947
 1630PEP     CB61496  16.402  22.526   7.162 -0.1325 -0.3656  0.0702
 1630PEP     CB61497  16.336  22.873   7.326 -0.2875  0.2810  0.1111
 1630PEP     CB61498  16.208  23.083   7.677 -0.0494  0.1507  0.2841
 1630PEP     CB61499  15.912  23.301   8.052 -0.2122  0.0320  0.1979
 1630PEP     CB61500  15.630  23.573   8.060 -0.0676  0.0296 -0.0183
 1630PEP     CB61501  15.571  23.822   7.698  0.0839 -0.2618  0.0521
 1630PEP     CB61502  15.403  23.797   7.311 -0.1105  0.1345  0.1808
 1630PEP     CB61503  15.257  23.851   6.938  0.4262 -0.1167 -0.1362
 1630PEP     CB61504  15.135  23.731   6.523  0.1409  0.1715 -0.1603
 1630PEP     CB61505  15.186  23.445   6.133  0.3216 -0.1016 -0.3636
 1630PEP     CB61506  15.028  23.306   5.756 -0.2792 -0.0109 -0.1140
 1630PEP     CB61507  15.001  23.305   5.355  0.0129 -0.0777 -0.1089
 1630PEP     CB61508  14.977  23.204   4.859  0.0349  0.1241  0.0600
 1630PEP     CB61509  15.104  23.018   4.471  0.3760  0.0033  0.2491
 1630PEP     CB61510  15.023  23.126   4.018 -0.4483  0.0902  0.2603
 1630PEP     CB61511  14.959  23.383   3.658  0.0946 -0.0188 -0.2655
 1630PEP     CB61512  14.638  23.567   3.392  0.1215 -0.0270  0.1273
 1630PEP     CB61513  14.328  23.914   3.469  0.1707  0.3697  0.0206
 1630PEP     CB61514  14.356  24.164   3.769 -0.0485  0.0125 -0.1812
 1630PEP     CB61515  14.521  24.062   4.166  0.1633  0.1210  0.0120
 1630PEP     CB61516  14.949  23.995   4.249  0.2025  0.0173  0.1942
 1630PEP     CB61517  15.215  24.152   4.050 -0.2416  0.1692  0.1249
 1630PEP     CB61518  15.600  24.018   3.759  0.0436 -0.2121 -0.0189
 1630PEP     CB61519  15.722  23.899   3.346 -0.0340 -0.0410  0.1307
 1630PEP     CB61520  15.638  23.638   2.934 -0.0736  0.5457 -0.1176
 1631PEP     CB61521  22.021  19.843  19.372  0.2978 -0.2473 -0.2066
 1631PEP     CB61522  22.357  19.929  19.722  0.0933 -0.2656 -0.0568
 1631PEP     CB61523  22.647  20.138  20.029  0.2204  0.0025  0.0169
 1631PEP     CB61524  22.640  20.552  20.252 -0.2742 -0.2754  0.1709
 1631PEP     CB61525  22.358  20.938  20.241  0.3348  0.0030 -0.1079
 1631PEP     CB61526  22.064  21.039  19.870 -0.1305 -0.5086  0.2284
 1631PEP     CB61527  22.099  20.900  19.441 -0.2081 -0.2270  0.2500
 1631PEP     CB61528  22.334  20.551  19.313  0.2059  0.1860 -0.1629
 1631PEP     CB61529  22.758  20.466  19.111 -0.4403 -0.0872 -0.1302
 1631PEP     CB61530  23.145  20.437  18.811  0.3254 -0.0557 -0.1249
 1631PEP     CB61531  23.278  20.523  18.362  0.3548  0.2044  0.3901
 1631PEP     CB61532  23.715  20.741  18.174  0.3202  0.0284 -0.2812
 1631PEP     CB61533  24.074  20.608  18.137 -0.0166 -0.5640 -0.0743
 1631PEP     CB61534  24.418  20.551  18.244  0.2502  0.1016  0.2914
 1631PEP     CB61535  24.866  20.452  18.130  0.1516  0.0297 -0.0674
 1631PEP     CB61536  25.276  20.470  17.844 -0.3290 -0.0049 -0.0013
 1631PEP     CB61537  25.550  20.840  17.696 -0.0223  0.1268 -0.1833
 1631PEP     CB61538  25.798  21.186  17.840  0.1550 -0.0984 -0.1751
 1631PEP     CB61539  26.184  21.375  17.948  0.4454  0.1377  0.1938
 1631PEP     CB61540  26.297  21.789  18.181  0.5248  0.1194 -0.2316
 1631PEP     CB61541  26.111  22.161  18.158 -0.2110  0.1614  0.1557
 1631PEP     CB61542  25.795  22.274  18.247  0.2279 -0.0796 -0.3663
 1631PEP     CB61543  25.345  22.139  18.408 -0.0437 -0.0097  0.1558
 1631PEP     CB61544  25.174  21.801  18.593 -0.2718 -0.3736 -0.2446
 1631PEP     CB61545  25.057  21.674  18.970  0.0294 -0.5224 -0.0984
 1631PEP     CB61546  24.939  21.556  19.350  0.2522 -0.3408  0.3770
 1631PEP     CB61547  24.556  21.614  19.663  0.0212 -0.0836 -0.3803
 1631PEP     CB61548  24.401  21.920  19.733  0.0894  0.0074 -0.2071
 1631PEP     CB61549  24.174  22.205  19.784  0.4437 -0.2919  0.1867
 1631PEP     CB61550  23.779  22.314  19.846  0.0522 -0.2731  0.0515
 1631PEP     CB61551  23.382  22.461  19.862  0.1106  0.2871 -0.0432
 1631PEP     CB61552  23.033  22.705  19.743  0.0245 -0.1548 -0.2358
 1631PEP     CB61553  22.914  22.667  19.314  0.0168  0.2902  0.1806
 1631PEP     CB61554  23.101  22.687  18.879 -0.0609 -0.2919  0.1691
 1631PEP     CB61555  23.249  22.724  18.418  0.3051 -0.2145 -0.0944
 1631PEP     CB61556  23.564  22.713  18.187  0.0607  0.0274 -0.0875
 1631PEP     CB61557  23.705  22.437  17.910  0.2037 -0.1346  0.1539
 1631PEP     CB61558  23.584  22.019  17.645  0.3656 -0.5851  0.1581
 1631PEP     CB61559  23.611  21.716  17.332  0.0536  0.4730  0.1619
 1631PEP     CB61560  23.682  21.409  17.005 -0.1613  0.1299  0.2673
 1632PEP     CB61561  17.897  20.123  18.564  0.2060  0.0283  0.1318
 1632PEP     CB61562  17.874  20.444  18.233  0.0938  0.0913 -0.2761
 1632PEP     CB61563  18.009  20.712  17.825  0.2284 -0.0840 -0.2229
 1632PEP     CB61564  18.279  21.020  17.635 -0.0080 -0.2026 -0.1652
 1632PEP     CB61565  18.622  21.193  17.475 -0.1090 -0.0608 -0.1229
 1632PEP     CB61566  19.011  20.972  17.425  0.1165  0.5013  0.2579
 1632PEP     CB61567  18.985  20.514  17.472  0.0984  0.6098  0.2790
 1632PEP     CB61568  18.854  20.302  17.831  0.2670  0.2641  0.0930
 1632PEP     CB61569  19.045  19.870  18.000  0.1772 -0.0497  0.3813
 1632PEP     CB61570  19.312  19.542  17.999 -0.0703 -0.0988  0.0944
 1632PEP     CB61571  19.440  19.163  18.059 -0.2909  0.3240  0.0207
 1632PEP     CB61572  19.738  18.802  17.911  0.1058  0.0535 -0.0295
 1632PEP     CB61573  20.105  18.703  17.906 -0.1435  0.0839 -0.1081
 1632PEP     CB61574  20.315  18.367  17.803  0.0407 -0.0151 -0.4140
 1632PEP     CB61575  20.640  18.251  17.912  0.1403  0.1102 -0.0545
 1632PEP     CB61576  21.010  18.378  18.022  0.1059 -0.1433  0.2683
 1632PEP     CB61577  21.025  18.671  18.410 -0.0682  0.2921 -0.4460
 1632PEP     CB61578  20.778  18.997  18.587  0.1047  0.2121  0.2526
 1632PEP     CB61579  20.721  19.447  18.466  0.1058  0.1215 -0.1663
 1632PEP     CB61580  21.033  19.764  18.393  0.1116 -0.0671 -0.0543
 1632PEP     CB61581  21.444  19.856  18.359 -0.1028 -0.1142 -0.3002
 1632PEP     CB61582  21.686  20.195  18.167 -0.2056 -0.2528 -0.0007
 1632PEP     CB61583  21.788  20.625  18.318  0.0047 -0.0591 -0.2078
 1632PEP     CB61584  21.733  20.896  18.616  0.5866  0.1407 -0.0821
 1632PEP     CB61585  21.461  21.284  18.770  0.1009  0.4681  0.0922
 1632PEP     CB61586  21.068  21.383  18.963 -0.2860  0.0025  0.3501
 1632PEP     CB61587  20.683  21.226  18.858  0.2482 -0.0244  0.2247
 1632PEP     CB61588  20.247  20.992  18.871  0.1380 -0.2707 -0.1293
 1632PEP     CB61589  19.901  20.880  19.189  0.1490  0.2453 -0.0457
 1632PEP     CB61590  19.751  20.703  19.604 -0.0322  0.3320 -0.1611
 1632PEP     CB61591  19.394  20.510  19.672  0.0177  0.3624  0.4729
 1632PEP     CB61592  19.331  20.107  19.639  0.0876  0.3145 -0.4046
 1632PEP     CB61593  19.435  19.702  19.763 -0.1395 -0.1355 -0.2067
 1632PEP     CB61594  19.311  19.285  20.033  0.1313  0.1561 -0.0067
 1632PEP     CB61595  18.935  19.186  20.125 -0.1342  0.0388  0.1046
 1632PEP     CB61596  18.574  18.864  20.263  0.1939 -0.0563  0.1512
 1632PEP     CB61597  18.492  18.760  20.731 -0.2473  0.0217  0.1204
 1632PEP     CB61598  18.686  18.890  21.086 -0.1213  0.1848  0.3917
 1632PEP     CB61599  18.667  18.937  21.615  0.1525 -0.0712 -0.0721
 1632PEP     CB61600  18.568  18.767  21.984  0.2233 -0.2220 -0.0103
 1633PEP     CB61601  17.417   1.237   0.738  0.1113  0.2500 -0.0472
 1633PEP     CB61602  17.792   1.237   0.842  0.1178 -0.0390  0.3293
 1633PEP     CB61603  18.088   1.339   1.159  0.2855  0.2349  0.0325
 1633PEP     CB61604  18.158   1.699   1.464  0.0604 -0.3289 -0.0479
 1633PEP     CB61605  18.473   1.983   1.617  0.4551  0.0497 -0.1637
 1633PEP     CB61606  18.934   2.074   1.667 -0.1716 -0.1073  0.1316
 1633PEP     CB61607  19.371   2.048   1.575 -0.2965 -0.1410 -0.1775
 1633PEP     CB61608  19.786   1.867   1.565 -0.1586  0.0019  0.1987
 1633PEP     CB61609  20.012   1.596   1.492 -0.0587  0.3794  0.1728
 1633PEP     CB61610  20.487   1.455   1.294  0.0100 -0.0990 -0.0463
 1633PEP     CB61611  20.779   1.362   1.584 -0.2086  0.5905 -0.1301
 1633PEP     CB61612  21.030   1.038   1.729 -0.4150  0.1454 -0.0437
 1633PEP     CB61613  21.354   0.926   1.657  0.0050  0.0840 -0.1131
 1633PEP     CB61614  21.638   0.874   1.867  0.2259 -0.6185 -0.2022
 1633PEP     CB61615  21.674   0.548   2.129 -0.2244 -0.2615 -0.0756
 1633PEP     CB61616  21.924   0.269   1.888 -0.1281  0.1119 -0.1639
 1633PEP     CB61617  22.324   0.274   1.712 -0.0754 -0.2131  0.2680
 1633PEP     CB61618  22.699   0.065   1.642 -0.3356  0.5390 -0.1584
 1633PEP     CB61619  23.040  -0.005   1.804  0.3411 -0.4228 -0.3574
 1633PEP     CB61620  23.429   0.004   1.892 -0.0122  0.2990  0.1698
 1633PEP     CB61621  23.859   0.079   1.967  0.4183  0.1786 -0.1990
 1633PEP     CB61622  24.079   0.330   2.159  0.1726  0.1836 -0.1701
 1633PEP     CB61623  24.011   0.494   2.568 -0.1919 -0.3381  0.0963
 1633PEP     CB61624  23.697   0.584   2.757  0.0724 -0.3005 -0.2047
 1633PEP     CB61625  23.248   0.492   2.579 -0.3097  0.1615  0.3004
 1633PEP     CB61626  23.154   0.065   2.401 -0.4945  0.2465 -0.1623
 1633PEP     CB61627  23.507  -0.270   2.356  0.0025  0.2136  0.1150
 1633PEP     CB61628  23.927  -0.261   2.400 -0.3077  0.0339  0.3939
 1633PEP     CB61629  24.386  -0.336   2.492  0.1639  0.2131 -0.0838
 1633PEP     CB61630  24.880  -0.281   2.291 -0.1542  0.4242 -0.1908
 1633PEP     CB61631  25.279  -0.182   2.414  0.0140 -0.0477  0.0264
 1633PEP     CB61632  25.678  -0.048   2.471 -0.3334 -0.0625 -0.3820
 1633PEP     CB61633  25.919  -0.025   2.075 -0.2391 -0.1008 -0.2761
 1633PEP     CB61634  26.082   0.222   1.739  0.0226 -0.4714 -0.2028
 1633PEP     CB61635  26.337   0.229   1.337  0.2437 -0.0430  0.0125
 1633PEP     CB61636  26.458  -0.172   1.157  0.2171 -0.2300  0.1675
 1633PEP     CB61637  26.177  -0.522   1.203 -0.1847  0.1514  0.2246
 1633PEP     CB61638  25.798  -0.638   1.317  0.0383 -0.0711  0.3876
 1633PEP     CB61639  25.440  -0.728   1.234  0.0848 -0.2456 -0.2283
 1633PEP     CB61640  25.224  -1.044   0.941  0.2068 -0.2229 -0.0890
 1634PEP     CB61641   6.439  16.477  21.624 -0.0458  0.4612 -0.1280
 1634PEP     CB61642   6.475  16.914  21.610 -0.0215  0.1550 -0.3439
 1634PEP     CB61643   6.391  17.321  21.806 -0.2992 -0.2185  0.1175
 1634PEP     CB61644   6.450  17.555  22.189  0.1589 -0.1494  0.3436
 1634PEP     CB61645   6.709  17.734  22.356 -0.1851  0.0921  0.0307
 1634PEP     CB61646   7.097  17.855  22.298 -0.4666 -0.1593 -0.1039
 1634PEP     CB61647   7.351  17.598  22.579  0.1304  0.0015 -0.1461
 1634PEP     CB61648   7.194  17.435  22.972 -0.0098  0.3203  0.3416
 1634PEP     CB61649   7.024  17.242  23.447  0.2710  0.2060 -0.1974
 1634PEP     CB61650   6.877  17.240  23.878 -0.3362 -0.2503 -0.0929
 1634PEP     CB61651   6.787  17.028  24.238 -0.0658  0.2380  0.0701
 1634PEP     CB61652   6.514  16.882  24.464 -0.1334  0.2367  0.0224
 1634PEP     CB61653   6.478  16.594  24.822 -0.2019 -0.4645  0.0716
 1634PEP     CB61654   6.492  16.288  25.130 -0.2486 -0.2965 -0.0412
 1634PEP     CB61655   6.647  15.968  25.279  0.1629  0.1142 -0.2200
 1634PEP     CB61656   6.659  15.567  25.400 -0.1559  0.1013  0.3107
 1634PEP     CB61657   6.778  15.120  25.312  0.0407 -0.3056 -0.1640
 1634PEP     CB61658   6.687  14.786  25.585 -0.3440 -0.1683  0.0846
 1634PEP     CB61659   6.456  14.653  26.071  0.1766  0.3005  0.0447
 1634PEP     CB61660   6.452  14.656  26.563 -0.0995  0.0401 -0.2407
 1634PEP     CB61661   6.349  14.647  27.017  0.2133 -0.0885 -0.3730
 1634PEP     CB61662   6.370  14.620  27.436 -0.1253 -0.0009 -0.2095
 1634PEP     CB61663   6.215  14.345  27.817 -0.0298  0.1460  0.2791
 1634PEP     CB61664   5.811  14.258  28.024 -0.1603 -0.0971 -0.0694
 1634PEP     CB61665   5.585  13.971  28.116  0.0689 -0.1584  0.1037
 1634PEP     CB61666   5.152  13.850  28.215 -0.1054  0.1454  0.1651
 1634PEP     CB61667   4.755  13.796  28.198 -0.0500 -0.0388 -0.2661
 1634PEP     CB61668   4.323  13.828  28.095  0.3833  0.2001 -0.1803
 1634PEP     CB61669   3.970  13.571  28.137 -0.0937  0.2368  0.1926
 1634PEP     CB61670   3.546  13.388  28.373 -0.1860  0.1928  0.0680
 1634PEP     CB61671   3.232  13.279  28.672  0.1353 -0.2089 -0.1508
 1634PEP     CB61672   2.897  13.251  28.923 -0.4666 -0.2225  0.2078
 1634PEP     CB61673   2.503  13.399  29.206 -0.1095  0.1171  0.0268
 1634PEP     CB61674   2.482  13.623  29.627  0.0739  0.0966  0.4011
 1634PEP     CB61675   2.654  13.485  29.961  0.5240 -0.3376 -0.0706
 1634PEP     CB61676   2.804  13.264  30.293  0.3190 -0.2432 -0.4960
 1634PEP     CB61677   2.759  13.240  30.763  0.4432 -0.0283 -0.2292
 1634PEP     CB61678   3.009  13.314  31.138  0.3732  0.2700  0.3176
 1634PEP     CB61679   3.271  13.060  31.431  0.1416  0.1669  0.0100
 1634PEP     CB61680   3.306  12.732  31.761 -0.0697  0.3084  0.4830
 1635PEP     CB61681   2.643   7.877  21.921  0.1751 -0.2262  0.4217
 1635PEP     CB61682   3.033   7.695  22.118 -0.3834 -0.5667 -0.0498
 1635PEP     CB61683   3.269   7.404  22.238  0.5302 -0.5227 -0.4167
 1635PEP     CB61684   3.710   7.445  22.278  0.2860 -0.1196 -0.1372
 1635PEP     CB61685   3.966   7.761  22.225  0.2734  0.0362  0.0081
 1635PEP     CB61686   4.020   8.141  22.072 -0.0222  0.2394 -0.2573
 1635PEP     CB61687   4.010   8.508  22.054 -0.0320 -0.4776 -0.0885
 1635PEP     CB61688   4.238   8.900  22.063 -0.2150 -0.0243  0.0911
 1635PEP     CB61689   4.633   8.965  22.016 -0.0650  0.1293 -0.2052
 1635PEP     CB61690   4.956   8.951  22.285 -0.1479 -0.2797  0.0856
 1635PEP     CB61691   5.353   8.689  22.472 -0.0714 -0.1529  0.0174
 1635PEP     CB61692   5.446   8.415  22.702 -0.0256  0.3219 -0.0333
 1635PEP     CB61693   5.352   8.086  22.964 -0.0549 -0.2544  0.3037
 1635PEP     CB61694   5.315   7.941  23.338 -0.2236  0.1834  0.2811
 1635PEP     CB61695   5.518   7.586  23.547 -0.3421 -0.1230 -0.2883
 1635PEP     CB61696   5.793   7.545  23.809  0.5409  0.1299 -0.3942
 1635PEP     CB61697   6.181   7.561  23.943  0.0741  0.1047  0.1495
 1635PEP     CB61698   6.502   7.878  24.017 -0.0148 -0.0224  0.2598
 1635PEP     CB61699   6.827   8.238  24.222 -0.1453 -0.2434 -0.0940
 1635PEP     CB61700   6.969   8.672  24.138  0.2812  0.4549  0.4402
 1635PEP     CB61701   6.818   9.052  23.983 -0.1158 -0.4058 -0.2045
 1635PEP     CB61702   6.663   9.526  23.943  0.0190 -0.1505 -0.4837
 1635PEP     CB61703   6.372   9.866  23.889  0.3572 -0.0052  0.0057
 1635PEP     CB61704   6.161  10.199  24.039  0.1632  0.0932 -0.0525
 1635PEP     CB61705   5.819  10.469  24.144  0.0722 -0.1353 -0.3851
 1635PEP     CB61706   5.437  10.703  23.985 -0.1364  0.2002  0.1214
 1635PEP     CB61707   5.097  10.886  23.762  0.0509  0.1880  0.2579
 1635PEP     CB61708   4.903  11.262  23.843 -0.1695 -0.3193  0.1661
 1635PEP     CB61709   4.561  11.576  24.087 -0.1126  0.4153  0.4490
 1635PEP     CB61710   4.118  11.648  24.019  0.1233 -0.0334  0.0111
 1635PEP     CB61711   3.843  11.868  23.615  0.1196 -0.3095 -0.1489
 1635PEP     CB61712   3.440  11.826  23.392 -0.1342  0.4262  0.2220
 1635PEP     CB61713   3.245  12.002  23.004  0.0497  0.4443 -0.1186
 1635PEP     CB61714   3.295  11.966  22.536  0.2903  0.2086 -0.0999
 1635PEP     CB61715   3.114  12.122  22.102  0.1967  0.0209  0.0224
 1635PEP     CB61716   2.929  12.415  21.736  0.1000 -0.1020  0.0058
 1635PEP     CB61717   2.845  12.479  21.276 -0.2485 -0.1316 -0.4728
 1635PEP     CB61718   2.891  12.573  20.884  0.0487  0.1493  0.3682
 1635PEP     CB61719   3.132  12.842  20.552 -0.3697 -0.1436  0.1282
 1635PEP     CB61720   3.489  12.982  20.353  0.0370 -0.1802  0.0194
 1636PEP     CB61721   4.915  21.161   2.485  0.0541  0.5325 -0.4620
 1636PEP     CB61722   5.353  21.044   2.590 -0.0969  0.2145 -0.4182
 1636PEP     CB61723   5.802  20.989   2.435 -0.0085 -0.2009  0.1934
 1636PEP     CB61724   6.261  20.808   2.332 -0.1702 -0.1909 -0.1787
 1636PEP     CB61725   6.480  20.590   1.939 -0.0459 -0.0054 -0.0863
 1636PEP     CB61726   6.729  20.797   1.568 -0.4886 -0.0992 -0.1143
 1636PEP     CB61727   6.851  21.173   1.553 -0.1393  0.1318 -0.2334
 1636PEP     CB61728   6.958  21.559   1.807 -0.2301  0.2416 -0.1615
 1636PEP     CB61729   6.761  21.888   2.039 -0.0082  0.0617  0.3433
 1636PEP     CB61730   6.450  22.154   2.223 -0.1755 -0.2002  0.0961
 1636PEP     CB61731   6.131  22.472   2.042  0.0056 -0.1751  0.0590
 1636PEP     CB61732   5.855  22.798   2.043 -0.0247  0.0518  0.1168
 1636PEP     CB61733   5.819  23.120   1.841 -0.0610 -0.1564 -0.3649
 1636PEP     CB61734   5.577  23.335   1.695 -0.2225 -0.1791  0.1352
 1636PEP     CB61735   5.518  23.703   1.401 -0.2154  0.2430 -0.1188
 1636PEP     CB61736   5.394  23.784   1.005 -0.0707  0.0986 -0.1553
 1636PEP     CB61737   5.155  23.910   0.610 -0.4337 -0.2674 -0.1096
 1636PEP     CB61738   5.156  24.134   0.243  0.1984 -0.1869  0.2509
 1636PEP     CB61739   5.381  24.207  -0.092 -0.0437  0.2012 -0.0619
 1636PEP     CB61740   5.236  24.244  -0.557 -0.0436 -0.1157 -0.0034
 1636PEP     CB61741   4.848  24.179  -0.764  0.1616 -0.0808 -0.2383
 1636PEP     CB61742   4.504  23.873  -0.764 -0.4973  0.1791  0.1533
 1636PEP     CB61743   4.099  23.879  -0.805  0.0469  0.0964 -0.1077
 1636PEP     CB61744   3.685  23.771  -0.527  0.3900 -0.2419  0.1185
 1636PEP     CB61745   3.329  23.631  -0.311  0.0689  0.0167  0.4630
 1636PEP     CB61746   2.917  23.537  -0.436  0.1781 -0.0213 -0.0671
 1636PEP     CB61747   2.657  23.232  -0.653  0.2154 -0.1513  0.3740
 1636PEP     CB61748   2.512  22.884  -0.885  0.1478 -0.1789 -0.1183
 1636PEP     CB61749   2.426  22.568  -1.150  0.2186 -0.1792 -0.1468
 1636PEP     CB61750   2.116  22.297  -1.255  0.0259  0.2368  0.1740
 1636PEP     CB61751   1.866  22.014  -1.040  0.3376 -0.1778  0.4640
 1636PEP     CB61752   1.760  21.787  -0.650 -0.1770 -0.4742 -0.1545
 1636PEP     CB61753   1.700  21.513  -0.366 -0.2226 -0.2145  0.0022
 1636PEP     CB61754   2.045  21.353  -0.113  0.0448 -0.1201  0.5196
 1636PEP     CB61755   2.385  21.594   0.086 -0.0424 -0.0140 -0.3313
 1636PEP     CB61756   2.669  21.497   0.378 -0.2230 -0.0143  0.0346
 1636PEP     CB61757   3.043  21.373   0.666 -0.3545  0.1299 -0.2399
 1636PEP     CB61758   3.437  21.280   0.633 -0.1099  0.5860 -0.1252
 1636PEP     CB61759   3.710  21.103   0.490  0.1204  0.0334 -0.5349
 1636PEP     CB61760   3.578  20.917   0.073  0.3821  0.0788  0.0886
 1637PEP     CB61761  15.055   0.297  20.560  0.0254 -0.1492 -0.3275
 1637PEP     CB61762  15.434   0.392  20.778  0.0733 -0.0860  0.1709
 1637PEP     CB61763  15.786   0.560  21.152 -0.0739 -0.0523 -0.0182
 1637PEP     CB61764  16.118   0.781  21.343  0.0898 -0.1363 -0.4527
 1637PEP     CB61765  16.279   1.160  21.405  0.0886  0.0893  0.3514
 1637PEP     CB61766  16.296   1.608  21.277  0.1236  0.2302  0.2632
 1637PEP     CB61767  16.262   1.988  21.044 -0.0315  0.1935 -0.0252
 1637PEP     CB61768  16.252   2.516  21.022  0.0983 -0.2911 -0.0118
 1637PEP     CB61769  16.316   2.723  20.706  0.1493 -0.0288  0.0508
 1637PEP     CB61770  16.628   2.685  20.364  0.0002  0.3993  0.0943
 1637PEP     CB61771  16.991   2.551  20.437  0.2174 -0.0044 -0.2487
 1637PEP     CB61772  17.254   2.449  20.840 -0.0995 -0.1605  0.1323
 1637PEP     CB61773  17.252   2.563  21.313  0.2968 -0.0245  0.0386
 1637PEP     CB61774  16.947   2.774  21.619  0.1048  0.2169 -0.0880
 1637PEP     CB61775  16.615   3.084  21.627 -0.0865  0.1023  0.4125
 1637PEP     CB61776  16.199   3.326  21.578  0.0620  0.0013 -0.1479
 1637PEP     CB61777  16.033   3.688  21.330 -0.2125  0.2635 -0.4129
 1637PEP     CB61778  16.227   4.112  21.287  0.3393 -0.3710  0.3854
 1637PEP     CB61779  16.477   4.303  21.497  0.0580 -0.0562  0.0024
 1637PEP     CB61780  16.504   4.552  21.846  0.2162  0.1053 -0.0971
 1637PEP     CB61781  16.701   4.872  22.081  0.1413  0.1371 -0.0856
 1637PEP     CB61782  16.726   5.320  22.077 -0.1854 -0.0927  0.1864
 1637PEP     CB61783  16.794   5.712  21.977  0.1739 -0.4661  0.0232
 1637PEP     CB61784  17.167   6.017  22.120  0.0120 -0.2219 -0.1161
 1637PEP     CB61785  17.353   6.210  22.403  0.1020  0.1910 -0.0163
 1637PEP     CB61786  17.218   6.293  22.867 -0.0866 -0.1286  0.1183
 1637PEP     CB61787  16.938   6.465  23.123  0.0028 -0.0385  0.0226
 1637PEP     CB61788  16.719   6.670  23.509 -0.0418  0.3590 -0.2631
 1637PEP     CB61789  17.044   6.852  23.860  0.3735  0.3889  0.0075
 1637PEP     CB61790  17.401   6.647  24.025  0.0522 -0.0079  0.2414
 1637PEP     CB61791  17.404   6.217  24.256 -0.1110  0.2169  0.1778
 1637PEP     CB61792  17.647   5.840  24.291  0.0422 -0.0819 -0.2209
 1637PEP     CB61793  17.761   5.428  24.491 -0.3549  0.0988  0.2371
 1637PEP     CB61794  17.496   5.110  24.635 -0.1902  0.0836 -0.2521
 1637PEP     CB61795  17.223   5.122  24.496  0.2037  0.0818 -0.2909
 1637PEP     CB61796  17.257   5.321  24.099 -0.3954  0.3140 -0.0402
 1637PEP     CB61797  17.599   5.262  23.775 -0.4267  0.3036 -0.3554
 1637PEP     CB61798  18.036   5.176  23.729 -0.0987 -0.3618  0.0020
 1637PEP     CB61799  18.523   5.198  23.802  0.1011  0.3864 -0.1081
 1637PEP     CB61800  18.879   5.529  23.935  0.1036  0.1007  0.0957
 1638PEP     CB61801   3.607  19.540   0.595 -0.0132 -0.0174 -0.1806
 1638PEP     CB61802   3.943  19.611   0.356  0.4913 -0.3410  0.2819
 1638PEP     CB61803   4.111  19.866   0.030  0.2684 -0.1600 -0.0453
 1638PEP     CB61804   3.931  20.138  -0.327 -0.4955  0.0100 -0.0590
 1638PEP     CB61805   3.553  20.118  -0.547  0.3796 -0.4449  0.0518
 1638PEP     CB61806   3.135  20.013  -0.352  0.0017 -0.1716 -0.2581
 1638PEP     CB61807   3.115  19.657  -0.039  0.2458  0.0303 -0.2510
 1638PEP     CB61808   3.243  19.240  -0.192  0.1751  0.1039 -0.0370
 1638PEP     CB61809   3.529  19.111  -0.539  0.3561 -0.0475  0.0605
 1638PEP     CB61810   3.773  19.008  -0.870 -0.3702  0.4244 -0.0431
 1638PEP     CB61811   4.045  18.844  -1.258 -0.2840  0.2579  0.0848
 1638PEP     CB61812   4.076  18.572  -1.634 -0.0215  0.0714  0.2865
 1638PEP     CB61813   4.131  18.230  -1.891  0.2264  0.1631 -0.0167
 1638PEP     CB61814   3.870  17.912  -1.942 -0.1025 -0.1262  0.0538
 1638PEP     CB61815   3.459  17.750  -2.083  0.0479 -0.0219 -0.3698
 1638PEP     CB61816   3.208  17.443  -2.282  0.1366 -0.3722 -0.1064
 1638PEP     CB61817   3.036  17.240  -2.588  0.2090 -0.0036 -0.4728
 1638PEP     CB61818   3.190  16.858  -2.958 -0.0055  0.1704  0.0995
 1638PEP     CB61819   3.075  16.497  -2.917  0.2230 -0.0772  0.0694
 1638PEP     CB61820   3.087  16.112  -3.028 -0.3496  0.3503  0.0068
 1638PEP     CB61821   3.238  15.642  -3.147  0.1460  0.4797 -0.4265
 1638PEP     CB61822   3.622  15.429  -3.096 -0.2490 -0.4535  0.1669
 1638PEP     CB61823   3.968  15.443  -2.732  0.1786 -0.1695  0.1412
 1638PEP     CB61824   4.306  15.423  -2.680  0.3776 -0.1576 -0.0575
 1638PEP     CB61825   4.663  15.288  -2.907  0.3703  0.0361 -0.1174
 1638PEP     CB61826   4.983  15.575  -3.061  0.1907  0.2268  0.2058
 1638PEP     CB61827   4.899  16.081  -3.189  0.1126  0.2118 -0.0364
 1638PEP     CB61828   4.663  16.503  -3.242 -0.1920 -0.0552 -0.0212
 1638PEP     CB61829   4.414  16.827  -3.493 -0.1270  0.0122 -0.1209
 1638PEP     CB61830   4.294  17.037  -3.906 -0.3321  0.2691  0.1008
 1638PEP     CB61831   3.914  16.935  -4.118 -0.1800 -0.0014 -0.2472
 1638PEP     CB61832   3.545  16.773  -3.991 -0.3517 -0.3075  0.5119
 1638PEP     CB61833   3.338  16.882  -3.599 -0.3446  0.2699 -0.3389
 1638PEP     CB61834   3.265  17.266  -3.370 -0.0027 -0.0894 -0.1175
 1638PEP     CB61835   3.394  17.670  -3.219  0.0761  0.0977  0.2123
 1638PEP     CB61836   3.370  18.110  -3.027  0.0843 -0.1979  0.1629
 1638PEP     CB61837   3.510  18.291  -2.605 -0.2065  0.0692  0.1589
 1638PEP     CB61838   3.757  18.140  -2.372  0.0249 -0.0049 -0.1006
 1638PEP     CB61839   4.127  17.865  -2.337 -0.0770  0.0949  0.3164
 1638PEP     CB61840   4.319  17.638  -2.049 -0.1546  0.0489  0.0875
 1639PEP     CB61841  11.669   6.547   6.055  0.1675 -0.4867  0.1660
 1639PEP     CB61842  11.371   6.238   6.279  0.2401 -0.0876 -0.1716
 1639PEP     CB61843  10.916   5.966   6.215 -0.1368 -0.1196  0.1569
 1639PEP     CB61844  10.706   5.615   6.313  0.1487 -0.1483  0.2045
 1639PEP     CB61845  10.738   5.311   6.011 -0.0982 -0.0569 -0.1449
 1639PEP     CB61846  11.066   5.067   5.918  0.0297 -0.0221 -0.0313
 1639PEP     CB61847  11.440   5.174   6.074  0.2051 -0.1887 -0.2297
 1639PEP     CB61848  11.513   5.526   6.392 -0.0004  0.0539  0.0554
 1639PEP     CB61849  11.251   5.783   6.586 -0.0942 -0.2942 -0.1848
 1639PEP     CB61850  10.843   5.968   6.704  0.2254 -0.3763 -0.2675
 1639PEP     CB61851  10.419   5.963   6.603  0.1219  0.1514  0.2406
 1639PEP     CB61852   9.964   6.010   6.490 -0.2675  0.2286  0.3454
 1639PEP     CB61853   9.623   6.144   6.324  0.3108  0.2080 -0.1898
 1639PEP     CB61854   9.288   6.125   6.094 -0.0320 -0.3582 -0.2187
 1639PEP     CB61855   8.983   5.767   6.005 -0.0536 -0.0576 -0.0569
 1639PEP     CB61856   8.587   5.561   5.832 -0.3886 -0.4738  0.2695
 1639PEP     CB61857   8.321   5.215   5.802 -0.2668 -0.0434 -0.0353
 1639PEP     CB61858   8.062   4.822   5.839  0.1057 -0.1595 -0.3731
 1639PEP     CB61859   7.951   4.356   5.909 -0.2403  0.1794  0.6623
 1639PEP     CB61860   7.706   3.960   5.842 -0.1106  0.1298 -0.0719
 1639PEP     CB61861   7.356   3.852   6.172  0.0374 -0.2754 -0.1137
 1639PEP     CB61862   7.207   4.117   6.531 -0.2984  0.3831  0.0810
 1639PEP     CB61863   7.410   4.159   6.891 -0.1148  0.0075  0.1948
 1639PEP     CB61864   7.757   3.984   7.246  0.3287 -0.1015 -0.4223
 1639PEP     CB61865   7.989   4.150   7.597  0.1026  0.0816 -0.0968
 1639PEP     CB61866   7.888   4.428   7.849  0.1091 -0.0988  0.0414
 1639PEP     CB61867   7.481   4.521   8.002  0.4504  0.1021  0.0288
 1639PEP     CB61868   7.091   4.242   7.954  0.2665 -0.2498  0.0024
 1639PEP     CB61869   6.895   4.072   7.702  0.1846 -0.2091 -0.1100
 1639PEP     CB61870   6.765   3.890   7.268  0.1182  0.2714  0.0139
 1639PEP     CB61871   6.772   4.057   6.882 -0.0431  0.0193  0.2384
 1639PEP     CB61872   6.741   4.466   6.628  0.2187  0.1686 -0.1996
 1639PEP     CB61873   6.871   4.649   6.260  0.0858 -0.0652  0.0764
 1639PEP     CB61874   6.976   5.044   6.088  0.1774 -0.0109  0.4179
 1639PEP     CB61875   6.993   5.537   5.973 -0.2010  0.2223 -0.1225
 1639PEP     CB61876   6.957   5.964   5.980  0.0601  0.2694  0.0786
 1639PEP     CB61877   6.739   6.273   6.102  0.4696  0.3313 -0.3784
 1639PEP     CB61878   6.318   6.462   6.206  0.2783 -0.0714  0.0559
 1639PEP     CB61879   5.919   6.370   6.381 -0.1046  0.1573  0.2194
 1639PEP     CB61880   5.488   6.428   6.412  0.2949 -0.4442  0.0869
 1640PEP     CB61881  19.619  20.244   4.695 -0.1859  0.0046 -0.0442
 1640PEP     CB61882  19.619  19.876   4.919 -0.0320 -0.1559  0.3143
 1640PEP     CB61883  19.557  19.540   5.251 -0.2264 -0.1820  0.1072
 1640PEP     CB61884  19.480  19.419   5.656 -0.0768  0.0698 -0.0436
 1640PEP     CB61885  19.762  19.227   6.041 -0.1692  0.1638  0.2030
 1640PEP     CB61886  19.797  19.217   6.514  0.3158 -0.2472 -0.5382
 1640PEP     CB61887  19.941  19.242   6.892  0.1842  0.0768 -0.0821
 1640PEP     CB61888  19.985  18.988   7.259 -0.1858  0.0030 -0.0473
 1640PEP     CB61889  20.218  18.944   7.642 -0.3701  0.0040  0.5021
 1640PEP     CB61890  20.322  18.565   7.926  0.1179  0.2167  0.1891
 1640PEP     CB61891  20.570  18.505   8.305  0.0867 -0.0896 -0.2778
 1640PEP     CB61892  20.830  18.360   8.589 -0.0300  0.0994 -0.1886
 1640PEP     CB61893  21.113  18.111   8.488  0.0078  0.1142 -0.1897
 1640PEP     CB61894  21.282  18.149   8.108  0.0380  0.2016 -0.1350
 1640PEP     CB61895  21.243  17.942   7.663 -0.1919 -0.1772 -0.1029
 1640PEP     CB61896  21.180  17.820   7.163  0.2068  0.0565  0.0444
 1640PEP     CB61897  21.063  17.401   6.911 -0.1236  0.3626 -0.1488
 1640PEP     CB61898  20.748  17.272   6.618  0.1398 -0.1502 -0.2009
 1640PEP     CB61899  20.365  17.246   6.646 -0.0991 -0.2597  0.4258
 1640PEP     CB61900  20.040  17.522   6.474  0.0788 -0.0278 -0.2002
 1640PEP     CB61901  19.849  17.909   6.512 -0.3549  0.0881 -0.0742
 1640PEP     CB61902  20.018  18.299   6.400 -0.0765 -0.4043  0.1374
 1640PEP     CB61903  20.234  18.379   6.069 -0.0760  0.0121  0.1510
 1640PEP     CB61904  20.092  18.341   5.609  0.0460  0.3950 -0.3275
 1640PEP     CB61905  19.879  17.952   5.472  0.2621  0.2069  0.2092
 1640PEP     CB61906  19.566  17.781   5.688  0.1212  0.3964 -0.0120
 1640PEP     CB61907  19.456  17.758   6.138  0.2499 -0.1789 -0.0508
 1640PEP     CB61908  19.362  18.016   6.503 -0.0077  0.1689  0.3357
 1640PEP     CB61909  19.474  18.352   6.836  0.3052  0.1340  0.2862
 1640PEP     CB61910  19.375  18.777   7.046 -0.4790  0.3047 -0.0737
 1640PEP     CB61911  19.522  19.210   7.291 -0.4790  0.1418  0.0481
 1640PEP     CB61912  19.809  19.359   7.590  0.0803 -0.1983  0.1946
 1640PEP     CB61913  19.878  19.377   7.931  0.5059  0.0662  0.1973
 1640PEP     CB61914  19.909  19.586   8.271 -0.1732 -0.0403 -0.0638
 1640PEP     CB61915  19.955  19.884   8.628 -0.3535  0.1751 -0.1526
 1640PEP     CB61916  20.339  20.089   8.783 -0.0002 -0.1289  0.1822
 1640PEP     CB61917  20.746  19.968   8.809  0.1580 -0.0367 -0.6475
 1640PEP     CB61918  21.209  19.909   8.723 -0.1961 -0.2487  0.3130
 1640PEP     CB61919  21.451  19.738   8.356  0.0460  0.1927  0.3513
 1640PEP     CB61920  21.509  19.888   7.930  0.0731  0.1309  0.0286
 1641PEP     CB61921   1.815   6.301  18.398  0.0411 -0.4018  0.0193
 1641PEP     CB61922   1.703   5.853  18.442  0.2543  0.4519 -0.1919
 1641PEP     CB61923   1.742   5.570  18.845  0.3600  0.3336  0.2385
 1641PEP     CB61924   1.586   5.291  18.981  0.2487  0.1277  0.3516
 1641PEP     CB61925   1.486   4.884  19.080  0.0843  0.0909 -0.1606
 1641PEP     CB61926   1.389   4.527  19.038  0.2725 -0.2905 -0.2400
 1641PEP     CB61927   1.144   4.119  18.908 -0.0665 -0.0385 -0.3230
 1641PEP     CB61928   0.777   4.124  18.602  0.3418  0.0771  0.2697
 1641PEP     CB61929   0.311   4.220  18.660 -0.1018 -0.1304 -0.0175
 1641PEP     CB61930   0.009   4.637  18.851  0.1620 -0.1029 -0.2177
 1641PEP     CB61931  -0.140   5.103  18.880 -0.4108 -0.2208 -0.0426
 1641PEP     CB61932  -0.286   5.498  18.764  0.3097 -0.0317  0.1686
 1641PEP     CB61933  -0.505   5.894  18.973 -0.1022  0.1470 -0.1473
 1641PEP     CB61934  -0.605   6.387  18.978  0.0700  0.0269 -0.0305
 1641PEP     CB61935  -0.570   6.867  18.729  0.4511 -0.2665 -0.2035
 1641PEP     CB61936  -0.214   7.025  18.607 -0.0974  0.2286  0.3693
 1641PEP     CB61937   0.142   6.878  18.817 -0.1021  0.2491  0.1080
 1641PEP     CB61938   0.045   6.605  19.111 -0.2592 -0.0185  0.1245
 1641PEP     CB61939  -0.061   6.175  19.031  0.3633  0.1090  0.1442
 1641PEP     CB61940  -0.063   5.932  18.588  0.0740 -0.1545  0.0119
 1641PEP     CB61941   0.221   5.739  18.286  0.0149 -0.0593 -0.0337
 1641PEP     CB61942   0.555   5.470  18.116  0.0160  0.1390 -0.1268
 1641PEP     CB61943   0.840   5.331  17.865  0.0022  0.1280 -0.2408
 1641PEP     CB61944   1.313   5.253  17.816  0.0593  0.0872 -0.0958
 1641PEP     CB61945   1.624   5.109  18.119 -0.0639 -0.1611  0.4872
 1641PEP     CB61946   1.870   5.247  18.447  0.0081 -0.1666 -0.1799
 1641PEP     CB61947   2.203   5.461  18.508 -0.4026 -0.0740 -0.2078
 1641PEP     CB61948   2.639   5.490  18.530  0.0550 -0.0427  0.3464
 1641PEP     CB61949   2.928   5.206  18.394 -0.0461 -0.4076  0.5174
 1641PEP     CB61950   3.361   5.125  18.591 -0.4421 -0.1424 -0.1398
 1641PEP     CB61951   3.613   4.718  18.662 -0.3798  0.1666  0.1696
 1641PEP     CB61952   3.798   4.441  18.445  0.2559  0.0552 -0.0903
 1641PEP     CB61953   4.298   4.193  18.295 -0.0097 -0.0566 -0.3467
 1641PEP     CB61954   4.508   3.872  18.313  0.1968 -0.2189 -0.1580
 1641PEP     CB61955   4.984   3.877  18.234 -0.0959 -0.6268 -0.0989
 1641PEP     CB61956   5.316   4.222  18.108 -0.1467  0.1107 -0.3803
 1641PEP     CB61957   5.154   4.576  17.822  0.0239 -0.1002 -0.1401
 1641PEP     CB61958   4.715   4.775  17.895 -0.0882  0.2995  0.0772
 1641PEP     CB61959   4.404   5.198  18.036 -0.0825  0.0281  0.0157
 1641PEP     CB61960   4.580   5.559  18.222 -0.1229  0.0426  0.0953
 1642PEP     CB61961   2.482   8.922   6.846  0.5267 -0.1537  0.1814
 1642PEP     CB61962   2.790   8.791   6.763  0.1290  0.2065 -0.1488
 1642PEP     CB61963   3.020   8.751   6.487  0.0181 -0.2109 -0.0313
 1642PEP     CB61964   3.147   8.565   6.037  0.2131 -0.0570 -0.0856
 1642PEP     CB61965   3.076   8.503   5.565 -0.1011 -0.3293 -0.0038
 1642PEP     CB61966   2.967   8.327   5.229  0.1487 -0.0630 -0.2787
 1642PEP     CB61967   2.828   8.344   4.819 -0.2321  0.5900  0.2400
 1642PEP     CB61968   2.739   8.165   4.430 -0.3179  0.2577  0.0380
 1642PEP     CB61969   2.689   7.852   4.093 -0.0811  0.0871 -0.0769
 1642PEP     CB61970   2.587   7.698   3.632  0.0753 -0.3017 -0.0379
 1642PEP     CB61971   2.390   7.647   3.242  0.1637  0.5196  0.1605
 1642PEP     CB61972   2.493   7.379   2.888 -0.0337  0.5647  0.1072
 1642PEP     CB61973   2.666   7.417   2.476  0.2525  0.0668  0.1596
 1642PEP     CB61974   2.742   7.444   1.997  0.0364  0.1209 -0.0920
 1642PEP     CB61975   2.776   7.639   1.506  0.1171  0.3719  0.1430
 1642PEP     CB61976   2.660   7.785   1.214 -0.2189 -0.0442  0.0578
 1642PEP     CB61977   2.421   7.909   0.923 -0.1997  0.2123  0.2078
 1642PEP     CB61978   2.028   7.937   0.661  0.0607 -0.1309 -0.0825
 1642PEP     CB61979   1.742   7.980   0.369  0.2317 -0.2170 -0.3153
 1642PEP     CB61980   1.327   8.045   0.328  0.2092  0.1712 -0.2730
 1642PEP     CB61981   0.929   7.945   0.475  0.0600  0.4132 -0.0315
 1642PEP     CB61982   0.706   7.672   0.789  0.1037 -0.2817  0.1432
 1642PEP     CB61983   0.714   7.281   1.016  0.0404  0.1436  0.2506
 1642PEP     CB61984   0.372   7.019   1.179  0.1837 -0.1529 -0.0379
 1642PEP     CB61985  -0.051   6.759   1.165  0.3809 -0.1982  0.1235
 1642PEP     CB61986  -0.475   6.854   1.271 -0.3339  0.0614  0.3729
 1642PEP     CB61987  -0.749   7.171   1.479 -0.0239  0.1820  0.1960
 1642PEP     CB61988  -0.648   7.492   1.861  0.0430  0.1021 -0.0837
 1642PEP     CB61989  -0.249   7.740   2.025  0.1534  0.2059  0.1645
 1642PEP     CB61990   0.004   7.935   1.706 -0.0188 -0.0124  0.3565
 1642PEP     CB61991  -0.204   8.059   1.253 -0.3775 -0.0548 -0.1589
 1642PEP     CB61992  -0.612   8.126   1.155  0.0261  0.4250  0.2494
 1642PEP     CB61993  -0.891   8.193   0.826 -0.0207  0.0081 -0.0075
 1642PEP     CB61994  -1.057   8.551   0.585  0.0104  0.0267 -0.1496
 1642PEP     CB61995  -1.182   8.728   0.174  0.2242 -0.0167 -0.3221
 1642PEP     CB61996  -1.390   9.027  -0.083  0.0137  0.0166  0.1663
 1642PEP     CB61997  -1.525   9.066  -0.513 -0.1365 -0.1718  0.3745
 1642PEP     CB61998  -1.554   9.041  -0.949 -0.1019  0.0718  0.2292
 1642PEP     CB61999  -1.566   9.302  -1.215  0.1093 -0.2215  0.0916
 1642PEP     CB62000  -1.507   9.729  -1.291 -0.6632  0.3191  0.2365
 1643PEP     CB62001  11.444  12.418   1.874 -0.4636  0.1315  0.2116
 1643PEP     CB62002  11.201  12.544   1.597 -0.1109  0.5116 -0.0707
 1643PEP     CB62003  10.924  12.809   1.349 -0.2997  0.0304  0.0084
 1643PEP     CB62004  10.850  13.211   1.274  0.0646 -0.4222  0.0030
 1643PEP     CB62005  10.966  13.572   1.096 -0.0619 -0.0930 -0.1619
 1643PEP     CB62006  10.843  13.988   0.881 -0.2337 -0.0013 -0.3185
 1643PEP     CB62007  10.460  14.137   0.784  0.0520  0.0114 -0.2911
 1643PEP     CB62008  10.127  14.117   0.514  0.3002 -0.0329 -0.3546
 1643PEP     CB62009   9.883  13.997   0.117  0.3071 -0.1994 -0.2420
 1643PEP     CB62010   9.508  13.851  -0.109  0.2332  0.1369 -0.0424
 1643PEP     CB62011   9.061  13.787   0.007  0.0695  0.2148  0.0163
 1643PEP     CB62012   8.953  14.144   0.292 -0.1349  0.4886 -0.1426
 1643PEP     CB62013   8.801  14.502   0.511 -0.0274 -0.0871  0.0020
 1643PEP     CB62014   8.886  14.686   0.906  0.0238 -0.3245 -0.0163
 1643PEP     CB62015   8.986  14.709   1.419  0.0118 -0.3864 -0.0712
 1643PEP     CB62016   8.885  14.576   1.832  0.2147  0.2046 -0.2016
 1643PEP     CB62017   8.752  14.218   2.095  0.2546 -0.5396  0.3005
 1643PEP     CB62018   8.567  13.986   2.389  0.3341 -0.1530  0.2404
 1643PEP     CB62019   8.371  13.926   2.876 -0.2544 -0.0163 -0.0302
 1643PEP     CB62020   8.512  14.183   3.253  0.0466  0.3150  0.1228
 1643PEP     CB62021   8.582  14.482   3.661  0.2758  0.1815 -0.3686
 1643PEP     CB62022   8.654  14.451   4.170 -0.3152  0.0716  0.2588
 1643PEP     CB62023   8.884  14.533   4.544 -0.1166  0.1152  0.0455
 1643PEP     CB62024   8.805  14.382   4.962  0.2340  0.2915  0.1329
 1643PEP     CB62025   8.851  14.313   5.398  0.0815 -0.4632  0.1989
 1643PEP     CB62026   9.191  14.553   5.732  0.2574  0.1943 -0.3497
 1643PEP     CB62027   9.327  14.924   5.766 -0.1978 -0.1823  0.3406
 1643PEP     CB62028   9.400  15.312   5.926  0.1070  0.4444 -0.1414
 1643PEP     CB62029   9.669  15.673   6.004  0.0637 -0.0733 -0.1149
 1643PEP     CB62030   9.942  15.916   5.848 -0.5522  0.0745  0.0543
 1643PEP     CB62031   9.823  16.366   5.635  0.0308  0.0699 -0.0390
 1643PEP     CB62032  10.023  16.625   5.390 -0.0171 -0.1781 -0.1739
 1643PEP     CB62033  10.422  16.865   5.309  0.0441 -0.0603 -0.1317
 1643PEP     CB62034  10.736  17.108   5.483 -0.1247  0.1417 -0.4066
 1643PEP     CB62035  10.915  17.546   5.594 -0.1969  0.1858 -0.3127
 1643PEP     CB62036  11.200  17.857   5.732  0.2079  0.0630 -0.4165
 1643PEP     CB62037  11.359  18.287   5.650 -0.2091 -0.3118  0.4967
 1643PEP     CB62038  11.434  18.722   5.602  0.1980 -0.0528  0.3459
 1643PEP     CB62039  11.526  19.086   5.795  0.0590 -0.1978  0.2722
 1643PEP     CB62040  11.849  19.129   6.181 -0.0438 -0.2428 -0.0308
 1644PEP     CB62041  19.596  19.433  18.482 -0.4086  0.0276  0.0756
 1644PEP     CB62042  19.616  19.651  18.775 -0.1262  0.0759  0.3980
 1644PEP     CB62043  19.840  19.877  19.018  0.0193 -0.0257 -0.1172
 1644PEP     CB62044  20.184  19.966  19.261 -0.1488 -0.0013  0.1542
 1644PEP     CB62045  20.532  19.654  19.344  0.4124  0.4634 -0.2290
 1644PEP     CB62046  20.645  19.287  19.098  0.2973  0.1213  0.0081
 1644PEP     CB62047  20.858  18.869  19.072  0.2351  0.0832  0.4477
 1644PEP     CB62048  21.269  18.720  19.156 -0.2147  0.2245 -0.3086
 1644PEP     CB62049  21.635  18.921  19.419 -0.1716  0.4358 -0.1713
 1644PEP     CB62050  21.706  19.236  19.696 -0.0862  0.1271 -0.0353
 1644PEP     CB62051  21.555  19.573  19.745  0.1499  0.1911 -0.0558
 1644PEP     CB62052  21.163  19.868  19.481  0.3222  0.3070  0.0947
 1644PEP     CB62053  20.883  19.701  19.022  0.2230  0.0524 -0.4699
 1644PEP     CB62054  21.022  19.371  18.868  0.0322  0.3652 -0.0586
 1644PEP     CB62055  21.398  19.117  18.894  0.3356  0.2027 -0.0114
 1644PEP     CB62056  21.739  18.788  18.928  0.1907 -0.0872 -0.0630
 1644PEP     CB62057  22.019  18.480  19.108  0.2018  0.3614 -0.0129
 1644PEP     CB62058  22.452  18.513  18.893  0.2397 -0.1085 -0.2424
 1644PEP     CB62059  22.673  18.870  18.610 -0.0338  0.1060  0.2349
 1644PEP     CB62060  22.462  19.067  18.219  0.0329  0.1491  0.1241
 1644PEP     CB62061  22.163  19.050  17.955 -0.1442 -0.0961 -0.0566
 1644PEP     CB62062  21.931  18.754  17.687 -0.3632  0.4878 -0.2180
 1644PEP     CB62063  21.729  18.393  17.476  0.3042  0.1143 -0.4384
 1644PEP     CB62064  21.705  18.163  17.119 -0.0029  0.0718  0.3336
 1644PEP     CB62065  21.985  18.007  16.756 -0.1403 -0.0351  0.3134
 1644PEP     CB62066  22.469  17.986  16.760 -0.0328 -0.4359  0.1081
 1644PEP     CB62067  22.677  17.710  17.061 -0.2100  0.0425 -0.3705
 1644PEP     CB62068  22.593  17.655  17.488  0.1413  0.2494  0.2947
 1644PEP     CB62069  22.160  17.768  17.728 -0.2767  0.1073  0.2500
 1644PEP     CB62070  21.780  18.018  17.794  0.4838  0.4289  0.1455
 1644PEP     CB62071  21.619  18.307  17.973  0.3577 -0.4150 -0.2279
 1644PEP     CB62072  21.773  18.637  18.184 -0.1760 -0.3406 -0.3681
 1644PEP     CB62073  21.769  18.993  18.324  0.0666 -0.0080 -0.1155
 1644PEP     CB62074  21.906  19.406  18.185  0.0491  0.3444  0.0628
 1644PEP     CB62075  22.240  19.553  18.075  0.0957 -0.1277  0.0989
 1644PEP     CB62076  22.585  19.476  18.013 -0.1708  0.2480 -0.0575
 1644PEP     CB62077  22.687  19.266  17.635 -0.5849 -0.2937  0.0128
 1644PEP     CB62078  22.494  19.353  17.200  0.0690  0.1405  0.0059
 1644PEP     CB62079  22.078  19.388  17.060 -0.1020 -0.1390 -0.0446
 1644PEP     CB62080  21.682  19.284  16.826  0.3618  0.1389 -0.0317
 1645PEP     CB62081   6.754  10.665  20.468 -0.0198 -0.3196 -0.1372
 1645PEP     CB62082   6.792  10.876  20.923 -0.0310  0.1210 -0.2100
 1645PEP     CB62083   6.426  10.823  21.275 -0.0325  0.3822 -0.3898
 1645PEP     CB62084   6.016  10.699  21.336 -0.1665 -0.0174  0.5179
 1645PEP     CB62085   5.644  10.452  21.387  0.3283 -0.1040  0.2164
 1645PEP     CB62086   5.244  10.433  21.661  0.0628 -0.3518  0.0268
 1645PEP     CB62087   4.885  10.298  21.757 -0.0201  0.1137  0.1201
 1645PEP     CB62088   4.332  10.230  21.873 -0.0190  0.1208 -0.1482
 1645PEP     CB62089   4.151   9.796  22.079 -0.2335 -0.2933  0.1976
 1645PEP     CB62090   3.953   9.334  22.175 -0.3114 -0.2625 -0.3563
 1645PEP     CB62091   3.737   8.965  22.114  0.1700 -0.5205  0.0297
 1645PEP     CB62092   3.455   8.671  22.099 -0.2996  0.0342  0.0415
 1645PEP     CB62093   3.123   8.693  21.840 -0.1430  0.2756  0.2630
 1645PEP     CB62094   2.906   8.631  21.452 -0.0932 -0.2404  0.0141
 1645PEP     CB62095   2.763   8.393  21.066  0.0961  0.1719 -0.2425
 1645PEP     CB62096   2.439   8.333  20.689 -0.0567  0.0080  0.1602
 1645PEP     CB62097   2.176   7.948  20.501  0.1477  0.3988  0.2634
 1645PEP     CB62098   2.342   7.553  20.555  0.1345 -0.0847 -0.1765
 1645PEP     CB62099   2.598   7.289  20.845  0.1540 -0.1494  0.3218
 1645PEP     CB62100   2.715   7.382  21.170 -0.2327 -0.1392 -0.0103
 1645PEP     CB62101   3.090   7.384  21.433  0.1742 -0.2860 -0.2220
 1645PEP     CB62102   3.397   7.123  21.435  0.3309 -0.0453 -0.0683
 1645PEP     CB62103   3.523   6.645  21.492 -0.0057 -0.2632  0.2977
 1645PEP     CB62104   3.507   6.221  21.338  0.2121  0.0126  0.1043
 1645PEP     CB62105   3.766   5.908  21.187  0.3763  0.0233  0.1284
 1645PEP     CB62106   4.152   5.790  21.215 -0.1934  0.4274  0.2558
 1645PEP     CB62107   4.488   5.661  21.396 -0.1686 -0.4603  0.1083
 1645PEP     CB62108   4.855   5.539  21.584  0.1997  0.1903 -0.1803
 1645PEP     CB62109   5.238   5.338  21.472  0.0724  0.2630  0.1013
 1645PEP     CB62110   5.358   4.887  21.158 -0.1618  0.1464  0.2969
 1645PEP     CB62111   5.081   4.710  20.888  0.1130  0.3247  0.0696
 1645PEP     CB62112   4.793   4.950  20.746  0.2447  0.1034  0.0391
 1645PEP     CB62113   4.740   5.275  20.480  0.3278  0.1977  0.0846
 1645PEP     CB62114   4.850   5.464  20.112  0.0170 -0.2520 -0.0314
 1645PEP     CB62115   5.081   5.515  19.740 -0.2026  0.3164  0.0828
 1645PEP     CB62116   5.394   5.460  19.416  0.0652 -0.0890  0.0097
 1645PEP     CB62117   5.316   5.307  19.086  0.5224  0.0795  0.1723
 1645PEP     CB62118   5.263   5.065  18.780  0.2840  0.0276  0.1216
 1645PEP     CB62119   5.407   4.684  18.457  0.1854 -0.1627  0.1976
 1645PEP     CB62120   5.712   4.356  18.467 -0.0601 -0.1563  0.1883
 1646PEP     CB62121  10.053  16.999  21.320  0.0166  0.1114 -0.3637
 1646PEP     CB62122  10.202  16.876  20.943 -0.1335 -0.1708  0.3734
 1646PEP     CB62123  10.414  16.915  20.518 -0.0754 -0.1783  0.0756
 1646PEP     CB62124  10.350  16.950  20.060  0.2362 -0.2966 -0.1614
 1646PEP     CB62125  10.536  17.176  19.652  0.0323 -0.0879  0.4819
 1646PEP     CB62126  10.510  17.258  19.219  0.1722  0.1631 -0.3574
 1646PEP     CB62127  10.523  17.498  18.818  0.0765 -0.0007 -0.1868
 1646PEP     CB62128  10.393  17.906  18.628 -0.1649  0.0169  0.1151
 1646PEP     CB62129  10.461  18.347  18.370  0.0980 -0.2915 -0.0756
 1646PEP     CB62130  10.476  18.407  17.982  0.2541  0.0812  0.0296
 1646PEP     CB62131  10.672  18.458  17.566  0.0329  0.1661 -0.0876
 1646PEP     CB62132  10.733  18.647  17.166 -0.1355 -0.1558 -0.2687
 1646PEP     CB62133  10.566  18.800  16.864  0.0704  0.3747  0.1998
 1646PEP     CB62134  10.364  18.976  16.521 -0.1283  0.2076  0.1168
 1646PEP     CB62135  10.024  19.020  16.162  0.0032  0.0485 -0.0969
 1646PEP     CB62136   9.912  18.937  15.837  0.2106  0.1260 -0.0802
 1646PEP     CB62137  10.074  18.678  15.507  0.3682  0.2447 -0.0275
 1646PEP     CB62138  10.454  18.604  15.415 -0.4012  0.0333 -0.1862
 1646PEP     CB62139  10.922  18.712  15.552 -0.3254 -0.0008  0.1423
 1646PEP     CB62140  11.273  18.500  15.403 -0.1189  0.0358 -0.5295
 1646PEP     CB62141  11.295  18.133  15.179 -0.1756  0.2128 -0.1316
 1646PEP     CB62142  11.452  17.705  15.068  0.0878  0.1894 -0.0894
 1646PEP     CB62143  11.826  17.501  14.955  0.1085 -0.0123 -0.2356
 1646PEP     CB62144  12.138  17.421  14.654  0.1089  0.4947  0.1930
 1646PEP     CB62145  12.540  17.432  14.572 -0.1845 -0.0084  0.0482
 1646PEP     CB62146  12.856  17.753  14.845  0.0387 -0.4210 -0.2316
 1646PEP     CB62147  13.226  17.720  15.085  0.1851  0.3862  0.2567
 1646PEP     CB62148  13.434  17.708  15.607  0.4939  0.2512  0.0832
 1646PEP     CB62149  13.794  17.705  15.737 -0.0681 -0.4020  0.2694
 1646PEP     CB62150  14.164  17.998  15.782 -0.0488  0.0636  0.2717
 1646PEP     CB62151  14.425  18.267  15.617 -0.2634  0.1960  0.0351
 1646PEP     CB62152  14.709  18.484  15.364  0.0426  0.1753  0.0806
 1646PEP     CB62153  15.141  18.711  15.271  0.2977 -0.3148  0.0210
 1646PEP     CB62154  15.352  18.861  14.934  0.2810  0.1388  0.4287
 1646PEP     CB62155  15.512  18.715  14.547  0.0496  0.2622 -0.1389
 1646PEP     CB62156  15.580  18.522  14.179 -0.1715  0.3411 -0.1159
 1646PEP     CB62157  15.657  18.567  13.671 -0.0613 -0.4807  0.2417
 1646PEP     CB62158  15.929  18.737  13.491  0.4441  0.0430 -0.0318
 1646PEP     CB62159  15.952  19.118  13.313 -0.0860  0.4026  0.0719
 1646PEP     CB62160  15.703  19.423  13.019  0.1047 -0.0809 -0.0248
 1647PEP     CB62161  16.808   6.895  20.135 -0.0400 -0.0291  0.1211
 1647PEP     CB62162  16.967   6.961  19.683  0.0134  0.0205 -0.2554
 1647PEP     CB62163  17.304   7.086  19.357 -0.5289  0.0403 -0.1595
 1647PEP     CB62164  17.444   7.397  19.087  0.0798 -0.2461 -0.1573
 1647PEP     CB62165  17.242   7.736  18.836  0.2735  0.0072  0.0141
 1647PEP     CB62166  17.087   8.127  18.917 -0.3995  0.1500  0.4279
 1647PEP     CB62167  17.035   8.264  19.291 -0.1142 -0.1119 -0.0923
 1647PEP     CB62168  17.160   8.549  19.589 -0.3392 -0.0037  0.0136
 1647PEP     CB62169  17.026   8.885  19.970  0.2647 -0.1664  0.5031
 1647PEP     CB62170  16.782   9.304  19.986 -0.0055 -0.1347  0.2468
 1647PEP     CB62171  16.554   9.654  19.862  0.0444  0.2624  0.2589
 1647PEP     CB62172  16.510   9.890  19.562  0.0052  0.0508 -0.2542
 1647PEP     CB62173  16.632  10.291  19.273  0.1795 -0.1733 -0.0577
 1647PEP     CB62174  16.936  10.695  19.270 -0.1074  0.0593  0.0342
 1647PEP     CB62175  17.375  10.780  19.085 -0.4010 -0.0251  0.2096
 1647PEP     CB62176  17.790  10.542  19.122 -0.2680 -0.1616 -0.2418
 1647PEP     CB62177  18.023  10.345  18.791  0.0863  0.2132 -0.3069
 1647PEP     CB62178  18.320  10.114  18.327 -0.2552 -0.1889 -0.3286
 1647PEP     CB62179  18.396  10.145  17.862  0.0520  0.3410  0.0693
 1647PEP     CB62180  18.569  10.256  17.507 -0.2141 -0.2103  0.1200
 1647PEP     CB62181  18.820  10.707  17.503 -0.2484  0.2086  0.0948
 1647PEP     CB62182  18.938  11.029  17.231  0.1743 -0.3935 -0.0197
 1647PEP     CB62183  19.131  11.223  16.877  0.1629 -0.0873 -0.1208
 1647PEP     CB62184  19.007  11.361  16.508  0.0856 -0.1480 -0.0674
 1647PEP     CB62185  18.965  11.793  16.259  0.1743  0.1845  0.0737
 1647PEP     CB62186  18.957  12.137  16.154 -0.0299 -0.3190  0.0221
 1647PEP     CB62187  19.271  12.368  16.035  0.2486  0.6958  0.2313
 1647PEP     CB62188  19.730  12.265  16.090 -0.0850  0.3978  0.0568
 1647PEP     CB62189  19.903  11.988  16.377 -0.0821 -0.0615  0.0649
 1647PEP     CB62190  19.766  11.703  16.624 -0.0570  0.0416 -0.2135
 1647PEP     CB62191  19.430  11.539  16.743 -0.2604 -0.1223  0.2758
 1647PEP     CB62192  19.068  11.796  16.710 -0.1961 -0.1999  0.1956
 1647PEP     CB62193  19.000  12.196  16.929 -0.0139  0.0312 -0.1986
 1647PEP     CB62194  19.181  12.330  17.300 -0.2130 -0.3085 -0.3049
 1647PEP     CB62195  19.042  12.296  17.774 -0.0591 -0.5002 -0.0455
 1647PEP     CB62196  18.835  12.482  18.118  0.0467 -0.0734  0.0300
 1647PEP     CB62197  18.450  12.380  18.448 -0.2484  0.1312 -0.0046
 1647PEP     CB62198  18.084  12.129  18.424 -0.0843 -0.1627  0.1755
 1647PEP     CB62199  18.010  11.835  18.104  0.0074 -0.0923 -0.3580
 1647PEP     CB62200  18.036  11.759  17.666  0.2239  0.3133  0.3817
 1648PEP     CB62201   7.017  17.161  16.391 -0.0931  0.4194 -0.2441
 1648PEP     CB62202   6.897  17.446  16.656  0.1060 -0.0649 -0.0035
 1648PEP     CB62203   6.723  17.547  17.064  0.4847  0.2750  0.0980
 1648PEP     CB62204   6.468  17.588  17.404 -0.3137 -0.0531 -0.3109
 1648PEP     CB62205   6.323  17.606  17.895  0.1886 -0.2135  0.2386
 1648PEP     CB62206   6.181  17.618  18.333  0.2282  0.1720  0.4936
 1648PEP     CB62207   6.054  17.436  18.816  0.0057  0.0577 -0.1239
 1648PEP     CB62208   6.169  17.256  19.203  0.4026 -0.0701 -0.0452
 1648PEP     CB62209   6.383  16.962  19.352 -0.0237 -0.1881 -0.4512
 1648PEP     CB62210   6.486  16.487  19.177  0.1751  0.2904 -0.3319
 1648PEP     CB62211   6.315  16.046  19.128 -0.1015 -0.0957  0.1811
 1648PEP     CB62212   6.046  15.680  19.319  0.3611 -0.1379  0.1188
 1648PEP     CB62213   6.019  15.246  19.631 -0.1393 -0.0178 -0.0317
 1648PEP     CB62214   5.987  15.065  20.087 -0.0375  0.1447 -0.2919
 1648PEP     CB62215   5.920  15.005  20.504 -0.0343 -0.3232  0.0935
 1648PEP     CB62216   5.889  15.114  20.849  0.0893 -0.3836  0.0208
 1648PEP     CB62217   5.674  15.357  21.148  0.1659  0.2491 -0.0522
 1648PEP     CB62218   5.200  15.225  21.173 -0.0275 -0.1078 -0.2840
 1648PEP     CB62219   4.983  15.001  20.777  0.4332  0.2048 -0.2749
 1648PEP     CB62220   4.973  14.581  20.562 -0.1491 -0.0724  0.2700
 1648PEP     CB62221   5.339  14.393  20.407 -0.2353 -0.1096 -0.3586
 1648PEP     CB62222   5.751  14.538  20.251  0.0462 -0.3039 -0.0993
 1648PEP     CB62223   6.169  14.547  20.412 -0.0469 -0.1430  0.3168
 1648PEP     CB62224   6.262  14.614  20.839 -0.0862 -0.2479 -0.0482
 1648PEP     CB62225   6.018  14.697  21.142 -0.0717  0.2275 -0.1909
 1648PEP     CB62226   5.510  14.809  21.136  0.0406  0.3153  0.0111
 1648PEP     CB62227   5.117  14.704  21.198 -0.1444  0.5061 -0.1293
 1648PEP     CB62228   4.674  14.646  21.201  0.4299  0.0609  0.1420
 1648PEP     CB62229   4.317  14.734  21.564  0.1135 -0.0793 -0.3332
 1648PEP     CB62230   4.198  15.064  21.821 -0.1970 -0.0562 -0.1557
 1648PEP     CB62231   3.803  15.382  21.979  0.2774 -0.0450 -0.0954
 1648PEP     CB62232   3.279  15.248  22.005 -0.0007  0.0878  0.1644
 1648PEP     CB62233   3.143  14.925  22.159  0.1262  0.0337 -0.4434
 1648PEP     CB62234   2.931  14.594  22.323 -0.0546  0.0426  0.1742
 1648PEP     CB62235   3.029  14.179  22.521  0.3002  0.0624 -0.1334
 1648PEP     CB62236   3.302  13.881  22.317 -0.0560  0.2767  0.1526
 1648PEP     CB62237   3.331  13.808  21.905 -0.2569  0.0191 -0.1381
 1648PEP     CB62238   3.091  13.800  21.489  0.0482  0.1145 -0.0969
 1648PEP     CB62239   2.942  13.671  21.104 -0.2171 -0.0907 -0.2962
 1648PEP     CB62240   2.866  13.768  20.743 -0.1206 -0.2485 -0.3036
 1649PEP     CB62241   3.913  16.094  10.716 -0.0433  0.1919  0.6338
 1649PEP     CB62242   3.577  16.079  10.394 -0.2387 -0.3478  0.2921
 1649PEP     CB62243   3.500  16.146   9.943  0.1251 -0.2124  0.0978
 1649PEP     CB62244   3.419  16.323   9.574  0.0977  0.1129  0.0843
 1649PEP     CB62245   3.271  16.550   9.149  0.0593 -0.1486 -0.1683
 1649PEP     CB62246   3.377  16.703   8.794  0.2351 -0.1419 -0.2624
 1649PEP     CB62247   3.453  16.765   8.284 -0.1869  0.0934 -0.1726
 1649PEP     CB62248   3.444  16.932   7.839 -0.2523 -0.2705  0.3165
 1649PEP     CB62249   3.231  16.997   7.390  0.0771  0.1112  0.0836
 1649PEP     CB62250   2.988  17.141   7.082  0.1360 -0.3732  0.3314
 1649PEP     CB62251   2.748  16.890   6.654 -0.2607 -0.1530 -0.1195
 1649PEP     CB62252   2.302  16.744   6.439  0.0658 -0.1186  0.0491
 1649PEP     CB62253   1.972  16.435   6.391  0.3998  0.0351  0.1561
 1649PEP     CB62254   1.822  16.020   6.642 -0.1134  0.2561 -0.2779
 1649PEP     CB62255   1.954  15.870   7.080  0.1232 -0.0227 -0.2632
 1649PEP     CB62256   1.980  15.501   7.394 -0.2859  0.2116  0.0855
 1649PEP     CB62257   1.891  15.021   7.531 -0.1736 -0.0423 -0.0556
 1649PEP     CB62258   1.790  14.592   7.461  0.0667 -0.0308 -0.0278
 1649PEP     CB62259   1.765  14.170   7.248 -0.0993 -0.2395  0.0082
 1649PEP     CB62260   1.471  14.043   6.896  0.1343 -0.1918  0.0765
 1649PEP     CB62261   1.183  13.710   6.862  0.0263  0.5548  0.2558
 1649PEP     CB62262   0.869  13.328   6.882 -0.0717  0.2422 -0.0862
 1649PEP     CB62263   0.497  13.157   6.936  0.1796 -0.2009 -0.5002
 1649PEP     CB62264   0.213  12.845   6.784  0.4258  0.1043 -0.0115
 1649PEP     CB62265   0.224  12.520   6.527  0.6847 -0.2857 -0.1198
 1649PEP     CB62266   0.059  12.127   6.447 -0.2011  0.0708  0.2093
 1649PEP     CB62267  -0.341  12.056   6.188 -0.0895 -0.5394 -0.0732
 1649PEP     CB62268  -0.334  12.078   5.730  0.0851  0.2259 -0.1934
 1649PEP     CB62269  -0.076  12.412   5.546 -0.0701 -0.3468  0.0445
 1649PEP     CB62270  -0.057  12.828   5.757 -0.0272  0.0705  0.2459
 1649PEP     CB62271  -0.371  13.015   5.993  0.0802  0.2301  0.1326
 1649PEP     CB62272  -0.776  13.232   5.884 -0.0576 -0.1091  0.2036
 1649PEP     CB62273  -0.950  13.412   5.608  0.4663  0.0606  0.4340
 1649PEP     CB62274  -1.305  13.366   5.461  0.1020  0.2273  0.4040
 1649PEP     CB62275  -1.424  13.052   5.166 -0.1938 -0.4318  0.0341
 1649PEP     CB62276  -1.402  13.052   4.668 -0.2925  0.0918 -0.1058
 1649PEP     CB62277  -1.009  13.163   4.418  0.4091  0.0112  0.2406
 1649PEP     CB62278  -0.580  13.049   4.348  0.1583  0.0701 -0.0998
 1649PEP     CB62279  -0.244  12.871   4.534  0.0870  0.1588  0.1675
 1649PEP     CB62280  -0.045  12.552   4.757  0.0922 -0.1342 -0.1311
 1650PEP     CB62281   6.538   1.469   3.828 -0.1105  0.1196 -0.0770
 1650PEP     CB62282   6.598   1.135   4.138 -0.0048  0.2143 -0.1835
 1650PEP     CB62283   6.598   0.963   4.515  0.3291  0.0203  0.3550
 1650PEP     CB62284   6.769   0.772   4.869 -0.2809 -0.6165 -0.0796
 1650PEP     CB62285   7.044   0.662   5.128  0.1413  0.0021  0.1592
 1650PEP     CB62286   6.960   0.355   5.479  0.2002 -0.3439 -0.0071
 1650PEP     CB62287   6.508   0.061   5.542 -0.0431  0.1157 -0.1179
 1650PEP     CB62288   6.108  -0.054   5.376  0.3409 -0.4060 -0.3415
 1650PEP     CB62289   5.732  -0.239   5.332 -0.2910 -0.0146 -0.3392
 1650PEP     CB62290   5.301  -0.245   5.428  0.3747  0.2509  0.2816
 1650PEP     CB62291   5.103   0.039   5.712  0.1612  0.2888 -0.2795
 1650PEP     CB62292   5.150   0.314   6.007 -0.0283  0.0628 -0.3529
 1650PEP     CB62293   5.202   0.669   6.222  0.0743 -0.0244  0.3748
 1650PEP     CB62294   5.265   1.129   6.217 -0.1034  0.3813 -0.1460
 1650PEP     CB62295   5.643   1.445   6.465  0.1673 -0.1595 -0.1780
 1650PEP     CB62296   5.993   1.308   6.712  0.2370 -0.2521  0.3494
 1650PEP     CB62297   6.323   1.297   7.003 -0.1717 -0.0109  0.1907
 1650PEP     CB62298   6.592   1.186   7.265 -0.0809 -0.1071  0.0526
 1650PEP     CB62299   6.652   0.788   7.519 -0.1866  0.1322  0.0335
 1650PEP     CB62300   6.809   0.437   7.748 -0.1904  0.3726  0.4085
 1650PEP     CB62301   6.871  -0.051   7.726  0.1460  0.1657  0.5455
 1650PEP     CB62302   6.755  -0.379   7.493  0.1528  0.2395 -0.1921
 1650PEP     CB62303   7.073  -0.665   7.246 -0.0792 -0.1017 -0.0724
 1650PEP     CB62304   7.280  -1.035   7.040  0.1535 -0.0289  0.1589
 1650PEP     CB62305   7.413  -1.274   6.738 -0.0767 -0.1856  0.3312
 1650PEP     CB62306   7.387  -1.751   6.599  0.2369 -0.0384 -0.1166
 1650PEP     CB62307   7.497  -2.121   6.780 -0.0545  0.0175  0.0601
 1650PEP     CB62308   7.540  -2.193   7.176  0.1636  0.1681  0.2315
 1650PEP     CB62309   7.621  -2.083   7.589  0.3091  0.0381  0.2863
 1650PEP     CB62310   7.993  -1.893   7.810  0.1610  0.1092  0.1828
 1650PEP     CB62311   8.293  -1.587   7.746 -0.3345  0.0372 -0.1509
 1650PEP     CB62312   8.679  -1.523   7.536 -0.2790 -0.1027 -0.0885
 1650PEP     CB62313   9.132  -1.917   7.527  0.0615  0.0946 -0.1166
 1650PEP     CB62314   9.086  -2.314   7.708  0.0110  0.1954  0.0458
 1650PEP     CB62315   9.358  -2.594   7.866 -0.0052  0.0854  0.1151
 1650PEP     CB62316   9.501  -2.613   8.274 -0.2435 -0.2518  0.1034
 1650PEP     CB62317   9.402  -2.932   8.534 -0.1337 -0.1640  0.3313
 1650PEP     CB62318   9.100  -3.168   8.509 -0.3931  0.2192 -0.2167
 1650PEP     CB62319   8.709  -3.399   8.435  0.1412 -0.4970  0.1107
 1650PEP     CB62320   8.450  -3.611   8.798 -0.3257 -0.2996  0.0566
 1651PEP     CB62321  20.082  18.184  18.252  0.9241  0.0537 -0.0202
 1651PEP     CB62322  19.798  18.566  18.338  0.0769 -0.2913  0.2405
 1651PEP     CB62323  19.851  18.980  18.448  0.2370  0.1082  0.2838
 1651PEP     CB62324  19.943  19.372  18.124 -0.1073 -0.2532 -0.0071
 1651PEP     CB62325  19.810  19.473  17.710  0.1492 -0.0106  0.5714
 1651PEP     CB62326  19.480  19.668  17.492  0.1996 -0.2927 -0.0372
 1651PEP     CB62327  19.097  19.606  17.176  0.1367  0.0504 -0.0400
 1651PEP     CB62328  18.779  19.385  17.291 -0.0616 -0.2586  0.0550
 1651PEP     CB62329  18.693  19.292  17.711 -0.2743  0.0036  0.1709
 1651PEP     CB62330  18.715  19.430  18.184  0.0638  0.0891  0.3739
 1651PEP     CB62331  18.578  19.644  18.572 -0.4713  0.3790  0.0340
 1651PEP     CB62332  18.265  19.748  18.946 -0.2415 -0.1155 -0.2912
 1651PEP     CB62333  18.172  19.838  19.342  0.0641 -0.4483  0.1910
 1651PEP     CB62334  17.877  19.947  19.557 -0.1828  0.1416 -0.0760
 1651PEP     CB62335  17.417  19.822  19.477  0.2149 -0.2440  0.0096
 1651PEP     CB62336  17.388  19.425  19.122  0.2572  0.0322  0.0460
 1651PEP     CB62337  17.815  19.288  18.883 -0.0844 -0.3131  0.1923
 1651PEP     CB62338  18.193  19.244  18.703  0.3958  0.0670 -0.1894
 1651PEP     CB62339  18.534  19.034  18.498 -0.0267 -0.0745 -0.0122
 1651PEP     CB62340  18.626  18.633  18.490  0.2319 -0.1613  0.2016
 1651PEP     CB62341  18.568  18.212  18.243 -0.0196  0.3514  0.1231
 1651PEP     CB62342  18.300  17.924  18.361 -0.0792  0.4417  0.3738
 1651PEP     CB62343  18.130  17.594  18.642  0.0185 -0.0342 -0.3196
 1651PEP     CB62344  17.764  17.439  18.976 -0.4466 -0.1034 -0.1295
 1651PEP     CB62345  17.813  17.401  19.349  0.2083  0.1943 -0.3318
 1651PEP     CB62346  18.225  17.613  19.521  0.0166 -0.0724  0.0594
 1651PEP     CB62347  18.627  17.905  19.569  0.1328  0.0002  0.0758
 1651PEP     CB62348  18.811  18.250  19.283 -0.1088 -0.1104 -0.6921
 1651PEP     CB62349  19.094  18.533  19.200  0.4264 -0.1871 -0.1920
 1651PEP     CB62350  19.117  18.747  18.794 -0.2409 -0.1452 -0.0752
 1651PEP     CB62351  19.226  18.673  18.343 -0.0483 -0.1088  0.0588
 1651PEP     CB62352  19.383  18.399  17.905 -0.2857 -0.1145 -0.1021
 1651PEP     CB62353  19.346  18.031  17.741 -0.0071 -0.1068 -0.0817
 1651PEP     CB62354  19.145  17.910  17.383  0.1377  0.0464 -0.1286
 1651PEP     CB62355  19.055  18.118  16.926 -0.3557  0.2498 -0.1883
 1651PEP     CB62356  19.009  18.437  16.615 -0.5754  0.0891 -0.0675
 1651PEP     CB62357  19.021  18.838  16.776  0.1287  0.0835 -0.0847
 1651PEP     CB62358  19.261  19.191  16.916  0.5180  0.2522 -0.0839
 1651PEP     CB62359  19.665  19.311  16.950 -0.1586 -0.3561 -0.2140
 1651PEP     CB62360  20.020  19.190  16.901  0.3710 -0.2541 -0.1439
 1652PEP     CB62361   8.949   1.435  13.082  0.0376 -0.0977 -0.2206
 1652PEP     CB62362   9.204   1.387  12.679 -0.1256 -0.0112  0.0527
 1652PEP     CB62363   9.695   1.503  12.691 -0.0582  0.2190 -0.3100
 1652PEP     CB62364  10.097   1.420  12.719  0.0521 -0.3599  0.0485
 1652PEP     CB62365  10.414   1.615  12.370 -0.3147 -0.2080 -0.3012
 1652PEP     CB62366  10.420   1.598  11.871  0.0304 -0.4052  0.1377
 1652PEP     CB62367  10.634   1.466  11.571 -0.2477 -0.1711  0.1760
 1652PEP     CB62368  10.850   1.419  11.174 -0.1381 -0.0903  0.0326
 1652PEP     CB62369  10.782   1.311  10.725 -0.0301 -0.2038  0.1625
 1652PEP     CB62370  10.496   1.505  10.453  0.1652 -0.1763 -0.4968
 1652PEP     CB62371  10.456   1.626   9.977  0.2083  0.3029 -0.1049
 1652PEP     CB62372  10.317   1.942   9.751 -0.2220  0.1608  0.0431
 1652PEP     CB62373  10.334   2.399   9.970  0.0256 -0.4814  0.1719
 1652PEP     CB62374  10.547   2.430  10.315 -0.1405  0.0967 -0.0618
 1652PEP     CB62375  10.950   2.318  10.450  0.1143 -0.1113 -0.0911
 1652PEP     CB62376  11.324   2.511  10.437  0.0703  0.1172 -0.2726
 1652PEP     CB62377  11.438   2.612  10.820  0.2773 -0.0565  0.0702
 1652PEP     CB62378  11.356   2.398  11.185 -0.2015 -0.6602  0.0411
 1652PEP     CB62379  11.201   2.011  11.287 -0.0421 -0.0217 -0.3153
 1652PEP     CB62380  11.300   1.548  11.454  0.1781  0.2175  0.1788
 1652PEP     CB62381  11.128   1.223  11.777 -0.2225 -0.3769 -0.0197
 1652PEP     CB62382  11.233   1.037  12.160 -0.0795  0.3402  0.1313
 1652PEP     CB62383  11.288   0.839  12.487 -0.0948 -0.3007 -0.0697
 1652PEP     CB62384  11.177   0.501  12.762  0.4895 -0.0908  0.0959
 1652PEP     CB62385  11.030   0.036  12.843 -0.4816  0.3343  0.0468
 1652PEP     CB62386  10.804  -0.151  12.513 -0.3641 -0.0560 -0.3148
 1652PEP     CB62387  10.405  -0.009  12.247  0.1047 -0.2030  0.6808
 1652PEP     CB62388  10.090   0.195  12.447  0.1877 -0.2303  0.1156
 1652PEP     CB62389   9.977   0.436  12.827 -0.3631  0.1093  0.1714
 1652PEP     CB62390  10.081   0.817  13.133 -0.2001 -0.2167  0.3610
 1652PEP     CB62391  10.342   1.193  13.149 -0.3668  0.2110  0.3168
 1652PEP     CB62392  10.488   1.636  13.236  0.4124 -0.1033 -0.1795
 1652PEP     CB62393  10.441   1.940  13.444  0.2873 -0.1924 -0.0683
 1652PEP     CB62394  10.616   2.177  13.694 -0.1968 -0.0999 -0.3832
 1652PEP     CB62395  10.579   2.513  13.985  0.0064 -0.3954 -0.1160
 1652PEP     CB62396  10.541   2.726  14.327  0.1448 -0.1766  0.2329
 1652PEP     CB62397  10.628   3.036  14.651 -0.0618  0.0125  0.2196
 1652PEP     CB62398  10.637   3.438  14.863  0.1499  0.0717  0.0310
 1652PEP     CB62399  10.479   3.801  15.076 -0.3506  0.0506  0.0333
 1652PEP     CB62400  10.260   4.266  15.259  0.0069  0.1738  0.0228
 1653PEP     CB62401  11.048  20.349   5.539  0.1372 -0.0028 -0.1317
 1653PEP     CB62402  11.247  20.361   5.959  0.0036 -0.1363 -0.0114
 1653PEP     CB62403  11.532  20.237   6.365  0.0067  0.2458  0.5109
 1653PEP     CB62404  11.999  20.224   6.327  0.0838  0.0811 -0.1574
 1653PEP     CB62405  12.100  20.039   5.968  0.0034  0.0612 -0.3084
 1653PEP     CB62406  12.117  20.053   5.518  0.0022  0.1690  0.2031
 1653PEP     CB62407  11.875  19.865   5.177 -0.0599 -0.0902  0.0131
 1653PEP     CB62408  11.822  19.464   4.910  0.3058  0.3232  0.1970
 1653PEP     CB62409  12.122  19.089   4.793 -0.2218 -0.4787 -0.2976
 1653PEP     CB62410  12.595  18.925   4.617  0.1820  0.3307  0.0276
 1653PEP     CB62411  12.994  18.903   4.418  0.3743  0.2992 -0.1004
 1653PEP     CB62412  13.313  19.229   4.150  0.0136  0.2651 -0.0935
 1653PEP     CB62413  13.272  19.583   3.830  0.0262 -0.1549  0.0285
 1653PEP     CB62414  12.892  19.789   3.719  0.0908 -0.1233 -0.2810
 1653PEP     CB62415  12.461  19.728   3.946  0.1357 -0.1081  0.1356
 1653PEP     CB62416  12.392  19.531   4.421  0.1103  0.1394  0.2882
 1653PEP     CB62417  12.792  19.507   4.714 -0.3898 -0.0149 -0.0330
 1653PEP     CB62418  13.243  19.356   4.613 -0.2640  0.0080 -0.2228
 1653PEP     CB62419  13.588  19.258   4.600  0.5595 -0.3341  0.2400
 1653PEP     CB62420  14.002  19.093   4.565  0.0056  0.0566 -0.2634
 1653PEP     CB62421  14.031  18.722   4.773 -0.1618 -0.3904  0.2740
 1653PEP     CB62422  13.690  18.648   4.966  0.2357 -0.5190 -0.2513
 1653PEP     CB62423  13.289  18.833   4.876  0.0504  0.1848  0.1609
 1653PEP     CB62424  13.020  19.229   5.028  0.0294  0.0241 -0.3517
 1653PEP     CB62425  13.176  19.592   5.236  0.2840  0.3079 -0.4429
 1653PEP     CB62426  13.516  19.636   5.537  0.1061  0.2357 -0.1941
 1653PEP     CB62427  13.615  19.747   5.941  0.1916 -0.0390  0.0842
 1653PEP     CB62428  13.275  19.832   6.291  0.2393 -0.0139  0.2146
 1653PEP     CB62429  12.912  19.860   6.321  0.3291 -0.3344  0.1202
 1653PEP     CB62430  12.749  20.007   6.728  0.2058  0.2778 -0.0095
 1653PEP     CB62431  13.042  20.327   6.946 -0.1842 -0.0923  0.2579
 1653PEP     CB62432  13.504  20.318   6.938 -0.2126  0.1853 -0.1037
 1653PEP     CB62433  13.991  20.257   6.793 -0.0179  0.2582  0.1237
 1653PEP     CB62434  14.318  19.948   6.815 -0.4060  0.1636  0.3005
 1653PEP     CB62435  14.409  19.624   7.145  0.0588  0.1974 -0.0843
 1653PEP     CB62436  14.133  19.555   7.460  0.4159  0.2084  0.0429
 1653PEP     CB62437  13.737  19.423   7.274 -0.0283  0.2175 -0.2675
 1653PEP     CB62438  13.622  19.336   6.801 -0.0110 -0.1997  0.0313
 1653PEP     CB62439  13.717  19.232   6.456  0.0609  0.2201 -0.0040
 1653PEP     CB62440  13.841  19.062   6.033 -0.1464 -0.2885  0.0421
 1654PEP     CB62441   1.591   9.033  10.686  0.1602 -0.3207 -0.3419
 1654PEP     CB62442   1.892   8.968  10.960  0.3652 -0.2311 -0.2878
 1654PEP     CB62443   2.201   8.836  11.182 -0.2442 -0.0629 -0.0049
 1654PEP     CB62444   2.611   8.737  11.348 -0.1610 -0.2997 -0.1566
 1654PEP     CB62445   2.969   8.430  11.123 -0.2391 -0.3370  0.2173
 1654PEP     CB62446   2.791   7.968  11.023  0.0139 -0.1401 -0.0653
 1654PEP     CB62447   2.365   7.923  10.858  0.0728 -0.0373  0.1389
 1654PEP     CB62448   2.012   7.833  10.703 -0.4495 -0.1005  0.2079
 1654PEP     CB62449   1.724   7.826  10.385 -0.0135 -0.3115 -0.2843
 1654PEP     CB62450   1.372   7.737  10.124  0.0617  0.2970 -0.3224
 1654PEP     CB62451   1.295   7.475   9.807  0.2212  0.1723  0.1990
 1654PEP     CB62452   1.341   7.058   9.878  0.0464 -0.0958  0.2366
 1654PEP     CB62453   1.036   6.783   9.962  0.2481  0.0285 -0.0348
 1654PEP     CB62454   0.577   6.654   9.977  0.1350  0.0514 -0.0660
 1654PEP     CB62455   0.266   7.014  10.219  0.0760 -0.1675  0.2244
 1654PEP     CB62456   0.049   7.485  10.509 -0.2292  0.2538 -0.2667
 1654PEP     CB62457  -0.378   7.694  10.725  0.0305  0.0249  0.0200
 1654PEP     CB62458  -0.819   7.652  10.737 -0.1496  0.1119  0.2782
 1654PEP     CB62459  -1.267   7.464  10.993 -0.0484  0.3147  0.0892
 1654PEP     CB62460  -1.480   7.227  11.215  0.0360  0.1645 -0.1942
 1654PEP     CB62461  -1.608   6.807  11.222  0.3962 -0.3651  0.0923
 1654PEP     CB62462  -1.906   6.477  11.053  0.1266 -0.1988  0.6072
 1654PEP     CB62463  -2.267   6.215  11.228  0.3865 -0.0521 -0.0758
 1654PEP     CB62464  -2.575   6.050  11.542 -0.0538 -0.1731 -0.3429
 1654PEP     CB62465  -2.895   6.055  11.929  0.0093 -0.2054 -0.1282
 1654PEP     CB62466  -3.341   5.996  11.913  0.0722 -0.2970 -0.4312
 1654PEP     CB62467  -3.569   5.774  11.543 -0.2119 -0.1144  0.1053
 1654PEP     CB62468  -3.450   5.780  11.089 -0.1000  0.1001 -0.3352
 1654PEP     CB62469  -3.214   6.141  10.921  0.2979 -0.0058  0.2656
 1654PEP     CB62470  -3.181   6.593  11.041 -0.0027  0.2998  0.1294
 1654PEP     CB62471  -2.938   6.888  11.245 -0.3573 -0.3274 -0.1952
 1654PEP     CB62472  -2.701   6.870  11.655  0.0595  0.3787  0.6138
 1654PEP     CB62473  -2.795   6.776  12.083  0.0987 -0.4728  0.0439
 1654PEP     CB62474  -2.759   6.704  12.605 -0.3102 -0.0026 -0.1153
 1654PEP     CB62475  -2.927   6.541  12.985 -0.2429  0.2559  0.1173
 1654PEP     CB62476  -3.059   6.512  13.388  0.2942 -0.0563  0.0153
 1654PEP     CB62477  -3.331   6.448  13.793 -0.1469  0.0350 -0.0043
 1654PEP     CB62478  -3.347   6.420  14.247 -0.3325  0.2817  0.1728
 1654PEP     CB62479  -3.381   6.288  14.681  0.0995  0.5365  0.3037
 1654PEP     CB62480  -3.316   5.988  15.121 -0.0727  0.0239 -0.0149
 1655PEP     CB62481  18.461   5.984   8.089  0.1936  0.1606  0.1108
 1655PEP     CB62482  18.397   6.298   8.350 -0.2249  0.0979  0.0070
 1655PEP     CB62483  18.164   6.522   8.688 -0.1745 -0.2737 -0.3476
 1655PEP     CB62484  17.887   6.705   8.954  0.2075 -0.4702 -0.1266
 1655PEP     CB62485  17.846   6.995   9.270  0.0133 -0.1597  0.0893
 1655PEP     CB62486  17.804   7.353   9.448  0.1341  0.0031  0.5919
 1655PEP     CB62487  17.613   7.717   9.517  0.2173  0.0013 -0.3684
 1655PEP     CB62488  17.642   8.039   9.752  0.2487  0.0096  0.4021
 1655PEP     CB62489  17.648   8.394   9.965  0.1761  0.4252  0.0349
 1655PEP     CB62490  17.734   8.845  10.091 -0.1109  0.0168  0.5501
 1655PEP     CB62491  17.790   9.129  10.429 -0.1196  0.2551 -0.1470
 1655PEP     CB62492  18.025   9.263  10.822  0.1781 -0.1456 -0.2149
 1655PEP     CB62493  18.296   9.539  10.771  0.1880 -0.1218  0.2787
 1655PEP     CB62494  18.322   9.642  10.352 -0.1598  0.1502 -0.2944
 1655PEP     CB62495  18.010   9.615  10.119  0.1439 -0.3443 -0.1503
 1655PEP     CB62496  17.660   9.386   9.984 -0.1185  0.2146  0.3298
 1655PEP     CB62497  17.279   9.639   9.891 -0.1869  0.1927  0.1830
 1655PEP     CB62498  17.178  10.110   9.937 -0.2640  0.0845 -0.1871
 1655PEP     CB62499  17.360  10.378   9.642  0.2936 -0.0576  0.2807
 1655PEP     CB62500  17.449  10.250   9.202  0.4056 -0.4302 -0.3748
 1655PEP     CB62501  17.374   9.844   8.939  0.3369 -0.2602 -0.0799
 1655PEP     CB62502  17.015   9.580   8.710  0.2899 -0.5094  0.1742
 1655PEP     CB62503  16.599   9.651   8.487  0.3237  0.2380 -0.2385
 1655PEP     CB62504  16.255   9.834   8.213  0.2948 -0.2345 -0.1485
 1655PEP     CB62505  16.036   9.977   7.831 -0.6399  0.1239  0.0130
 1655PEP     CB62506  15.794  10.257   7.544 -0.0964  0.2415  0.0638
 1655PEP     CB62507  15.534  10.526   7.273  0.2941  0.0257 -0.2021
 1655PEP     CB62508  15.688  10.682   6.937 -0.1018  0.1147  0.0010
 1655PEP     CB62509  16.003  10.919   6.650 -0.1169  0.0097  0.2683
 1655PEP     CB62510  16.017  11.341   6.396 -0.0044 -0.1698 -0.3489
 1655PEP     CB62511  15.793  11.809   6.436  0.0427  0.0261  0.1584
 1655PEP     CB62512  15.717  12.210   6.556 -0.1935 -0.4024  0.1753
 1655PEP     CB62513  15.817  12.588   6.807  0.2733  0.1864  0.2763
 1655PEP     CB62514  15.749  12.958   7.081 -0.0773 -0.0980 -0.3865
 1655PEP     CB62515  15.775  13.406   7.305  0.3558  0.3718  0.0368
 1655PEP     CB62516  16.136  13.637   7.458 -0.0047 -0.2363  0.2763
 1655PEP     CB62517  16.317  14.018   7.438  0.0545 -0.1370  0.0037
 1655PEP     CB62518  16.186  14.383   7.510 -0.2353 -0.3254 -0.5671
 1655PEP     CB62519  15.905  14.645   7.591 -0.0312 -0.0674  0.1197
 1655PEP     CB62520  15.718  15.029   7.449 -0.5125  0.1931  0.3014
 1656PEP     CB62521   5.313  13.770  15.846 -0.1096 -0.1602 -0.2621
 1656PEP     CB62522   5.142  14.065  15.589  0.4708 -0.1154 -0.1554
 1656PEP     CB62523   5.192  14.421  15.242 -0.0137 -0.0560  0.2105
 1656PEP     CB62524   5.380  14.554  14.865 -0.5350 -0.3194  0.1307
 1656PEP     CB62525   5.642  14.543  14.480 -0.2742 -0.4654  0.4497
 1656PEP     CB62526   5.847  14.808  14.261 -0.0458  0.2211  0.0826
 1656PEP     CB62527   6.229  15.004  14.405 -0.2232  0.1523  0.2143
 1656PEP     CB62528   6.268  15.306  14.656 -0.3940  0.4633 -0.0618
 1656PEP     CB62529   6.367  15.789  14.559  0.3907  0.2020 -0.0447
 1656PEP     CB62530   6.093  16.173  14.367 -0.0947  0.3891 -0.0894
 1656PEP     CB62531   5.704  16.351  14.129  0.3425 -0.2170  0.1222
 1656PEP     CB62532   5.539  16.685  13.845  0.0788 -0.4120  0.0014
 1656PEP     CB62533   5.415  16.922  13.486  0.1063  0.2572  0.0155
 1656PEP     CB62534   5.443  16.770  13.041 -0.3948  0.0712 -0.3718
 1656PEP     CB62535   5.627  16.453  12.917  0.2223 -0.0106  0.1006
 1656PEP     CB62536   5.542  15.948  13.144 -0.3307  0.0663  0.0149
 1656PEP     CB62537   5.159  15.848  13.393  0.1002  0.3478 -0.1074
 1656PEP     CB62538   4.818  16.094  13.344  0.3713 -0.3704  0.3307
 1656PEP     CB62539   4.959  16.569  13.131 -0.0887 -0.5005 -0.3409
 1656PEP     CB62540   4.909  16.908  12.971  0.0562  0.0556 -0.1521
 1656PEP     CB62541   4.475  17.132  12.811 -0.3960  0.1262  0.0081
 1656PEP     CB62542   4.096  17.088  13.109 -0.0754 -0.4308  0.2151
 1656PEP     CB62543   3.953  16.779  13.378 -0.2062 -0.0523 -0.1620
 1656PEP     CB62544   4.083  16.625  13.756  0.4886  0.3256  0.1795
 1656PEP     CB62545   4.250  16.549  14.245 -0.2194 -0.3666  0.3529
 1656PEP     CB62546   4.144  16.524  14.572  0.3435  0.0544  0.2096
 1656PEP     CB62547   3.906  16.693  14.958  0.1261  0.0672 -0.0421
 1656PEP     CB62548   3.649  17.071  15.112 -0.0772  0.0032  0.5193
 1656PEP     CB62549   3.447  17.387  15.394  0.1987 -0.1250  0.4780
 1656PEP     CB62550   3.274  17.748  15.433 -0.2026  0.1433  0.2525
 1656PEP     CB62551   2.929  17.744  15.586  0.1939  0.1017  0.3867
 1656PEP     CB62552   2.677  17.380  15.503  0.1128 -0.0401  0.3146
 1656PEP     CB62553   2.927  17.015  15.461 -0.4281 -0.0633 -0.4126
 1656PEP     CB62554   3.350  16.859  15.496 -0.0786 -0.2107 -0.1499
 1656PEP     CB62555   3.769  16.993  15.598  0.0531  0.0453 -0.0083
 1656PEP     CB62556   4.155  17.130  15.622  0.1792 -0.0491 -0.3000
 1656PEP     CB62557   4.610  17.188  15.860  0.1997 -0.3949 -0.0542
 1656PEP     CB62558   5.083  17.143  15.690 -0.3696  0.2357  0.2677
 1656PEP     CB62559   5.191  17.222  15.297  0.0501 -0.0225 -0.4170
 1656PEP     CB62560   4.926  17.112  14.933 -0.2321  0.2384 -0.5500
 1657PEP     CB62561   7.438   5.575  21.345 -0.0541 -0.1950  0.2061
 1657PEP     CB62562   7.287   5.791  21.023  0.1872  0.1795 -0.0146
 1657PEP     CB62563   7.084   6.174  21.114 -0.0637  0.2922  0.1553
 1657PEP     CB62564   7.132   6.615  21.111 -0.0592  0.0104 -0.0840
 1657PEP     CB62565   7.301   6.781  21.588 -0.1315  0.0395  0.3418
 1657PEP     CB62566   7.498   6.643  21.980  0.0569 -0.2814  0.0297
 1657PEP     CB62567   7.790   6.447  22.286 -0.1880 -0.0225 -0.2961
 1657PEP     CB62568   7.984   6.176  22.426  0.2152  0.0396  0.0942
 1657PEP     CB62569   7.940   5.795  22.341  0.0130  0.3518  0.1161
 1657PEP     CB62570   8.109   5.429  22.148 -0.2227  0.3540  0.1944
 1657PEP     CB62571   8.165   5.279  21.790 -0.0113  0.3642  0.2189
 1657PEP     CB62572   8.421   5.522  21.456  0.0075  0.0603  0.3668
 1657PEP     CB62573   8.759   5.757  21.508 -0.3127  0.0192  0.1427
 1657PEP     CB62574   9.091   5.772  21.826  0.4358 -0.1512  0.0598
 1657PEP     CB62575   9.206   5.652  22.167  0.2174 -0.3678 -0.1544
 1657PEP     CB62576   9.251   5.647  22.606  0.2100  0.0300 -0.2877
 1657PEP     CB62577   9.476   5.520  22.898  0.2680  0.1749 -0.0134
 1657PEP     CB62578   9.883   5.508  23.121  0.6578 -0.0059  0.0637
 1657PEP     CB62579  10.256   5.228  23.178  0.2997  0.0967 -0.1557
 1657PEP     CB62580  10.248   4.855  23.056  0.0140 -0.1047  0.2431
 1657PEP     CB62581  10.060   4.670  22.715 -0.0285  0.2480  0.0061
 1657PEP     CB62582   9.586   4.576  22.664 -0.0865 -0.3606  0.4315
 1657PEP     CB62583   9.260   4.556  22.446  0.1705  0.4932 -0.3890
 1657PEP     CB62584   8.862   4.563  22.471  0.0284  0.2305  0.1183
 1657PEP     CB62585   8.511   4.469  22.390 -0.2775  0.0022  0.0435
 1657PEP     CB62586   8.116   4.487  22.554 -0.1155 -0.2973  0.1221
 1657PEP     CB62587   7.781   4.715  22.400  0.1529 -0.3809  0.0715
 1657PEP     CB62588   7.347   4.788  22.191 -0.0805  0.3212  0.0737
 1657PEP     CB62589   6.940   4.584  22.038  0.2256 -0.3786 -0.0207
 1657PEP     CB62590   6.545   4.487  22.313  0.3241  0.1378  0.1017
 1657PEP     CB62591   6.557   4.424  22.798  0.1403  0.0194 -0.1722
 1657PEP     CB62592   6.958   4.463  23.092 -0.1002  0.3301  0.2050
 1657PEP     CB62593   7.488   4.474  23.015 -0.0902 -0.2056  0.2809
 1657PEP     CB62594   7.899   4.214  22.981 -0.1953  0.1124 -0.0932
 1657PEP     CB62595   8.309   3.978  23.048  0.4048  0.1677 -0.2821
 1657PEP     CB62596   8.767   4.106  23.164 -0.0410  0.0194  0.0699
 1657PEP     CB62597   9.189   3.987  23.254 -0.1483 -0.2361 -0.0904
 1657PEP     CB62598   9.520   4.115  23.449  0.0889 -0.1115 -0.1406
 1657PEP     CB62599   9.832   4.186  23.683 -0.0003 -0.0730 -0.2027
 1657PEP     CB62600  10.285   4.173  23.824 -0.1114 -0.0066  0.2158
 1658PEP     CB62601  21.738   8.507  19.778  0.0144 -0.3140 -0.1435
 1658PEP     CB62602  21.573   8.808  20.055  0.1781 -0.5592 -0.3563
 1658PEP     CB62603  21.339   8.976  20.311 -0.0285 -0.1913 -0.0045
 1658PEP     CB62604  21.192   9.123  20.690 -0.3131  0.2913 -0.2579
 1658PEP     CB62605  21.101   9.404  21.011 -0.2956  0.0535  0.0370
 1658PEP     CB62606  20.875   9.628  21.092 -0.0651 -0.0233 -0.3814
 1658PEP     CB62607  20.413   9.623  21.284  0.4217 -0.0053 -0.3271
 1658PEP     CB62608  20.319   9.602  21.724 -0.1347  0.0114  0.1225
 1658PEP     CB62609  20.670   9.552  21.971  0.3611 -0.1004 -0.1812
 1658PEP     CB62610  21.050   9.387  22.032  0.1850  0.0062  0.1958
 1658PEP     CB62611  21.492   9.659  22.060 -0.0239  0.0171 -0.0918
 1658PEP     CB62612  21.661   9.940  21.725 -0.0873 -0.0550 -0.0349
 1658PEP     CB62613  21.850   9.907  21.331  0.0482 -0.2198  0.0908
 1658PEP     CB62614  22.161  10.144  21.026  0.3341  0.0235 -0.0249
 1658PEP     CB62615  22.389  10.319  20.858  0.2921  0.0971 -0.0585
 1658PEP     CB62616  22.652  10.441  20.529  0.6209  0.1402 -0.2516
 1658PEP     CB62617  22.866  10.560  20.159 -0.2370 -0.4118 -0.0142
 1658PEP     CB62618  22.947  10.598  19.704  0.2387 -0.4340  0.0130
 1658PEP     CB62619  23.041  10.775  19.345  0.1826 -0.0129  0.0704
 1658PEP     CB62620  22.936  11.166  19.193 -0.1539 -0.2261  0.1391
 1658PEP     CB62621  22.559  11.447  19.285 -0.0146  0.0397  0.1155
 1658PEP     CB62622  22.122  11.730  19.248 -0.0692  0.0029  0.1918
 1658PEP     CB62623  21.758  11.922  19.247 -0.2686 -0.1908 -0.4734
 1658PEP     CB62624  21.465  12.253  19.223 -0.0469 -0.0802 -0.0229
 1658PEP     CB62625  21.180  12.538  19.237 -0.4658  0.3847 -0.2208
 1658PEP     CB62626  20.856  12.663  19.046  0.0072  0.2370  0.6807
 1658PEP     CB62627  20.465  12.709  19.025 -0.3533 -0.2182  0.2208
 1658PEP     CB62628  20.167  12.872  18.713  0.0994 -0.3125 -0.2368
 1658PEP     CB62629  20.072  12.755  18.348 -0.1179  0.2659  0.0079
 1658PEP     CB62630  19.992  12.500  17.947  0.0822  0.5052  0.0239
 1658PEP     CB62631  19.987  12.577  17.521  0.1716  0.1322  0.0462
 1658PEP     CB62632  20.226  12.704  17.178 -0.1023 -0.0526 -0.2077
 1658PEP     CB62633  20.548  12.399  17.061  0.2065 -0.0548  0.1035
 1658PEP     CB62634  20.385  12.025  17.099  0.1448  0.0598 -0.3379
 1658PEP     CB62635  20.218  11.747  17.375  0.0936  0.2623 -0.3261
 1658PEP     CB62636  19.982  11.516  17.690  0.0186  0.0802 -0.0102
 1658PEP     CB62637  19.557  11.295  17.830  0.3597 -0.0814 -0.1979
 1658PEP     CB62638  19.180  11.212  18.009  0.2492  0.2757  0.2195
 1658PEP     CB62639  18.903  11.173  18.309  0.3082 -0.1945 -0.1862
 1658PEP     CB62640  18.869  11.251  18.804 -0.3937  0.0277 -0.3269
 1659PEP     CB62641  13.252   2.885  14.877  0.1115 -0.1870 -0.2073
 1659PEP     CB62642  13.343   2.717  15.174 -0.3976 -0.2318  0.2705
 1659PEP     CB62643  13.499   2.552  15.581  0.1218  0.2787  0.0735
 1659PEP     CB62644  13.704   2.438  15.986  0.2192 -0.3703  0.4881
 1659PEP     CB62645  14.090   2.407  16.163  0.6044 -0.3094 -0.1807
 1659PEP     CB62646  14.430   2.691  16.356  0.0982  0.0605  0.3288
 1659PEP     CB62647  14.797   2.812  16.512  0.0889  0.0160 -0.0692
 1659PEP     CB62648  15.193   2.813  16.453  0.2579 -0.3561  0.1973
 1659PEP     CB62649  15.575   2.868  16.304  0.0301  0.2000 -0.0977
 1659PEP     CB62650  15.884   3.121  16.432  0.2178 -0.5302  0.1804
 1659PEP     CB62651  16.067   3.542  16.364 -0.1683  0.3023 -0.1935
 1659PEP     CB62652  15.953   3.948  16.242  0.6209 -0.1181 -0.1309
 1659PEP     CB62653  15.645   4.157  15.901 -0.4666  0.1219  0.0722
 1659PEP     CB62654  15.261   4.120  15.794 -0.4289 -0.0459  0.0618
 1659PEP     CB62655  14.844   4.025  15.639 -0.1051 -0.3288 -0.2393
 1659PEP     CB62656  14.500   3.925  15.383 -0.1058  0.4713  0.2902
 1659PEP     CB62657  14.344   3.619  15.076  0.3371 -0.2163 -0.0082
 1659PEP     CB62658  13.989   3.431  14.960  0.0736 -0.0887  0.1979
 1659PEP     CB62659  13.552   3.368  15.032 -0.0514 -0.0735 -0.1433
 1659PEP     CB62660  13.149   3.434  14.754  0.3279 -0.0586 -0.0298
 1659PEP     CB62661  13.001   3.039  14.463  0.4669 -0.1143  0.1156
 1659PEP     CB62662  13.270   2.761  14.315 -0.2173 -0.1086  0.0869
 1659PEP     CB62663  13.691   2.849  14.192  0.0084  0.0571 -0.2722
 1659PEP     CB62664  13.916   3.120  14.032 -0.0135  0.3286  0.0131
 1659PEP     CB62665  13.883   3.460  13.777  0.1322  0.0397 -0.2334
 1659PEP     CB62666  13.683   3.620  13.307 -0.1057 -0.1355 -0.0855
 1659PEP     CB62667  13.682   3.528  12.872  0.5854 -0.0179  0.0383
 1659PEP     CB62668  13.732   3.682  12.495  0.2335  0.0219 -0.1417
 1659PEP     CB62669  13.494   3.910  12.141 -0.1290 -0.2361  0.4192
 1659PEP     CB62670  13.131   3.995  11.794  0.3342  0.2823  0.2526
 1659PEP     CB62671  12.890   3.716  11.590 -0.2051 -0.1006  0.3940
 1659PEP     CB62672  13.007   3.364  11.372 -0.2828 -0.1092 -0.1919
 1659PEP     CB62673  13.066   3.065  11.002 -0.1479  0.4000 -0.3568
 1659PEP     CB62674  12.714   2.800  10.799  0.0346  0.1602 -0.1288
 1659PEP     CB62675  12.323   2.988  10.595 -0.0161  0.3815 -0.0471
 1659PEP     CB62676  12.336   3.282  10.249  0.2119 -0.0527  0.3990
 1659PEP     CB62677  12.618   3.120  10.031 -0.0257 -0.1298  0.3986
 1659PEP     CB62678  12.983   2.875  10.204 -0.1600 -0.1385  0.2007
 1659PEP     CB62679  12.997   2.456  10.416  0.0445  0.1267 -0.3105
 1659PEP     CB62680  12.909   2.041  10.524 -0.0888  0.0904  0.3701
 1660PEP     CB62681  13.037   6.065   3.376  0.1869 -0.0265 -0.0140
 1660PEP     CB62682  13.076   5.774   3.653 -0.5058 -0.1084 -0.0399
 1660PEP     CB62683  13.125   5.368   3.718 -0.1074  0.0400 -0.2247
 1660PEP     CB62684  12.939   5.011   3.554 -0.0635  0.2423  0.1966
 1660PEP     CB62685  12.715   4.961   3.227  0.4231  0.3133  0.0182
 1660PEP     CB62686  12.299   5.014   2.936 -0.0666  0.1066 -0.5562
 1660PEP     CB62687  12.154   5.345   2.710  0.3589 -0.0341 -0.0658
 1660PEP     CB62688  12.175   5.799   2.845 -0.2178  0.4688 -0.0503
 1660PEP     CB62689  11.995   6.113   3.140 -0.0563  0.2721  0.1050
 1660PEP     CB62690  11.828   6.185   3.541 -0.1560 -0.1417 -0.1461
 1660PEP     CB62691  11.526   6.211   3.843 -0.1442 -0.0226 -0.0458
 1660PEP     CB62692  11.152   6.088   3.879 -0.0722  0.4571 -0.0286
 1660PEP     CB62693  10.776   6.050   3.671  0.0546 -0.1495 -0.1814
 1660PEP     CB62694  10.697   5.793   3.294 -0.0586 -0.0720 -0.0794
 1660PEP     CB62695  10.838   5.866   2.939  0.4443 -0.3206 -0.2070
 1660PEP     CB62696  10.977   6.158   2.725 -0.1577  0.0848 -0.0706
 1660PEP     CB62697  11.192   6.241   2.309  0.2379 -0.0643  0.3414
 1660PEP     CB62698  11.192   6.146   1.862  0.0715 -0.0905  0.0642
 1660PEP     CB62699  11.302   5.857   1.484  0.4296  0.3976  0.1000
 1660PEP     CB62700  11.129   5.484   1.229 -0.0628 -0.3652  0.0147
 1660PEP     CB62701  10.761   5.447   1.166  0.3260 -0.5620 -0.2047
 1660PEP     CB62702  10.378   5.688   1.261  0.1022  0.2991 -0.2248
 1660PEP     CB62703   9.961   5.969   1.285  0.0594 -0.0634 -0.2614
 1660PEP     CB62704   9.745   6.330   1.119 -0.1867 -0.3790 -0.1251
 1660PEP     CB62705   9.636   6.513   0.683 -0.4800  0.0700 -0.1575
 1660PEP     CB62706   9.402   6.650   0.289 -0.0625  0.0131 -0.3291
 1660PEP     CB62707   9.167   6.983  -0.031  0.2862  0.3467  0.2590
 1660PEP     CB62708   9.303   7.260  -0.248  0.0197  0.0288 -0.1413
 1660PEP     CB62709   9.342   7.681  -0.373 -0.2185 -0.1433  0.6000
 1660PEP     CB62710   9.522   8.073  -0.190 -0.2497 -0.2351 -0.0785
 1660PEP     CB62711   9.689   8.138   0.290 -0.0077  0.0561  0.1463
 1660PEP     CB62712   9.834   7.728   0.568 -0.1349 -0.0453 -0.0291
 1660PEP     CB62713   9.999   7.292   0.444 -0.0886 -0.1372  0.3398
 1660PEP     CB62714   9.748   7.047   0.214  0.3560  0.1863  0.0639
 1660PEP     CB62715   9.635   6.922  -0.222 -0.0263 -0.2581  0.2571
 1660PEP     CB62716   9.741   6.517  -0.497 -0.2373 -0.1642 -0.2021
 1660PEP     CB62717  10.018   6.274  -0.375  0.0496 -0.1480 -0.0113
 1660PEP     CB62718  10.225   5.992  -0.121  0.0821 -0.0195  0.0013
 1660PEP     CB62719  10.196   5.689   0.142 -0.1393  0.1781  0.2407
 1660PEP     CB62720  10.027   5.305   0.157  0.6899  0.0192 -0.0608
 1661PEP     CB62721  13.343  19.841   9.304  0.3416 -0.3545 -0.3047
 1661PEP     CB62722  13.005  20.100   8.993 -0.3822 -0.0716 -0.4849
 1661PEP     CB62723  12.630  20.186   9.127  0.4207 -0.0157 -0.1331
 1661PEP     CB62724  12.192  20.325   9.085  0.0755 -0.3789  0.1523
 1661PEP     CB62725  11.877  20.617   8.946 -0.2918 -0.0647  0.0839
 1661PEP     CB62726  11.871  20.886   8.692 -0.0946  0.0448 -0.2139
 1661PEP     CB62727  11.521  21.056   8.369 -0.2908 -0.1488 -0.1686
 1661PEP     CB62728  11.239  21.493   8.385  0.0464  0.1017 -0.3264
 1661PEP     CB62729  10.944  21.722   8.735  0.1269  0.3408 -0.0229
 1661PEP     CB62730  10.563  21.733   8.927  0.0412 -0.1499 -0.0601
 1661PEP     CB62731  10.229  21.893   9.007  0.2687 -0.0965 -0.2168
 1661PEP     CB62732   9.763  22.149   8.989  0.1213  0.0944 -0.0959
 1661PEP     CB62733   9.321  21.980   8.893 -0.1891 -0.3648  0.0168
 1661PEP     CB62734   9.159  21.755   8.537 -0.2291 -0.2569  0.2409
 1661PEP     CB62735   8.890  21.543   8.163 -0.2766 -0.2427 -0.0941
 1661PEP     CB62736   8.628  21.331   7.959  0.0145  0.4657 -0.1220
 1661PEP     CB62737   8.485  21.060   7.635  0.4774 -0.2088  0.0583
 1661PEP     CB62738   8.222  20.835   7.394  0.0655  0.0325 -0.3779
 1661PEP     CB62739   7.739  20.878   7.318 -0.1793  0.2488 -0.0758
 1661PEP     CB62740   7.514  21.232   7.470  0.0377  0.2265 -0.1419
 1661PEP     CB62741   7.524  21.714   7.419 -0.0841 -0.1836 -0.1140
 1661PEP     CB62742   7.663  22.088   7.321  0.1057  0.2527  0.1688
 1661PEP     CB62743   7.839  22.391   7.181 -0.0758 -0.0818  0.3505
 1661PEP     CB62744   8.078  22.827   7.243  0.4413  0.1371  0.2195
 1661PEP     CB62745   8.172  23.215   7.118 -0.4352 -0.3828  0.0398
 1661PEP     CB62746   8.251  23.610   6.966  0.2185  0.0144  0.4047
 1661PEP     CB62747   8.064  24.003   7.021 -0.1771  0.4423  0.3520
 1661PEP     CB62748   8.151  24.454   7.114 -0.0849 -0.1080  0.1974
 1661PEP     CB62749   8.350  24.708   7.467  0.0742  0.3737  0.1137
 1661PEP     CB62750   8.249  24.782   7.934 -0.0558 -0.5029 -0.2422
 1661PEP     CB62751   8.150  25.078   8.241 -0.1376  0.2746  0.2327
 1661PEP     CB62752   7.915  25.389   8.183  0.3453 -0.2531 -0.1481
 1661PEP     CB62753   7.633  25.471   7.903 -0.0435 -0.1699  0.1245
 1661PEP     CB62754   7.185  25.518   7.852  0.0130 -0.0806  0.0125
 1661PEP     CB62755   6.740  25.655   7.843 -0.4755 -0.0648  0.1007
 1661PEP     CB62756   6.331  25.591   7.854 -0.0996  0.0575 -0.0559
 1661PEP     CB62757   5.949  25.443   7.691 -0.0230  0.0391 -0.0781
 1661PEP     CB62758   5.767  25.441   7.315 -0.2700 -0.3001  0.0633
 1661PEP     CB62759   5.413  25.425   6.974 -0.0271 -0.1096  0.1585
 1661PEP     CB62760   4.990  25.519   7.012 -0.0909  0.1612 -0.1884
 1662PEP     CB62761   7.925  21.180   9.089  0.1272  0.5693 -0.2330
 1662PEP     CB62762   8.206  20.913   8.811  0.3011  0.2317  0.2102
 1662PEP     CB62763   8.621  20.699   8.682 -0.6106 -0.2700  0.0431
 1662PEP     CB62764   9.034  20.704   8.589  0.1004 -0.0797 -0.3703
 1662PEP     CB62765   9.437  20.769   8.541  0.0387 -0.1391 -0.4504
 1662PEP     CB62766   9.692  20.819   8.301  0.3325  0.3621 -0.2065
 1662PEP     CB62767  10.072  21.055   8.207  0.2650  0.0484 -0.1569
 1662PEP     CB62768  10.336  21.304   7.977  0.1809  0.1842  0.0785
 1662PEP     CB62769  10.891  21.347   8.076  0.1021 -0.2198  0.0107
 1662PEP     CB62770  11.242  21.449   7.883 -0.1740  0.3218 -0.0885
 1662PEP     CB62771  11.655  21.456   7.988 -0.2847 -0.1982 -0.0239
 1662PEP     CB62772  11.891  21.848   8.044  0.2063 -0.3653  0.1200
 1662PEP     CB62773  11.694  22.266   7.999  0.5564  0.0984  0.1137
 1662PEP     CB62774  11.715  22.652   8.034 -0.1215 -0.2083  0.1099
 1662PEP     CB62775  11.820  23.168   8.032 -0.2679 -0.4968  0.0989
 1662PEP     CB62776  11.837  23.686   8.109 -0.6583 -0.2163 -0.1253
 1662PEP     CB62777  11.993  24.103   8.225  0.4806 -0.4536 -0.1771
 1662PEP     CB62778  11.868  24.538   8.128  0.0118 -0.2483 -0.1324
 1662PEP     CB62779  11.848  24.642   7.704 -0.1594  0.0388 -0.1753
 1662PEP     CB62780  12.060  24.338   7.453  0.0295  0.2197 -0.0568
 1662PEP     CB62781  12.285  23.927   7.596  0.2359  0.1789  0.3088
 1662PEP     CB62782  12.480  23.827   8.041  0.1282  0.1678 -0.3677
 1662PEP     CB62783  12.812  23.760   8.305  0.0949  0.0418 -0.2312
 1662PEP     CB62784  13.051  23.771   8.724  0.1196 -0.1926  0.0406
 1662PEP     CB62785  12.766  23.721   9.103  0.0240  0.1853 -0.4752
 1662PEP     CB62786  12.415  23.724   8.972 -0.1743  0.1361 -0.0637
 1662PEP     CB62787  12.381  23.961   8.558  0.0404  0.1064  0.1414
 1662PEP     CB62788  12.540  24.288   8.289 -0.0741  0.1566 -0.1086
 1662PEP     CB62789  12.766  24.266   7.903  0.2300  0.0127 -0.0445
 1662PEP     CB62790  12.787  23.890   7.607  0.0741 -0.0307 -0.0470
 1662PEP     CB62791  12.911  23.859   7.150 -0.1554 -0.4442  0.0326
 1662PEP     CB62792  12.765  24.036   6.756  0.0360 -0.1123  0.0387
 1662PEP     CB62793  12.333  24.110   6.554  0.0868 -0.2260  0.0956
 1662PEP     CB62794  12.110  23.820   6.313  0.3165 -0.2454 -0.0222
 1662PEP     CB62795  12.179  23.382   6.276  0.1649  0.1149  0.0016
 1662PEP     CB62796  12.427  22.986   6.443 -0.3757  0.1654 -0.2745
 1662PEP     CB62797  12.374  22.833   6.880 -0.1002  0.0461 -0.0489
 1662PEP     CB62798  12.206  23.111   7.166  0.0159 -0.1185 -0.3726
 1662PEP     CB62799  11.867  23.379   7.197  0.1719 -0.4451  0.0095
 1662PEP     CB62800  11.374  23.539   7.213 -0.1078 -0.4071  0.0524
 1663PEP     CB62801   9.912  17.373   2.849  0.3387 -0.2170 -0.0510
 1663PEP     CB62802   9.623  17.623   2.881  0.1513 -0.3411 -0.0736
 1663PEP     CB62803   9.337  17.782   2.667 -0.0197 -0.2347 -0.4770
 1663PEP     CB62804   9.096  18.102   2.381 -0.2640  0.0424  0.3538
 1663PEP     CB62805   8.837  18.232   2.121 -0.0437 -0.2675  0.0347
 1663PEP     CB62806   8.728  18.623   1.937  0.0061 -0.1532 -0.1160
 1663PEP     CB62807   8.896  18.996   1.701 -0.3860  0.3488  0.2267
 1663PEP     CB62808   9.322  18.954   1.566  0.0093 -0.1522  0.1273
 1663PEP     CB62809   9.656  18.716   1.367 -0.4040  0.1054 -0.0121
 1663PEP     CB62810   9.989  18.975   1.399 -0.1245  0.1119  0.2320
 1663PEP     CB62811  10.038  19.302   1.582 -0.3228 -0.1788  0.2818
 1663PEP     CB62812   9.939  19.703   1.703 -0.0978 -0.0098 -0.1175
 1663PEP     CB62813  10.262  20.039   1.638 -0.2155  0.1256 -0.0569
 1663PEP     CB62814  10.701  19.971   1.840 -0.2862  0.0854  0.1575
 1663PEP     CB62815  11.185  19.927   1.704  0.1397 -0.2763  0.3591
 1663PEP     CB62816  11.387  19.721   1.328  0.1057 -0.1004  0.0824
 1663PEP     CB62817  11.813  19.704   1.164 -0.3395 -0.2539 -0.0199
 1663PEP     CB62818  12.320  19.743   1.190 -0.0962 -0.1436 -0.2628
 1663PEP     CB62819  12.720  19.735   1.285  0.4369  0.2593  0.2342
 1663PEP     CB62820  13.001  19.992   1.433 -0.0972  0.1444 -0.1878
 1663PEP     CB62821  13.417  20.116   1.658 -0.4481  0.2056 -0.0936
 1663PEP     CB62822  13.751  20.296   1.701  0.1855  0.2245  0.2007
 1663PEP     CB62823  14.149  20.616   1.685 -0.1659 -0.0533  0.5411
 1663PEP     CB62824  14.358  20.970   1.633  0.0563 -0.2952 -0.0335
 1663PEP     CB62825  14.641  21.193   1.853  0.3150 -0.1756  0.1335
 1663PEP     CB62826  14.701  21.603   2.003  0.1205  0.4072  0.1974
 1663PEP     CB62827  14.674  22.063   2.144 -0.2195  0.0553  0.2050
 1663PEP     CB62828  14.597  22.240   2.600  0.6582 -0.3764 -0.2241
 1663PEP     CB62829  14.579  21.988   2.946 -0.1119 -0.3643 -0.5969
 1663PEP     CB62830  14.886  21.650   3.144 -0.1590  0.0598 -0.1937
 1663PEP     CB62831  15.008  21.211   3.103  0.1788 -0.0466  0.3867
 1663PEP     CB62832  15.014  20.885   2.962  0.0770 -0.2165  0.2909
 1663PEP     CB62833  15.276  20.484   2.901  0.2247  0.0167 -0.0444
 1663PEP     CB62834  15.350  20.173   2.600 -0.1366 -0.4404  0.2535
 1663PEP     CB62835  15.388  20.014   2.100  0.4926  0.0339 -0.0732
 1663PEP     CB62836  15.383  19.754   1.672  0.1234  0.2796 -0.2969
 1663PEP     CB62837  15.115  19.623   1.285  0.0480  0.0545 -0.0654
 1663PEP     CB62838  14.837  19.497   0.927 -0.0272 -0.0502 -0.2457
 1663PEP     CB62839  14.546  19.262   0.627 -0.0261 -0.3162  0.0369
 1663PEP     CB62840  14.210  18.899   0.483  0.4099 -0.1752 -0.1398
 1664PEP     CB62841   1.358  12.596  16.486  0.0226 -0.0291  0.1900
 1664PEP     CB62842   1.293  12.483  16.959 -0.2333 -0.2716  0.2852
 1664PEP     CB62843   0.975  12.325  17.078  0.1326 -0.1055 -0.0380
 1664PEP     CB62844   0.709  12.191  16.782  0.1055 -0.1799  0.0249
 1664PEP     CB62845   0.537  12.463  16.448  0.8034 -0.3974 -0.0585
 1664PEP     CB62846   0.831  12.599  16.052  0.1288 -0.0764  0.0386
 1664PEP     CB62847   1.001  12.714  15.603  0.0292 -0.2138 -0.3939
 1664PEP     CB62848   1.137  13.055  15.286 -0.0995  0.1290 -0.1083
 1664PEP     CB62849   1.548  13.292  15.226 -0.3335 -0.0695  0.0652
 1664PEP     CB62850   1.762  13.648  15.525 -0.1131  0.2048  0.2570
 1664PEP     CB62851   1.863  13.872  15.878 -0.1532  0.1424  0.1057
 1664PEP     CB62852   1.930  14.353  15.977 -0.2376 -0.2729 -0.2728
 1664PEP     CB62853   2.298  14.609  16.122  0.2124  0.1024  0.1394
 1664PEP     CB62854   2.731  14.515  16.117 -0.2227  0.0915  0.3714
 1664PEP     CB62855   2.973  14.184  15.949  0.0614 -0.4233 -0.2555
 1664PEP     CB62856   3.230  13.882  15.841  0.2921 -0.0106  0.0133
 1664PEP     CB62857   3.480  13.547  15.908  0.3088 -0.0134 -0.0463
 1664PEP     CB62858   3.537  13.201  16.127  0.1626  0.3184 -0.1130
 1664PEP     CB62859   3.652  12.804  16.041  0.2514 -0.3796  0.0040
 1664PEP     CB62860   3.754  12.643  15.553 -0.2463 -0.0075  0.2390
 1664PEP     CB62861   3.464  12.546  15.284 -0.0337 -0.1116  0.2692
 1664PEP     CB62862   3.102  12.853  15.226  0.0471  0.0421 -0.0529
 1664PEP     CB62863   3.128  13.291  15.287  0.0113 -0.1520  0.1707
 1664PEP     CB62864   3.411  13.605  15.416  0.0549 -0.2524 -0.0236
 1664PEP     CB62865   3.854  13.514  15.656  0.2498 -0.1680 -0.0043
 1664PEP     CB62866   4.308  13.447  15.722  0.0924 -0.1500 -0.2836
 1664PEP     CB62867   4.754  13.526  15.977  0.3279 -0.0501 -0.0664
 1664PEP     CB62868   5.074  13.532  16.361  0.4203  0.0483 -0.0932
 1664PEP     CB62869   5.315  13.567  16.750  0.3629 -0.2728 -0.3170
 1664PEP     CB62870   5.518  13.581  17.210  0.1013 -0.2707  0.4335
 1664PEP     CB62871   5.753  13.401  17.618 -0.0469 -0.2748  0.0319
 1664PEP     CB62872   5.957  13.468  17.998  0.1350  0.0305 -0.1072
 1664PEP     CB62873   5.863  13.306  18.422 -0.0671 -0.0928 -0.0000
 1664PEP     CB62874   5.581  12.905  18.377 -0.5017 -0.1968 -0.0509
 1664PEP     CB62875   5.239  12.698  18.337  0.2704 -0.3018  0.4199
 1664PEP     CB62876   4.932  12.326  18.205  0.0725 -0.2100  0.4353
 1664PEP     CB62877   4.595  12.080  18.365  0.1213 -0.3055  0.2195
 1664PEP     CB62878   4.333  12.240  18.648 -0.2039  0.3488  0.1166
 1664PEP     CB62879   4.109  12.410  18.862 -0.1441 -0.2322  0.0381
 1664PEP     CB62880   3.866  12.720  19.137  0.1877 -0.3134  0.0361
 1665PEP     CB62881  13.736   1.533  12.729 -0.4927 -0.2445  0.3443
 1665PEP     CB62882  13.589   1.105  12.610  0.1276  0.1142  0.0600
 1665PEP     CB62883  13.262   0.862  12.370  0.3885  0.1192  0.4389
 1665PEP     CB62884  12.970   0.605  12.225  0.5881 -0.2072  0.0474
 1665PEP     CB62885  12.768   0.247  12.191 -0.0425 -0.0322 -0.1585
 1665PEP     CB62886  12.808   0.096  11.840  0.1860 -0.2456  0.2754
 1665PEP     CB62887  12.662   0.032  11.417  0.1721 -0.1117  0.0552
 1665PEP     CB62888  12.667  -0.329  11.252 -0.0527 -0.1172 -0.1337
 1665PEP     CB62889  12.692  -0.776  11.446 -0.2039 -0.2516  0.3081
 1665PEP     CB62890  12.478  -0.921  11.889  0.0494 -0.1798 -0.1103
 1665PEP     CB62891  12.195  -0.845  12.149  0.1678 -0.0590 -0.2010
 1665PEP     CB62892  12.177  -0.528  12.491 -0.4525 -0.1698 -0.2227
 1665PEP     CB62893  12.610  -0.350  12.724  0.3484 -0.0758  0.0625
 1665PEP     CB62894  12.833  -0.455  13.162 -0.3398  0.2195 -0.0776
 1665PEP     CB62895  13.079  -0.756  13.259 -0.0970 -0.2004 -0.0644
 1665PEP     CB62896  13.473  -0.779  13.030 -0.2033 -0.0752 -0.0105
 1665PEP     CB62897  13.714  -0.462  12.826  0.1578 -0.0177 -0.1169
 1665PEP     CB62898  14.027  -0.138  12.773 -0.0062  0.1401  0.2686
 1665PEP     CB62899  14.446  -0.010  12.583 -0.0956  0.2805  0.0815
 1665PEP     CB62900  14.841   0.241  12.724  0.2849 -0.0413 -0.0244
 1665PEP     CB62901  14.998   0.569  12.953 -0.1926  0.0236  0.4475
 1665PEP     CB62902  15.116   0.973  12.966  0.1484  0.2291 -0.2922
 1665PEP     CB62903  15.274   1.326  12.863  0.3155  0.4622  0.2861
 1665PEP     CB62904  15.589   1.585  12.756 -0.5537 -0.0923 -0.3751
 1665PEP     CB62905  15.944   1.831  12.583  0.0308 -0.1000  0.1860
 1665PEP     CB62906  16.370   1.818  12.418  0.1737 -0.2762 -0.3063
 1665PEP     CB62907  16.636   1.557  12.166 -0.0444  0.2379 -0.2270
 1665PEP     CB62908  16.594   1.154  12.061  0.0586  0.0904  0.1186
 1665PEP     CB62909  16.420   0.910  11.700 -0.0528 -0.2599  0.4715
 1665PEP     CB62910  16.305   0.972  11.362 -0.1094 -0.0541  0.1253
 1665PEP     CB62911  16.437   1.211  11.051  0.1459 -0.0932  0.2004
 1665PEP     CB62912  16.473   1.514  10.705 -0.2964 -0.2160 -0.0770
 1665PEP     CB62913  16.530   1.784  10.322 -0.1052  0.0522  0.2724
 1665PEP     CB62914  16.680   1.968  10.010  0.1336  0.1270  0.2090
 1665PEP     CB62915  16.635   1.735   9.545 -0.1272  0.1894 -0.1783
 1665PEP     CB62916  16.249   1.494   9.396  0.2087 -0.1823 -0.0235
 1665PEP     CB62917  15.767   1.590   9.529  0.0199  0.1156 -0.1709
 1665PEP     CB62918  15.320   1.644   9.600 -0.2100  0.1645  0.3173
 1665PEP     CB62919  15.090   2.004   9.640 -0.0432 -0.3251 -0.1591
 1665PEP     CB62920  14.605   2.064   9.492 -0.1061 -0.0952  0.3066
 1666PEP     CB62921   6.086  21.897   9.978 -0.0932 -0.2588 -0.1394
 1666PEP     CB62922   5.949  21.805   9.513 -0.0987  0.1594  0.1897
 1666PEP     CB62923   5.875  21.575   9.165 -0.3509 -0.7863 -0.0221
 1666PEP     CB62924   5.671  21.415   8.780  0.1405  0.3531 -0.3199
 1666PEP     CB62925   5.410  21.076   8.745 -0.2915 -0.0400 -0.1761
 1666PEP     CB62926   5.213  20.931   9.065  0.0511 -0.1623 -0.0169
 1666PEP     CB62927   5.112  21.137   9.482 -0.1658 -0.0500 -0.1571
 1666PEP     CB62928   4.776  21.133   9.670 -0.0462 -0.1367 -0.2781
 1666PEP     CB62929   4.356  20.976   9.601 -0.1452  0.1929 -0.0191
 1666PEP     CB62930   4.148  20.573   9.566 -0.5583  0.1600 -0.1993
 1666PEP     CB62931   4.318  20.232   9.243  0.2053  0.0341 -0.0823
 1666PEP     CB62932   4.651  20.221   8.973  0.0683  0.6568 -0.1184
 1666PEP     CB62933   4.830  20.161   8.574  0.1201 -0.1769 -0.0535
 1666PEP     CB62934   5.199  19.947   8.463 -0.1136  0.0406 -0.3077
 1666PEP     CB62935   5.348  19.700   8.829  0.1087  0.2356  0.1331
 1666PEP     CB62936   5.137  19.755   9.235  0.2158  0.0189 -0.1044
 1666PEP     CB62937   5.073  19.830   9.698  0.3996  0.0310 -0.0540
 1666PEP     CB62938   4.887  20.009  10.120 -0.1325  0.0959  0.0992
 1666PEP     CB62939   4.362  19.830  10.212  0.5001  0.0916  0.1094
 1666PEP     CB62940   3.981  19.789  10.187  0.1398  0.0240 -0.1748
 1666PEP     CB62941   3.576  19.703  10.180  0.1734  0.1655  0.0516
 1666PEP     CB62942   3.139  19.651  10.305  0.1162 -0.0018  0.1875
 1666PEP     CB62943   2.725  19.704  10.421 -0.2312  0.4903 -0.1114
 1666PEP     CB62944   2.306  19.705  10.486 -0.1128  0.0312 -0.0951
 1666PEP     CB62945   1.868  19.900  10.286 -0.0380 -0.0989 -0.3547
 1666PEP     CB62946   1.592  20.141  10.149  0.0696  0.0603  0.0986
 1666PEP     CB62947   1.284  20.398  10.359  0.0880  0.0534 -0.1828
 1666PEP     CB62948   1.200  20.877  10.401  0.3553  0.1960 -0.0470
 1666PEP     CB62949   1.474  21.213  10.154 -0.0351  0.3000 -0.1420
 1666PEP     CB62950   1.893  21.188  10.096 -0.3360 -0.4492 -0.0747
 1666PEP     CB62951   2.335  21.226  10.000  0.3497  0.1109 -0.0641
 1666PEP     CB62952   2.634  21.374   9.819 -0.2822 -0.4146  0.3637
 1666PEP     CB62953   3.049  21.268   9.685  0.3355 -0.2872  0.0989
 1666PEP     CB62954   3.499  21.285   9.521 -0.0921 -0.0499  0.1887
 1666PEP     CB62955   3.924  21.350   9.488 -0.0551  0.0178 -0.1392
 1666PEP     CB62956   4.028  21.723   9.660  0.4160 -0.1470  0.1847
 1666PEP     CB62957   3.790  22.034   9.588 -0.3249 -0.4371  0.4343
 1666PEP     CB62958   3.408  22.236   9.839  0.1014  0.1229 -0.0571
 1666PEP     CB62959   3.275  22.007  10.175 -0.1470  0.0854  0.1193
 1666PEP     CB62960   3.302  21.793  10.407  0.3187 -0.4271  0.0649
 1667PEP     CB62961  20.146   2.996  13.887  0.2535 -0.0990  0.0074
 1667PEP     CB62962  20.155   2.723  13.694 -0.0593  0.4113  0.0882
 1667PEP     CB62963  20.003   2.339  13.468  0.0705 -0.5779 -0.2035
 1667PEP     CB62964  19.682   2.105  13.471 -0.2183  0.2367  0.6777
 1667PEP     CB62965  19.320   2.199  13.120 -0.0343  0.1218 -0.1945
 1667PEP     CB62966  19.411   2.394  12.722  0.4276  0.2183  0.1348
 1667PEP     CB62967  19.385   2.481  12.286  0.0642 -0.0723 -0.2942
 1667PEP     CB62968  19.618   2.593  11.945 -0.0978  0.2537 -0.0363
 1667PEP     CB62969  19.989   2.831  11.856 -0.0571 -0.2278  0.0248
 1667PEP     CB62970  20.312   2.808  12.070 -0.2126  0.1869  0.1954
 1667PEP     CB62971  20.600   2.554  12.040 -0.2300 -0.2786 -0.0834
 1667PEP     CB62972  20.623   2.195  12.309  0.1453 -0.0559  0.1845
 1667PEP     CB62973  20.672   2.295  12.753  0.0664 -0.1119  0.0005
 1667PEP     CB62974  20.816   2.184  13.158  0.0081 -0.0139 -0.0080
 1667PEP     CB62975  20.911   1.970  13.476  0.0120  0.0123  0.1296
 1667PEP     CB62976  21.130   1.579  13.650  0.0692  0.2799  0.2327
 1667PEP     CB62977  21.454   1.533  13.799 -0.0810 -0.0914  0.1482
 1667PEP     CB62978  21.762   1.308  14.137 -0.2061  0.2409  0.1492
 1667PEP     CB62979  22.060   1.258  14.469 -0.2869 -0.4146 -0.1277
 1667PEP     CB62980  22.322   1.429  14.817 -0.0029 -0.2147 -0.0530
 1667PEP     CB62981  22.602   1.790  14.967 -0.3017  0.2424  0.0163
 1667PEP     CB62982  22.654   2.219  15.132 -0.1485  0.1044 -0.0758
 1667PEP     CB62983  22.486   2.633  15.240 -0.4518  0.4197  0.0149
 1667PEP     CB62984  22.211   3.005  15.235 -0.2072 -0.0220 -0.0656
 1667PEP     CB62985  21.823   3.242  15.180 -0.1530 -0.1967 -0.0876
 1667PEP     CB62986  21.401   3.135  15.118  0.2597 -0.1899  0.6081
 1667PEP     CB62987  21.118   2.935  14.915 -0.0087  0.3807 -0.2437
 1667PEP     CB62988  20.939   2.472  15.016 -0.2633 -0.1686  0.2520
 1667PEP     CB62989  20.657   2.162  15.277  0.1584  0.1301 -0.2758
 1667PEP     CB62990  20.299   2.166  15.331  0.1205 -0.2368  0.4713
 1667PEP     CB62991  19.911   2.182  15.146  0.2926 -0.2365  0.2234
 1667PEP     CB62992  19.687   2.449  14.865  0.2673 -0.1461 -0.0142
 1667PEP     CB62993  19.752   2.917  14.787  0.0209  0.3706 -0.0370
 1667PEP     CB62994  19.873   3.213  15.057 -0.1363  0.0289 -0.5601
 1667PEP     CB62995  19.867   3.595  15.257  0.0772  0.3990  0.5826
 1667PEP     CB62996  20.044   3.948  15.308 -0.2799  0.4015  0.1489
 1667PEP     CB62997  20.365   4.052  15.611  0.3361  0.1389  0.2901
 1667PEP     CB62998  20.380   4.030  16.090 -0.2500 -0.1090  0.4115
 1667PEP     CB62999  20.462   3.970  16.488  0.0313  0.3683 -0.3489
 1667PEP     CB63000  20.663   3.852  16.900  0.3441 -0.0701  0.1495
 1668PEP     CB63001   6.173   2.302  15.291  0.3384 -0.0569 -0.3144
 1668PEP     CB63002   5.886   2.248  15.513 -0.2904 -0.4004  0.0518
 1668PEP     CB63003   5.606   2.424  15.804 -0.3248  0.1357  0.1933
 1668PEP     CB63004   5.649   2.705  16.125 -0.0322 -0.1820  0.4203
 1668PEP     CB63005   6.066   2.827  16.283 -0.3714  0.0321  0.2532
 1668PEP     CB63006   6.540   2.843  16.138  0.1766  0.3012 -0.1277
 1668PEP     CB63007   6.649   2.957  15.687 -0.4353  0.1753 -0.5454
 1668PEP     CB63008   6.478   3.354  15.486 -0.1239 -0.5257 -0.0265
 1668PEP     CB63009   6.125   3.628  15.795  0.1911  0.0087  0.1785
 1668PEP     CB63010   5.892   3.520  16.213 -0.4212 -0.2196 -0.1541
 1668PEP     CB63011   5.842   3.698  16.668 -0.0726 -0.2300 -0.4578
 1668PEP     CB63012   6.021   4.091  16.852  0.0812 -0.2474  0.4305
 1668PEP     CB63013   6.095   4.482  16.668 -0.0092  0.0944 -0.0456
 1668PEP     CB63014   6.162   4.780  16.255  0.0012 -0.3399 -0.1256
 1668PEP     CB63015   6.398   4.769  15.887 -0.1596  0.0916 -0.5350
 1668PEP     CB63016   6.532   5.002  15.529 -0.1586  0.2911  0.1117
 1668PEP     CB63017   6.664   5.337  15.323  0.0153 -0.1035 -0.2440
 1668PEP     CB63018   6.965   5.630  15.201 -0.1543 -0.0273 -0.4427
 1668PEP     CB63019   7.459   5.588  15.259  0.1118  0.0350  0.0800
 1668PEP     CB63020   7.685   5.210  15.172  0.0032  0.3375 -0.0531
 1668PEP     CB63021   8.061   5.001  15.036  0.1878  0.0895 -0.0436
 1668PEP     CB63022   8.086   4.790  14.690  0.1081 -0.0496 -0.1179
 1668PEP     CB63023   8.236   4.692  14.337 -0.1050  0.0021  0.4244
 1668PEP     CB63024   8.232   4.595  13.914  0.0747  0.3015 -0.2180
 1668PEP     CB63025   8.039   4.281  13.574 -0.2947 -0.0644 -0.4017
 1668PEP     CB63026   7.801   4.364  13.235 -0.2515  0.1878  0.0396
 1668PEP     CB63027   7.627   4.378  12.878  0.0494 -0.2693 -0.1692
 1668PEP     CB63028   7.227   4.283  12.686  0.2021  0.1192  0.0120
 1668PEP     CB63029   6.852   4.013  12.536 -0.0224 -0.1253 -0.0486
 1668PEP     CB63030   6.441   3.863  12.500  0.0177  0.1121  0.4080
 1668PEP     CB63031   5.946   3.794  12.676  0.1270 -0.4150 -0.2549
 1668PEP     CB63032   5.737   3.842  13.011  0.3235  0.1121  0.2551
 1668PEP     CB63033   5.708   4.219  13.320  0.3833  0.0206  0.0581
 1668PEP     CB63034   5.979   4.479  13.346 -0.0913  0.2120  0.1728
 1668PEP     CB63035   6.190   4.736  13.690 -0.3060 -0.1470 -0.3866
 1668PEP     CB63036   6.529   4.963  13.854 -0.1259 -0.1296  0.1036
 1668PEP     CB63037   6.847   5.361  13.972  0.1296 -0.3971 -0.2288
 1668PEP     CB63038   6.838   5.833  14.030 -0.1943 -0.1909  0.0118
 1668PEP     CB63039   7.233   6.115  14.064  0.0217 -0.1622 -0.1443
 1668PEP     CB63040   7.521   6.296  14.347  0.0174  0.3111 -0.2263
 1669PEP     CB63041   8.803   7.411   6.166 -0.2404 -0.0004  0.3447
 1669PEP     CB63042   8.826   7.841   6.260 -0.3292  0.1816  0.1533
 1669PEP     CB63043   8.617   8.243   6.298  0.0482 -0.2519  0.1768
 1669PEP     CB63044   8.470   8.476   6.684  0.0501 -0.2734 -0.3799
 1669PEP     CB63045   8.182   8.314   7.003 -0.1204  0.1345 -0.0220
 1669PEP     CB63046   7.897   7.993   6.813  0.5257 -0.0453  0.2457
 1669PEP     CB63047   7.927   7.954   6.396  0.1453 -0.0151 -0.0660
 1669PEP     CB63048   8.227   7.926   6.078  0.1986  0.2002  0.4225
 1669PEP     CB63049   8.433   7.791   5.685 -0.1240 -0.1323 -0.2346
 1669PEP     CB63050   8.711   7.829   5.453  0.0281 -0.3751  0.2854
 1669PEP     CB63051   8.897   7.571   5.148 -0.3326  0.0801  0.1044
 1669PEP     CB63052   9.002   7.202   5.308 -0.2027  0.2799  0.1160
 1669PEP     CB63053   8.907   7.235   5.770 -0.0115 -0.4885  0.1810
 1669PEP     CB63054   9.054   7.718   5.838 -0.0776 -0.3003  0.2033
 1669PEP     CB63055   8.993   8.185   5.698 -0.0212  0.1796  0.2497
 1669PEP     CB63056   8.944   8.643   5.808 -0.4080 -0.0484  0.2558
 1669PEP     CB63057   8.921   9.022   5.745 -0.1899 -0.0632  0.1648
 1669PEP     CB63058   8.655   9.461   5.773 -0.4576 -0.3167  0.1884
 1669PEP     CB63059   8.578   9.846   5.630 -0.2407  0.2254 -0.0336
 1669PEP     CB63060   8.331   9.981   5.317 -0.1803  0.2586 -0.3532
 1669PEP     CB63061   8.268  10.061   4.868  0.1476 -0.0944  0.0267
 1669PEP     CB63062   8.047  10.131   4.496  0.1862  0.4630 -0.0752
 1669PEP     CB63063   7.796  10.466   4.330 -0.1876 -0.1538  0.1537
 1669PEP     CB63064   7.405  10.658   4.026 -0.0734 -0.1395 -0.0696
 1669PEP     CB63065   7.101  10.343   3.765  0.5244 -0.1729 -0.3052
 1669PEP     CB63066   6.830   9.940   3.903  0.0457 -0.3852  0.1397
 1669PEP     CB63067   6.579   9.945   4.295 -0.0016  0.2309 -0.0312
 1669PEP     CB63068   6.183  10.028   4.344  0.2281  0.6059 -0.1313
 1669PEP     CB63069   5.872  10.359   4.299  0.3326  0.1253 -0.2484
 1669PEP     CB63070   5.686  10.661   3.961  0.0639  0.4013  0.0783
 1669PEP     CB63071   5.375  10.965   3.703  0.4176 -0.2830  0.1654
 1669PEP     CB63072   5.079  11.316   3.770 -0.2275 -0.1025 -0.2726
 1669PEP     CB63073   4.756  11.214   4.058  0.2945  0.3476 -0.1665
 1669PEP     CB63074   4.918  10.969   4.416 -0.3070 -0.4146  0.0990
 1669PEP     CB63075   5.396  11.013   4.574 -0.2309  0.1931  0.0686
 1669PEP     CB63076   5.791  10.954   4.418 -0.1372  0.1534 -0.2714
 1669PEP     CB63077   6.164  10.766   4.417 -0.0531  0.1239 -0.2009
 1669PEP     CB63078   6.505  10.466   4.441 -0.3565  0.1727  0.3508
 1669PEP     CB63079   6.937  10.266   4.270 -0.1638 -0.1795 -0.2203
 1669PEP     CB63080   7.391  10.179   4.148 -0.2305  0.3361 -0.2942
 1670PEP     CB63081   1.263   7.893   5.399 -0.1164 -0.3300 -0.2707
 1670PEP     CB63082   1.146   7.813   5.832 -0.2437  0.0499 -0.0828
 1670PEP     CB63083   1.218   7.985   6.211 -0.0270  0.3965  0.0623
 1670PEP     CB63084   1.136   8.329   6.335  0.1076  0.0607 -0.0768
 1670PEP     CB63085   1.278   8.681   6.143 -0.3106  0.4605 -0.1247
 1670PEP     CB63086   1.295   8.985   5.744 -0.3407 -0.0887 -0.0444
 1670PEP     CB63087   1.591   9.016   5.468  0.1701  0.0915 -0.0787
 1670PEP     CB63088   2.047   8.883   5.486  0.3212 -0.3155 -0.2831
 1670PEP     CB63089   2.396   9.210   5.488  0.3823  0.0241 -0.1564
 1670PEP     CB63090   2.314   9.615   5.202  0.4451  0.1478 -0.0498
 1670PEP     CB63091   2.100   9.794   4.767  0.0188 -0.3976  0.1229
 1670PEP     CB63092   1.938  10.116   4.494  0.1974  0.0978  0.3083
 1670PEP     CB63093   1.602  10.024   4.272  0.0358  0.1626  0.2258
 1670PEP     CB63094   1.513   9.778   3.931 -0.0839  0.3826 -0.4454
 1670PEP     CB63095   1.801   9.497   3.737 -0.3621 -0.2800  0.0782
 1670PEP     CB63096   2.204   9.475   3.732 -0.1102  0.1274  0.1670
 1670PEP     CB63097   2.474   9.803   3.709  0.0798  0.1752  0.0522
 1670PEP     CB63098   2.873  10.030   3.396  0.0306 -0.1529  0.0796
 1670PEP     CB63099   3.159   9.960   3.110  0.0363  0.4226 -0.2862
 1670PEP     CB63100   3.334   9.528   3.080  0.0843  0.1590  0.0230
 1670PEP     CB63101   3.303   8.979   3.097 -0.0452 -0.1206  0.0858
 1670PEP     CB63102   3.261   8.551   3.232  0.2909 -0.3125 -0.3457
 1670PEP     CB63103   3.393   8.083   3.195 -0.0628 -0.2909 -0.0225
 1670PEP     CB63104   3.756   8.057   2.908  0.0376  0.1314 -0.0012
 1670PEP     CB63105   4.062   7.924   2.581  0.6538 -0.1570  0.4171
 1670PEP     CB63106   4.060   7.746   2.162 -0.3770 -0.0561  0.0957
 1670PEP     CB63107   3.832   7.815   1.816 -0.2396  0.1282 -0.1360
 1670PEP     CB63108   3.967   7.907   1.552 -0.0053 -0.1550 -0.3113
 1670PEP     CB63109   4.397   7.910   1.371  0.0259  0.2219  0.2459
 1670PEP     CB63110   4.768   7.868   1.130  0.0806  0.2880 -0.1934
 1670PEP     CB63111   5.065   7.693   0.873  0.5533  0.0651  0.3728
 1670PEP     CB63112   5.510   7.628   0.879 -0.0777 -0.0239 -0.3901
 1670PEP     CB63113   5.844   7.911   0.985  0.1669  0.0554 -0.0890
 1670PEP     CB63114   5.761   8.281   1.292 -0.0995 -0.2353 -0.1391
 1670PEP     CB63115   5.417   8.495   1.311  0.3908  0.1525 -0.1958
 1670PEP     CB63116   4.986   8.379   1.452  0.2304  0.0208 -0.3339
 1670PEP     CB63117   4.685   8.455   1.723  0.0847 -0.0327  0.3037
 1670PEP     CB63118   4.561   8.673   2.174  0.0730  0.1612  0.0510
 1670PEP     CB63119   4.590   8.920   2.580  0.1456 -0.0181  0.3139
 1670PEP     CB63120   4.631   9.263   2.882 -0.1475  0.1390  0.2891
 1671PEP     CB63121   9.490  19.131   9.505 -0.0013 -0.2070 -0.4134
 1671PEP     CB63122   9.300  18.716   9.469 -0.3977 -0.2159  0.3255
 1671PEP     CB63123   9.253  18.467   9.733 -0.0328 -0.1582 -0.5011
 1671PEP     CB63124   9.302  18.295  10.207  0.0611 -0.4331  0.2840
 1671PEP     CB63125   9.553  17.905  10.321 -0.1176  0.0557 -0.0512
 1671PEP     CB63126   9.864  17.698  10.108  0.0322 -0.2750 -0.3685
 1671PEP     CB63127  10.152  17.661   9.858 -0.4451 -0.0799 -0.2073
 1671PEP     CB63128  10.374  17.850   9.449 -0.0617  0.3558 -0.2497
 1671PEP     CB63129  10.278  18.263   9.205 -0.1306  0.0353 -0.1284
 1671PEP     CB63130  10.405  18.638   9.156  0.0244 -0.1210 -0.2202
 1671PEP     CB63131  10.426  18.911   8.753 -0.3109  0.2549  0.2056
 1671PEP     CB63132  10.368  18.709   8.348  0.1847  0.1246 -0.3125
 1671PEP     CB63133  10.456  18.205   8.297 -0.2639  0.0639  0.1788
 1671PEP     CB63134  10.617  17.910   8.680 -0.0937  0.1251  0.1289
 1671PEP     CB63135  10.761  18.002   9.063  0.0010  0.0841  0.2582
 1671PEP     CB63136  10.823  18.435   9.268  0.3033  0.2572  0.0292
 1671PEP     CB63137  10.837  18.807   9.180  0.0915  0.4391 -0.1350
 1671PEP     CB63138  10.955  19.277   9.251  0.2130  0.0537  0.0415
 1671PEP     CB63139  10.983  19.608   9.046 -0.0280  0.1098  0.4836
 1671PEP     CB63140  11.274  20.005   8.946 -0.3634  0.0568 -0.2670
 1671PEP     CB63141  11.514  20.321   8.704 -0.0602  0.4195 -0.4151
 1671PEP     CB63142  11.689  20.520   8.302 -0.4346 -0.1551  0.2763
 1671PEP     CB63143  12.034  20.632   8.252  0.1735  0.1149  0.0926
 1671PEP     CB63144  12.458  20.651   8.138 -0.3074  0.2808  0.0687
 1671PEP     CB63145  12.913  20.593   8.095  0.2413  0.2468 -0.0149
 1671PEP     CB63146  13.301  20.433   8.162  0.1461 -0.0950  0.2713
 1671PEP     CB63147  13.584  20.142   8.224 -0.5909 -0.4129 -0.0911
 1671PEP     CB63148  13.564  19.806   8.556 -0.2982 -0.1485  0.2968
 1671PEP     CB63149  13.215  19.633   8.839  0.2949  0.4179  0.1066
 1671PEP     CB63150  12.711  19.538   8.583  0.0161  0.3812  0.0167
 1671PEP     CB63151  12.752  19.395   8.226 -0.2981 -0.2686 -0.2195
 1671PEP     CB63152  13.014  19.348   7.892 -0.0476 -0.0085  0.3059
 1671PEP     CB63153  13.410  19.562   7.693  0.2448  0.0061  0.2402
 1671PEP     CB63154  13.615  19.895   7.822 -0.1083  0.2850 -0.3023
 1671PEP     CB63155  13.976  20.252   7.854  0.2897  0.1391 -0.2383
 1671PEP     CB63156  14.345  20.431   7.918  0.2573  0.4566  0.2007
 1671PEP     CB63157  14.729  20.223   8.019 -0.2696  0.4054 -0.2726
 1671PEP     CB63158  14.779  19.783   8.010  0.1667 -0.0024  0.1829
 1671PEP     CB63159  14.396  19.453   8.048 -0.1367  0.0807  0.1298
 1671PEP     CB63160  13.937  19.468   7.982 -0.0819  0.1011  0.3379
 1672PEP     CB63161   1.235   2.485   1.461  0.2704  0.1310 -0.1492
 1672PEP     CB63162   1.305   2.683   1.838 -0.2810  0.0592  0.4138
 1672PEP     CB63163   1.247   3.172   1.919 -0.2975  0.2674  0.2426
 1672PEP     CB63164   0.982   3.495   1.784  0.2354  0.1038 -0.3856
 1672PEP     CB63165   0.803   3.933   1.750 -0.4715 -0.0415  0.3331
 1672PEP     CB63166   0.750   4.336   1.876 -0.2529  0.1921  0.0626
 1672PEP     CB63167   0.449   4.636   1.916 -0.2786  0.2363 -0.3174
 1672PEP     CB63168   0.169   4.866   1.849  0.0276 -0.3413  0.3948
 1672PEP     CB63169  -0.277   4.736   1.708 -0.1225  0.3029 -0.2732
 1672PEP     CB63170  -0.701   4.611   1.837  0.0799 -0.2947 -0.1963
 1672PEP     CB63171  -0.784   4.622   2.226 -0.1332  0.4658 -0.0974
 1672PEP     CB63172  -0.732   4.966   2.575  0.1340  0.1158 -0.1801
 1672PEP     CB63173  -0.608   5.457   2.368  0.0676  0.4239 -0.2047
 1672PEP     CB63174  -0.550   5.633   1.977  0.1973 -0.0265  0.5715
 1672PEP     CB63175  -0.450   5.626   1.586  0.0540 -0.0414 -0.1016
 1672PEP     CB63176  -0.351   5.517   1.239  0.0526  0.2848  0.1811
 1672PEP     CB63177  -0.235   5.636   0.900  0.0159  0.3143 -0.2949
 1672PEP     CB63178  -0.411   5.959   0.665  0.2563 -0.0112 -0.1350
 1672PEP     CB63179  -0.817   6.192   0.659  0.2044 -0.0746  0.2411
 1672PEP     CB63180  -1.149   6.310   0.935  0.3409  0.3622 -0.1664
 1672PEP     CB63181  -1.185   6.620   1.219  0.3529 -0.1641  0.1479
 1672PEP     CB63182  -1.540   6.802   1.392 -0.0510  0.2902 -0.1323
 1672PEP     CB63183  -1.913   6.893   1.124  0.1094 -0.5947 -0.2222
 1672PEP     CB63184  -1.938   6.799   0.684 -0.3730 -0.2339 -0.3033
 1672PEP     CB63185  -1.763   6.352   0.519  0.0192 -0.7094 -0.1487
 1672PEP     CB63186  -1.774   6.006   0.800  0.4561  0.0643 -0.5013
 1672PEP     CB63187  -1.920   5.995   1.222 -0.1224 -0.1184  0.0841
 1672PEP     CB63188  -2.220   6.024   1.583  0.1824  0.0713 -0.2048
 1672PEP     CB63189  -2.513   6.204   1.936 -0.1644  0.1323  0.0019
 1672PEP     CB63190  -2.564   6.468   2.217 -0.4602 -0.2727 -0.5265
 1672PEP     CB63191  -2.342   6.647   2.581  0.3655 -0.0266 -0.0831
 1672PEP     CB63192  -2.171   6.876   3.016  0.0247 -0.0735  0.2215
 1672PEP     CB63193  -2.077   7.004   3.510 -0.1393  0.1446 -0.2571
 1672PEP     CB63194  -2.183   7.128   3.969 -0.0592 -0.0714  0.2700
 1672PEP     CB63195  -2.432   7.472   4.186  0.3589  0.3160 -0.0748
 1672PEP     CB63196  -2.705   7.741   4.145  0.4205 -0.1494  0.0546
 1672PEP     CB63197  -2.774   8.218   4.059  0.0634  0.0162 -0.3717
 1672PEP     CB63198  -2.714   8.609   4.043  0.3560 -0.2222 -0.0321
 1672PEP     CB63199  -2.338   8.874   3.973  0.2896 -0.1324 -0.3683
 1672PEP     CB63200  -2.013   9.020   3.882 -0.0937 -0.2090 -0.2839
 1673PEP     CB63201   4.336  20.226   8.348  0.1317 -0.1727  0.2826
 1673PEP     CB63202   4.129  20.592   8.330  0.0595  0.0943  0.2354
 1673PEP     CB63203   3.878  20.784   8.020 -0.0209  0.0470  0.2196
 1673PEP     CB63204   3.723  20.856   7.547  0.0881  0.2798 -0.0063
 1673PEP     CB63205   3.947  21.025   7.231 -0.1977  0.0076  0.2025
 1673PEP     CB63206   4.409  21.043   7.289  0.1231  0.1593  0.2134
 1673PEP     CB63207   4.601  21.010   7.769 -0.1723  0.2786  0.0772
 1673PEP     CB63208   4.471  20.554   7.974  0.1611  0.0860 -0.1139
 1673PEP     CB63209   4.153  20.317   7.813  0.1002  0.1942 -0.1838
 1673PEP     CB63210   3.871  20.329   7.521  0.0473  0.3930 -0.0547
 1673PEP     CB63211   3.664  20.544   7.123 -0.2171  0.1942  0.1305
 1673PEP     CB63212   3.292  20.587   6.915  0.2520  0.3978  0.0839
 1673PEP     CB63213   2.815  20.573   6.736 -0.0005  0.0014  0.2566
 1673PEP     CB63214   2.449  20.242   6.639  0.0096 -0.3100 -0.1625
 1673PEP     CB63215   2.126  19.982   6.605 -0.1466 -0.1141 -0.4372
 1673PEP     CB63216   1.735  19.796   6.807  0.3756 -0.2497  0.1053
 1673PEP     CB63217   1.327  19.799   6.974 -0.1624  0.1992 -0.2302
 1673PEP     CB63218   1.286  19.404   7.274  0.1175 -0.1749 -0.1700
 1673PEP     CB63219   1.041  18.991   7.381  0.2577 -0.0566  0.1769
 1673PEP     CB63220   0.805  18.667   7.700 -0.1823 -0.2113 -0.0530
 1673PEP     CB63221   0.461  18.639   8.066 -0.0012 -0.2899  0.1843
 1673PEP     CB63222   0.122  18.588   8.298  0.0261  0.1710  0.3846
 1673PEP     CB63223  -0.061  18.597   8.677  0.1022  0.3670 -0.1614
 1673PEP     CB63224  -0.405  18.842   8.960  0.3593  0.1838 -0.1263
 1673PEP     CB63225  -0.621  19.105   9.250  0.1322  0.1126  0.1142
 1673PEP     CB63226  -0.932  19.275   9.617  0.2337 -0.2019 -0.1063
 1673PEP     CB63227  -0.911  19.454  10.027 -0.2295  0.2453  0.0663
 1673PEP     CB63228  -1.101  19.813  10.250 -0.1034 -0.2845  0.2814
 1673PEP     CB63229  -1.459  20.089  10.276 -0.1783 -0.2703  0.0244
 1673PEP     CB63230  -1.635  20.584  10.232  0.2390  0.0420 -0.1142
 1673PEP     CB63231  -1.692  20.795   9.812 -0.0928 -0.0344 -0.1685
 1673PEP     CB63232  -1.415  20.740   9.491 -0.0288 -0.0065  0.3008
 1673PEP     CB63233  -1.361  20.512   9.045  0.0042 -0.0413 -0.1379
 1673PEP     CB63234  -1.821  20.562   8.725  0.0745 -0.0469  0.1339
 1673PEP     CB63235  -2.263  20.725   8.869 -0.2137  0.2434  0.2303
 1673PEP     CB63236  -2.456  20.720   9.266 -0.1231 -0.4004 -0.5807
 1673PEP     CB63237  -2.163  20.768   9.616 -0.1635 -0.7586  0.6591
 1673PEP     CB63238  -2.040  20.494   9.962  0.1657 -0.1565  0.0676
 1673PEP     CB63239  -1.999  20.031  10.087  0.1654  0.3960 -0.2105
 1673PEP     CB63240  -1.769  19.678  10.343  0.2362  0.0166 -0.1341
 1674PEP     CB63241  19.200  15.254   2.049 -0.0806  0.2692 -0.0343
 1674PEP     CB63242  18.834  14.908   2.077 -0.5361  0.0172  0.1503
 1674PEP     CB63243  18.687  14.470   2.018  0.1541 -0.1419 -0.3503
 1674PEP     CB63244  18.873  14.110   1.873  0.0834 -0.2300  0.1979
 1674PEP     CB63245  18.986  13.779   1.695  0.0971  0.0795  0.2917
 1674PEP     CB63246  18.900  13.593   1.227 -0.0303 -0.1209  0.2210
 1674PEP     CB63247  18.818  13.218   0.933 -0.4086  0.2011 -0.2772
 1674PEP     CB63248  18.754  12.749   1.042 -0.0609 -0.3703  0.1216
 1674PEP     CB63249  18.827  12.655   1.429  0.2178 -0.1896 -0.2234
 1674PEP     CB63250  18.701  12.723   1.838 -0.2693  0.1061  0.1911
 1674PEP     CB63251  18.833  12.639   2.311  0.1359 -0.0325 -0.1933
 1674PEP     CB63252  19.227  12.521   2.551  0.2099 -0.1617  0.5073
 1674PEP     CB63253  19.516  12.399   2.849  0.0601  0.5342 -0.1939
 1674PEP     CB63254  19.956  12.395   2.954  0.3651  0.0075 -0.0078
 1674PEP     CB63255  20.300  12.483   2.746  0.3810  0.3951 -0.5559
 1674PEP     CB63256  20.237  12.875   2.570  0.0208  0.2306  0.0857
 1674PEP     CB63257  19.918  13.101   2.768  0.3644  0.2463 -0.6247
 1674PEP     CB63258  19.587  12.955   3.014  0.0010 -0.1805 -0.2506
 1674PEP     CB63259  19.098  13.005   3.037 -0.1130 -0.1553 -0.2752
 1674PEP     CB63260  18.699  12.755   2.803 -0.1027 -0.2191  0.0131
 1674PEP     CB63261  18.724  12.338   2.768  0.1085  0.0430 -0.3335
 1674PEP     CB63262  18.511  11.990   2.663  0.1131  0.1208 -0.0178
 1674PEP     CB63263  18.573  11.636   2.381 -0.0660 -0.0958 -0.1567
 1674PEP     CB63264  18.885  11.573   1.992 -0.3112 -0.0821 -0.1856
 1674PEP     CB63265  19.138  11.700   1.644  0.0341  0.0703 -0.4504
 1674PEP     CB63266  19.327  11.757   1.238  0.0685 -0.1797 -0.0430
 1674PEP     CB63267  19.436  11.913   0.859 -0.1231 -0.2187 -0.0802
 1674PEP     CB63268  19.581  12.125   0.472 -0.3088 -0.0384  0.0528
 1674PEP     CB63269  19.601  12.213   0.111 -0.1296 -0.6396  0.2172
 1674PEP     CB63270  19.607  12.435  -0.246 -0.1535  0.1625 -0.2814
 1674PEP     CB63271  19.783  12.680  -0.592  0.6532  0.3307 -0.1127
 1674PEP     CB63272  20.042  13.078  -0.809 -0.2462  0.0831 -0.1421
 1674PEP     CB63273  20.524  13.120  -0.936  0.1205  0.1371  0.1228
 1674PEP     CB63274  20.858  12.949  -0.581 -0.0736  0.2173 -0.2838
 1674PEP     CB63275  20.827  12.581  -0.398 -0.4229  0.3676  0.3022
 1674PEP     CB63276  20.722  12.344  -0.581  0.1596  0.3197 -0.1327
 1674PEP     CB63277  20.517  12.025  -0.762 -0.1540  0.2307  0.0604
 1674PEP     CB63278  20.248  11.725  -0.921 -0.1352 -0.3682  0.0944
 1674PEP     CB63279  20.099  11.333  -0.754  0.4141 -0.0753  0.1750
 1674PEP     CB63280  19.810  11.314  -0.430  0.4064 -0.2702 -0.2689
 1675PEP     CB63281  19.211  16.549  14.572  0.3273 -0.1317  0.0905
 1675PEP     CB63282  19.001  16.998  14.707  0.2474  0.2297 -0.0456
 1675PEP     CB63283  19.014  17.429  14.644  0.1145 -0.3628 -0.0117
 1675PEP     CB63284  18.855  17.877  14.756 -0.3375  0.0297 -0.0041
 1675PEP     CB63285  18.884  18.287  14.637 -0.0798 -0.4436 -0.4502
 1675PEP     CB63286  18.815  18.699  14.500 -0.0480  0.0387  0.1030
 1675PEP     CB63287  18.791  19.007  14.095 -0.1855 -0.1454  0.4323
 1675PEP     CB63288  18.962  19.065  13.617 -0.2578 -0.1552  0.0026
 1675PEP     CB63289  18.832  19.037  13.220  0.4069 -0.1486 -0.2423
 1675PEP     CB63290  18.621  18.675  13.074 -0.3506  0.0280 -0.0856
 1675PEP     CB63291  18.340  18.346  13.278 -0.0357 -0.2121 -0.2336
 1675PEP     CB63292  18.089  18.341  13.640  0.1747  0.1034 -0.0330
 1675PEP     CB63293  18.262  18.434  14.023  0.2583 -0.0215 -0.3360
 1675PEP     CB63294  18.780  18.370  14.149  0.1392  0.2108  0.1476
 1675PEP     CB63295  19.169  18.510  13.937  0.1169  0.0836  0.1769
 1675PEP     CB63296  19.366  18.820  13.549 -0.0322 -0.2827  0.0425
 1675PEP     CB63297  19.461  19.192  13.434  0.1620 -0.1413 -0.0607
 1675PEP     CB63298  19.212  19.472  13.129  0.2936  0.1390 -0.0336
 1675PEP     CB63299  18.767  19.526  12.945  0.2155  0.3487  0.1132
 1675PEP     CB63300  18.553  19.267  12.750 -0.1188 -0.2909  0.0346
 1675PEP     CB63301  18.701  18.881  12.603 -0.2080 -0.2168 -0.3229
 1675PEP     CB63302  19.038  18.641  12.720  0.1598 -0.5423 -0.1971
 1675PEP     CB63303  19.168  18.238  12.569  0.3089  0.2101 -0.0436
 1675PEP     CB63304  19.312  17.758  12.456 -0.0736  0.0261 -0.5486
 1675PEP     CB63305  19.414  17.359  12.397 -0.3577 -0.5098  0.1154
 1675PEP     CB63306  19.860  17.144  12.538 -0.2899 -0.4236 -0.0151
 1675PEP     CB63307  20.276  17.082  12.793  0.2404 -0.1110  0.1862
 1675PEP     CB63308  20.808  16.952  12.807 -0.0491 -0.2222 -0.0439
 1675PEP     CB63309  21.018  16.735  12.330  0.1211  0.1410  0.1520
 1675PEP     CB63310  20.910  16.822  11.915  0.1101 -0.0828  0.1956
 1675PEP     CB63311  20.928  17.279  11.893 -0.2947  0.1318  0.0452
 1675PEP     CB63312  21.256  17.583  12.066 -0.0566  0.0710 -0.1159
 1675PEP     CB63313  21.661  17.588  11.788 -0.0895 -0.1324 -0.0205
 1675PEP     CB63314  21.827  17.250  11.514 -0.0081 -0.0199 -0.3472
 1675PEP     CB63315  21.856  16.794  11.407  0.0056  0.2043 -0.1352
 1675PEP     CB63316  21.719  16.284  11.447 -0.1815 -0.1198 -0.0682
 1675PEP     CB63317  21.563  15.888  11.546  0.0538 -0.0400  0.1661
 1675PEP     CB63318  21.666  15.546  11.363  0.0636 -0.1231 -0.1039
 1675PEP     CB63319  21.746  15.593  10.910  0.3878 -0.5521  0.0026
 1675PEP     CB63320  21.784  16.033  10.731 -0.0783 -0.2975  0.2303
 1676PEP     CB63321  15.992   9.660   6.181  0.2498  0.0420 -0.5176
 1676PEP     CB63322  15.511   9.840   6.248  0.2617 -0.0860  0.3516
 1676PEP     CB63323  15.251  10.113   6.011 -0.2098  0.0033  0.2692
 1676PEP     CB63324  15.336  10.519   5.738 -0.0774 -0.0607  0.4052
 1676PEP     CB63325  15.161  10.829   5.327  0.0653 -0.2150 -0.5294
 1676PEP     CB63326  14.895  10.802   5.013 -0.2791  0.0038  0.1147
 1676PEP     CB63327  14.604  10.889   4.638  0.4812  0.5752  0.2411
 1676PEP     CB63328  14.191  10.801   4.484 -0.0159  0.0450 -0.1347
 1676PEP     CB63329  13.769  10.938   4.516 -0.0860 -0.2993  0.0415
 1676PEP     CB63330  13.594  11.175   4.808  0.2925  0.3242  0.6080
 1676PEP     CB63331  13.505  11.373   5.113 -0.3289  0.5802 -0.4709
 1676PEP     CB63332  13.394  11.374   5.534  0.3011  0.0316  0.4186
 1676PEP     CB63333  13.243  11.301   5.972 -0.0512 -0.2755 -0.1541
 1676PEP     CB63334  13.064  11.620   6.345 -0.0220  0.0312 -0.0909
 1676PEP     CB63335  13.019  12.073   6.494 -0.0272  0.2794  0.1466
 1676PEP     CB63336  12.940  12.486   6.393 -0.0588 -0.0305  0.1215
 1676PEP     CB63337  12.952  12.931   6.429  0.4690 -0.2774 -0.0445
 1676PEP     CB63338  13.081  13.345   6.565 -0.0099 -0.4100  0.2998
 1676PEP     CB63339  13.128  13.791   6.797 -0.0291  0.1376 -0.4525
 1676PEP     CB63340  13.252  14.137   7.018  0.1630 -0.0342  0.2545
 1676PEP     CB63341  13.322  14.463   7.249  0.2507 -0.3193  0.3019
 1676PEP     CB63342  13.512  14.748   7.556  0.0818  0.1138  0.2197
 1676PEP     CB63343  13.521  14.750   8.032 -0.2377 -0.3530 -0.2840
 1676PEP     CB63344  13.382  14.795   8.474 -0.1026 -0.1623 -0.2516
 1676PEP     CB63345  13.196  14.713   8.930 -0.1774  0.0131  0.0848
 1676PEP     CB63346  12.834  14.504   9.123 -0.4833  0.1485  0.1877
 1676PEP     CB63347  12.557  14.198   8.788 -0.1405 -0.3689  0.1207
 1676PEP     CB63348  12.518  14.136   8.373 -0.2255 -0.5594  0.0338
 1676PEP     CB63349  12.508  13.884   8.037 -0.2106  0.2652 -0.0344
 1676PEP     CB63350  12.149  13.557   7.934  0.0424 -0.2621  0.1082
 1676PEP     CB63351  11.741  13.433   7.943  0.0652 -0.0882  0.1303
 1676PEP     CB63352  11.356  13.287   7.722  0.2316  0.1195 -0.3633
 1676PEP     CB63353  11.028  13.215   7.452 -0.0420  0.0965 -0.3236
 1676PEP     CB63354  10.625  13.523   7.388  0.1507  0.5703 -0.1115
 1676PEP     CB63355  10.192  13.465   7.540 -0.4981  0.2270  0.2435
 1676PEP     CB63356  10.155  13.211   7.940  0.3224 -0.0983  0.1158
 1676PEP     CB63357  10.243  12.829   7.933  0.2815  0.1591 -0.3583
 1676PEP     CB63358  10.317  12.558   7.589 -0.3764 -0.0993 -0.3588
 1676PEP     CB63359  10.341  12.226   7.338  0.0522 -0.4441 -0.3191
 1676PEP     CB63360  10.254  11.966   7.032 -0.1423 -0.0652 -0.3720
 1677PEP     CB63361   0.897   2.465   2.892 -0.2315  0.0621  0.4781
 1677PEP     CB63362   0.992   2.825   2.617 -0.0016  0.2009  0.0023
 1677PEP     CB63363   0.796   3.052   2.188  0.1419  0.0042  0.1692
 1677PEP     CB63364   0.582   3.174   1.836  0.0702  0.2009  0.1779
 1677PEP     CB63365   0.490   3.096   1.373  0.2344  0.4607  0.0852
 1677PEP     CB63366   0.403   3.128   0.910  0.3620  0.0920 -0.0890
 1677PEP     CB63367   0.207   3.460   0.620 -0.1237  0.1892 -0.3503
 1677PEP     CB63368   0.080   3.884   0.721 -0.0582 -0.6925 -0.5560
 1677PEP     CB63369   0.315   4.179   1.024  0.7010  0.0176  0.2103
 1677PEP     CB63370   0.376   4.102   1.561  0.0266  0.1081 -0.3079
 1677PEP     CB63371   0.338   4.087   1.954 -0.1480 -0.4387 -0.1775
 1677PEP     CB63372   0.055   3.884   2.231  0.5569 -0.1148 -0.3860
 1677PEP     CB63373  -0.015   3.501   2.200  0.3095 -0.0936  0.2757
 1677PEP     CB63374   0.026   3.220   1.861  0.0786  0.1714 -0.2937
 1677PEP     CB63375  -0.013   3.280   1.407 -0.4778  0.3635  0.0824
 1677PEP     CB63376   0.076   3.635   1.115 -0.4106  0.2031 -0.2670
 1677PEP     CB63377  -0.109   3.957   1.223 -0.0274  0.2119  0.3394
 1677PEP     CB63378  -0.447   3.900   1.464 -0.2113  0.0372  0.1855
 1677PEP     CB63379  -0.519   3.532   1.522 -0.4421  0.1139  0.0531
 1677PEP     CB63380  -0.449   3.307   1.957  0.1417 -0.3978 -0.1817
 1677PEP     CB63381  -0.575   3.080   2.368  0.0503  0.0136 -0.3380
 1677PEP     CB63382  -0.828   2.726   2.612 -0.3103  0.0556  0.1057
 1677PEP     CB63383  -1.085   2.406   2.540 -0.0041  0.2138  0.3207
 1677PEP     CB63384  -1.277   2.128   2.254 -0.1334 -0.1702 -0.0738
 1677PEP     CB63385  -1.508   1.738   2.158 -0.0300 -0.0047  0.2919
 1677PEP     CB63386  -1.487   1.428   2.419 -0.3986 -0.0524 -0.2145
 1677PEP     CB63387  -1.555   1.443   2.893 -0.1702  0.4347 -0.3569
 1677PEP     CB63388  -1.484   1.332   3.352 -0.1295  0.2042 -0.0436
 1677PEP     CB63389  -1.384   1.176   3.707 -0.1215 -0.1704  0.2036
 1677PEP     CB63390  -1.360   1.091   4.139  0.0903  0.2983 -0.0236
 1677PEP     CB63391  -1.238   1.158   4.516  0.0452  0.3184 -0.0154
 1677PEP     CB63392  -1.096   1.170   4.872  0.1646 -0.1789 -0.2314
 1677PEP     CB63393  -1.157   1.345   5.247  0.1303  0.2046  0.0567
 1677PEP     CB63394  -1.355   1.158   5.498  0.4554  0.1345 -0.0434
 1677PEP     CB63395  -1.324   0.818   5.611 -0.0092 -0.1859  0.1151
 1677PEP     CB63396  -1.627   0.535   5.603  0.4120  0.3686 -0.0424
 1677PEP     CB63397  -1.821   0.238   5.784 -0.1994  0.3062 -0.2553
 1677PEP     CB63398  -2.180  -0.071   5.906 -0.1578 -0.0983  0.3759
 1677PEP     CB63399  -2.151  -0.565   5.869 -0.1384 -0.0283 -0.1959
 1677PEP     CB63400  -2.035  -0.997   5.963 -0.1325  0.3972 -0.0417
 1678PEP     CB63401   6.925   5.800  13.244 -0.1899  0.1478 -0.0482
 1678PEP     CB63402   6.806   5.974  13.595  0.0661  0.1061  0.1310
 1678PEP     CB63403   6.468   6.222  13.908  0.0151 -0.3796  0.1540
 1678PEP     CB63404   6.180   6.506  14.079 -0.1026 -0.2572 -0.1640
 1678PEP     CB63405   5.685   6.531  13.965  0.0573  0.0266 -0.3552
 1678PEP     CB63406   5.237   6.276  14.002  0.1746 -0.1359 -0.3724
 1678PEP     CB63407   4.969   5.917  14.094  0.1141  0.4171  0.1206
 1678PEP     CB63408   4.852   5.450  14.133 -0.2765 -0.3702  0.0982
 1678PEP     CB63409   5.023   5.030  14.148 -0.2294 -0.1092  0.1082
 1678PEP     CB63410   5.394   4.851  14.315 -0.0633 -0.2672 -0.3249
 1678PEP     CB63411   5.810   4.871  14.545  0.2785 -0.6795  0.1530
 1678PEP     CB63412   6.061   5.186  14.664 -0.0439  0.0333 -0.2235
 1678PEP     CB63413   5.913   5.545  14.870 -0.0305  0.4726 -0.0621
 1678PEP     CB63414   5.610   5.876  14.658  0.2003  0.0386  0.0080
 1678PEP     CB63415   5.459   5.925  14.260 -0.1768 -0.0135  0.1346
 1678PEP     CB63416   5.415   5.686  13.993  0.0171 -0.0656  0.0881
 1678PEP     CB63417   5.503   5.208  13.969  0.0069 -0.2116  0.1171
 1678PEP     CB63418   5.779   4.898  14.089 -0.0719  0.1487 -0.1200
 1678PEP     CB63419   6.212   4.785  14.207 -0.0512  0.2004 -0.1216
 1678PEP     CB63420   6.608   4.658  14.487  0.0696  0.0588  0.1444
 1678PEP     CB63421   6.967   4.803  14.696 -0.0826 -0.3652  0.2459
 1678PEP     CB63422   7.248   4.624  14.992  0.0943 -0.2095 -0.0195
 1678PEP     CB63423   7.626   4.608  15.196  0.5994  0.0519 -0.2946
 1678PEP     CB63424   8.028   4.425  15.205  0.0785  0.2064  0.1268
 1678PEP     CB63425   8.335   4.210  14.933  0.0973  0.3038  0.1395
 1678PEP     CB63426   8.699   4.077  14.780  0.6410  0.3528  0.1103
 1678PEP     CB63427   9.140   4.300  14.800 -0.0662  0.3071  0.0459
 1678PEP     CB63428   9.101   4.748  14.821 -0.0537  0.3479  0.1935
 1678PEP     CB63429   8.662   5.080  15.033  0.2527 -0.0414  0.0467
 1678PEP     CB63430   8.616   5.364  15.393  0.3673  0.0406  0.4086
 1678PEP     CB63431   8.543   5.510  15.765  0.1563 -0.1490 -0.2509
 1678PEP     CB63432   8.170   5.475  16.001 -0.3564 -0.0554 -0.2635
 1678PEP     CB63433   7.791   5.632  16.198  0.1653  0.1072 -0.1131
 1678PEP     CB63434   7.442   5.453  16.508  0.0904  0.5580 -0.1296
 1678PEP     CB63435   7.425   5.247  16.852  0.0802 -0.1011  0.6117
 1678PEP     CB63436   7.763   5.233  17.053  0.1315  0.2621  0.1086
 1678PEP     CB63437   8.196   5.360  17.079  0.5116  0.3272  0.0774
 1678PEP     CB63438   8.527   5.621  16.932  0.1359  0.0343 -0.0023
 1678PEP     CB63439   8.535   6.026  16.780  0.1690 -0.0885  0.3525
 1678PEP     CB63440   8.387   6.417  16.748  0.3607  0.2122  0.1347
 1679PEP     CB63441  15.316  18.866  11.763 -0.1009  0.0768  0.0873
 1679PEP     CB63442  15.302  18.649  11.381 -0.1579 -0.3060 -0.0540
 1679PEP     CB63443  15.368  18.700  10.914  0.3871 -0.3124 -0.1666
 1679PEP     CB63444  15.771  18.657  10.768 -0.0960 -0.1427 -0.0986
 1679PEP     CB63445  16.197  18.671  11.019 -0.0403 -0.1259 -0.4864
 1679PEP     CB63446  16.526  18.380  11.088 -0.0154 -0.4601 -0.2677
 1679PEP     CB63447  16.605  17.987  11.315  0.0394 -0.1248 -0.0593
 1679PEP     CB63448  16.429  17.828  11.679 -0.2446 -0.1939  0.0561
 1679PEP     CB63449  16.316  17.453  11.697  0.1193 -0.1404 -0.1781
 1679PEP     CB63450  16.135  17.158  11.393  0.3284 -0.4931 -0.0227
 1679PEP     CB63451  16.248  16.900  11.114  0.4066 -0.0000  0.1717
 1679PEP     CB63452  16.559  16.816  10.740  0.3702 -0.1311  0.3044
 1679PEP     CB63453  17.009  17.074  10.567  0.1248  0.0886  0.0517
 1679PEP     CB63454  17.362  17.238  10.402 -0.1126  0.2111  0.2542
 1679PEP     CB63455  17.760  17.326  10.533  0.2403 -0.4497  0.0486
 1679PEP     CB63456  18.138  17.238  10.560  0.0950 -0.2895  0.2977
 1679PEP     CB63457  18.596  17.103  10.633  0.0469  0.0788 -0.1916
 1679PEP     CB63458  18.914  16.750  10.583  0.1814 -0.0418  0.1660
 1679PEP     CB63459  19.112  16.486  10.466 -0.1236  0.3218  0.5340
 1679PEP     CB63460  18.958  15.975  10.523 -0.1179 -0.1604  0.1427
 1679PEP     CB63461  18.703  15.700  10.353 -0.1635  0.1096 -0.1959
 1679PEP     CB63462  18.209  15.689  10.209  0.0713 -0.2656 -0.1956
 1679PEP     CB63463  17.885  15.974   9.972 -0.1807  0.4433 -0.1008
 1679PEP     CB63464  17.524  15.971   9.633 -0.0544 -0.0135 -0.2792
 1679PEP     CB63465  17.275  15.711   9.442  0.0753  0.1732  0.0185
 1679PEP     CB63466  17.039  15.622   9.084  0.0027 -0.1639 -0.2265
 1679PEP     CB63467  16.710  15.418   8.989 -0.2444  0.3127  0.0656
 1679PEP     CB63468  16.521  15.055   8.893  0.2845 -0.0186 -0.1072
 1679PEP     CB63469  16.577  14.573   8.953  0.2677 -0.0771 -0.1059
 1679PEP     CB63470  16.804  14.164   8.745 -0.0534 -0.1946 -0.1070
 1679PEP     CB63471  17.065  13.827   8.567 -0.3860 -0.1732 -0.0759
 1679PEP     CB63472  17.403  13.546   8.652  0.0653 -0.4234  0.1437
 1679PEP     CB63473  17.620  13.244   8.722  0.5655 -0.2976  0.3728
 1679PEP     CB63474  17.744  12.795   8.802  0.2939  0.0500  0.0532
 1679PEP     CB63475  18.044  12.545   8.833  0.2264  0.3120 -0.0761
 1679PEP     CB63476  18.595  12.681   8.689  0.0939  0.1271 -0.0974
 1679PEP     CB63477  18.806  13.019   8.506 -0.0357  0.0137  0.0886
 1679PEP     CB63478  18.584  13.275   8.192  0.1390  0.2576  0.1007
 1679PEP     CB63479  18.532  13.621   8.025  0.1724  0.0299 -0.0933
 1679PEP     CB63480  18.504  13.970   7.790  0.1482  0.1216  0.3798
 1680PEP     CB63481   3.802  19.953   0.772 -0.0228 -0.1044  0.1537
 1680PEP     CB63482   3.437  20.002   0.749  0.0963  0.1294 -0.1964
 1680PEP     CB63483   3.070  20.195   0.413 -0.2844  0.2516 -0.3055
 1680PEP     CB63484   2.863  20.040   0.064 -0.4027 -0.2487  0.0719
 1680PEP     CB63485   2.564  19.811  -0.338 -0.1576  0.0486  0.0343
 1680PEP     CB63486   2.329  19.926  -0.718  0.2587  0.2145  0.0096
 1680PEP     CB63487   2.101  19.718  -1.078  0.1382  0.2407 -0.4498
 1680PEP     CB63488   1.729  19.829  -1.309  0.1026 -0.0907 -0.3683
 1680PEP     CB63489   1.668  19.955  -1.683  0.1168 -0.2756 -0.0969
 1680PEP     CB63490   1.992  20.176  -1.954 -0.2794 -0.3732 -0.0367
 1680PEP     CB63491   2.440  20.153  -2.185  0.4695  0.2369 -0.1712
 1680PEP     CB63492   2.878  20.120  -2.395  0.1801 -0.1324 -0.0111
 1680PEP     CB63493   3.237  19.984  -2.606 -0.0959 -0.2915  0.1543
 1680PEP     CB63494   3.597  20.061  -2.290  0.1365 -0.3272  0.2544
 1680PEP     CB63495   3.544  20.312  -1.926  0.3514  0.1534 -0.1637
 1680PEP     CB63496   3.182  20.383  -1.703 -0.4567  0.3274  0.4755
 1680PEP     CB63497   2.749  20.040  -1.703 -0.0300 -0.1177 -0.1700
 1680PEP     CB63498   2.679  19.770  -2.052 -0.2657 -0.2772  0.0801
 1680PEP     CB63499   3.025  19.623  -2.283 -0.1472  0.0636  0.0011
 1680PEP     CB63500   3.373  19.709  -2.092 -0.0643 -0.1489  0.0067
 1680PEP     CB63501   3.370  19.839  -1.592  0.0292 -0.2034 -0.0874
 1680PEP     CB63502   3.610  20.197  -1.402 -0.0417 -0.1141  0.2564
 1680PEP     CB63503   3.871  20.546  -1.615 -0.4515 -0.1600 -0.1081
 1680PEP     CB63504   3.980  20.507  -2.118  0.1747 -0.2000 -0.2277
 1680PEP     CB63505   4.122  20.165  -2.322 -0.0647  0.0008 -0.2035
 1680PEP     CB63506   4.262  19.788  -2.224 -0.0518  0.3614  0.1749
 1680PEP     CB63507   4.304  19.637  -1.676 -0.1956  0.1772 -0.2704
 1680PEP     CB63508   4.142  19.791  -1.340  0.1517  0.1414  0.1133
 1680PEP     CB63509   4.159  20.257  -1.205  0.1375  0.0572  0.3404
 1680PEP     CB63510   3.841  20.555  -1.091 -0.2185 -0.2441  0.1188
 1680PEP     CB63511   3.438  20.751  -0.902 -0.2165  0.0089 -0.0655
 1680PEP     CB63512   3.033  20.856  -0.948  0.0045 -0.2608 -0.0160
 1680PEP     CB63513   2.667  21.050  -0.740  0.0705  0.2499  0.3163
 1680PEP     CB63514   2.442  21.192  -0.386  0.0154  0.2300  0.2390
 1680PEP     CB63515   2.399  21.015   0.025  0.1901  0.1519 -0.2782
 1680PEP     CB63516   2.203  20.601  -0.046 -0.0880 -0.1613 -0.2385
 1680PEP     CB63517   2.354  20.276  -0.403  0.0145  0.1914 -0.0512
 1680PEP     CB63518   2.743  20.195  -0.645  0.1269 -0.4029 -0.0609
 1680PEP     CB63519   3.149  20.392  -0.682  0.1201  0.3302  0.3094
 1680PEP     CB63520   3.387  20.621  -0.462  0.0770  0.2058 -0.1248
 1681PEP     CB63521  19.965   9.764  21.178 -0.0681 -0.3108 -0.2056
 1681PEP     CB63522  20.153  10.115  20.849 -0.0761  0.1386  0.2926
 1681PEP     CB63523  20.077  10.568  20.754 -0.2265  0.2382  0.3697
 1681PEP     CB63524  20.127  10.936  20.885  0.1155  0.3036  0.3432
 1681PEP     CB63525  19.972  11.259  20.820  0.3239  0.2502  0.1441
 1681PEP     CB63526  19.865  11.714  20.673  0.0216  0.2780  0.0595
 1681PEP     CB63527  19.991  11.932  20.238 -0.0610 -0.0875  0.2999
 1681PEP     CB63528  20.173  12.177  19.931  0.0289  0.3136  0.2668
 1681PEP     CB63529  20.597  12.322  19.875  0.1243  0.1350  0.0480
 1681PEP     CB63530  21.026  12.173  19.810 -0.2739 -0.2179 -0.1666
 1681PEP     CB63531  21.410  12.334  19.669 -0.5950  0.2847  0.1389
 1681PEP     CB63532  21.889  12.300  19.576  0.0853  0.4536  0.1467
 1681PEP     CB63533  22.263  12.402  19.309 -0.1191 -0.0871  0.1484
 1681PEP     CB63534  22.660  12.345  19.461  0.1451 -0.1208 -0.0919
 1681PEP     CB63535  22.929  12.443  19.719  0.3695 -0.0573  0.4968
 1681PEP     CB63536  23.289  12.603  19.842 -0.0447  0.2999 -0.0648
 1681PEP     CB63537  23.608  12.453  19.828  0.3425  0.0059 -0.2394
 1681PEP     CB63538  24.058  12.398  19.947 -0.4780  0.2189 -0.0864
 1681PEP     CB63539  24.433  12.488  19.855 -0.5619 -0.3244  0.0954
 1681PEP     CB63540  24.880  12.371  19.679  0.1313 -0.3019  0.1728
 1681PEP     CB63541  25.320  12.552  19.558  0.1312 -0.0891 -0.2128
 1681PEP     CB63542  25.511  12.824  19.405  0.2435 -0.4378 -0.2370
 1681PEP     CB63543  25.557  13.102  19.004 -0.0926 -0.2837  0.2069
 1681PEP     CB63544  25.511  13.082  18.585 -0.1827 -0.0149 -0.2030
 1681PEP     CB63545  25.265  12.997  18.181  0.0769  0.0944  0.0815
 1681PEP     CB63546  25.465  13.148  17.800  0.0515 -0.0072 -0.1123
 1681PEP     CB63547  25.843  13.373  18.012  0.0450  0.2105 -0.2295
 1681PEP     CB63548  26.015  13.252  18.365 -0.1521 -0.3481  0.0798
 1681PEP     CB63549  26.027  13.251  18.787  0.1032 -0.0714  0.2567
 1681PEP     CB63550  25.994  13.626  18.974  0.2933 -0.1429 -0.3753
 1681PEP     CB63551  26.284  13.925  18.954 -0.0704 -0.3196  0.1563
 1681PEP     CB63552  26.604  13.988  18.620  0.1049 -0.1356  0.1408
 1681PEP     CB63553  26.863  13.794  18.336  0.1082 -0.3111 -0.0911
 1681PEP     CB63554  27.019  13.983  18.021 -0.1507 -0.1607 -0.3766
 1681PEP     CB63555  26.812  14.305  17.725 -0.1517  0.1165 -0.2259
 1681PEP     CB63556  26.436  14.525  17.393  0.2471 -0.1752 -0.4488
 1681PEP     CB63557  26.107  14.703  17.286 -0.1367 -0.0264  0.0436
 1681PEP     CB63558  25.786  14.841  16.972 -0.2425 -0.5994 -0.3880
 1681PEP     CB63559  25.552  14.821  16.528 -0.1246  0.1360  0.1303
 1681PEP     CB63560  25.324  14.549  16.225 -0.1789 -0.1214  0.1582
 1682PEP     CB63561   8.309   2.417  20.686  0.0215  0.1551  0.1346
 1682PEP     CB63562   7.940   2.340  20.814 -0.4787  0.1315  0.1575
 1682PEP     CB63563   7.622   2.053  20.688  0.0281 -0.3180  0.0112
 1682PEP     CB63564   7.169   2.147  20.649  0.0449  0.0530  0.0112
 1682PEP     CB63565   6.967   2.515  20.612 -0.3633  0.0525 -0.0869
 1682PEP     CB63566   6.992   2.795  20.929  0.1699 -0.5843 -0.1809
 1682PEP     CB63567   7.158   2.921  21.398  0.3280  0.0446 -0.1282
 1682PEP     CB63568   7.206   2.820  21.807 -0.3052  0.0792 -0.0369
 1682PEP     CB63569   7.018   2.741  22.132 -0.2419 -0.4789  0.0044
 1682PEP     CB63570   6.886   3.073  22.416  0.3954 -0.1750  0.1538
 1682PEP     CB63571   6.991   3.526  22.410 -0.1003 -0.5119 -0.3654
 1682PEP     CB63572   7.210   3.831  22.154  0.1298  0.3093 -0.0407
 1682PEP     CB63573   7.621   3.969  21.881 -0.5992  0.1822  0.2931
 1682PEP     CB63574   7.615   3.808  21.486  0.1396 -0.2303 -0.2037
 1682PEP     CB63575   7.244   3.725  21.206  0.1309  0.1280  0.3622
 1682PEP     CB63576   6.833   3.465  21.153  0.0579  0.0873 -0.1305
 1682PEP     CB63577   6.628   3.012  21.182  0.2347 -0.3534 -0.3365
 1682PEP     CB63578   6.528   2.613  20.950 -0.2196 -0.0782 -0.1099
 1682PEP     CB63579   6.416   2.146  20.688  0.1169 -0.1869 -0.3445
 1682PEP     CB63580   6.605   1.832  20.487 -0.4440 -0.2863 -0.0063
 1682PEP     CB63581   6.700   1.484  20.228 -0.0741 -0.1542 -0.0829
 1682PEP     CB63582   6.868   1.068  20.104  0.0406 -0.1488 -0.2357
 1682PEP     CB63583   7.142   0.816  19.854  0.2860  0.0606  0.0817
 1682PEP     CB63584   7.232   0.753  19.448  0.0816 -0.0281  0.1388
 1682PEP     CB63585   7.459   0.653  19.128 -0.1140  0.1563  0.2267
 1682PEP     CB63586   7.427   0.625  18.703 -0.5127  0.0223 -0.2694
 1682PEP     CB63587   7.492   0.661  18.293  0.1151  0.0145 -0.4560
 1682PEP     CB63588   7.607   0.914  17.933  0.0280  0.1155 -0.4219
 1682PEP     CB63589   7.735   1.103  17.521 -0.5686  0.2503 -0.0211
 1682PEP     CB63590   8.013   1.130  17.162 -0.2134  0.0752 -0.2744
 1682PEP     CB63591   8.312   1.304  16.785  0.0446  0.2928  0.0318
 1682PEP     CB63592   8.332   1.605  16.461 -0.0787 -0.1963 -0.0327
 1682PEP     CB63593   8.352   1.932  16.299 -0.0810  0.1090 -0.2614
 1682PEP     CB63594   8.338   2.100  15.871 -0.0074  0.0629 -0.0551
 1682PEP     CB63595   8.193   2.042  15.539 -0.2037 -0.1375  0.3322
 1682PEP     CB63596   7.709   1.882  15.379 -0.3108 -0.2185  0.0773
 1682PEP     CB63597   7.501   1.462  15.206  0.2398 -0.4425  0.2110
 1682PEP     CB63598   7.631   1.128  15.039  0.0409 -0.0015 -0.3418
 1682PEP     CB63599   7.982   0.869  14.897 -0.3409 -0.0793 -0.1450
 1682PEP     CB63600   8.493   0.656  14.922  0.0926  0.0306  0.1884
 1683PEP     CB63601  12.253   2.768   7.429  0.0311 -0.2274  0.0841
 1683PEP     CB63602  12.138   3.131   7.743 -0.1150  0.2658 -0.2791
 1683PEP     CB63603  12.364   3.421   8.017 -0.1766 -0.5844  0.2060
 1683PEP     CB63604  12.639   3.642   8.289  0.2555  0.1470  0.3609
 1683PEP     CB63605  12.891   3.855   8.611  0.0414  0.1140  0.3006
 1683PEP     CB63606  13.133   3.809   9.002  0.2100  0.0224 -0.2223
 1683PEP     CB63607  13.053   3.606   9.395 -0.2229  0.1650 -0.0405
 1683PEP     CB63608  13.046   3.248   9.501 -0.0645 -0.2299 -0.0988
 1683PEP     CB63609  13.136   2.731   9.674  0.2896 -0.1660 -0.4281
 1683PEP     CB63610  13.096   2.168   9.668 -0.0467  0.2672  0.3225
 1683PEP     CB63611  13.251   1.680   9.808  0.1536  0.1524 -0.1913
 1683PEP     CB63612  13.622   1.407   9.903  0.2003 -0.3667  0.2331
 1683PEP     CB63613  13.901   1.109  10.099  0.4387 -0.0613  0.0540
 1683PEP     CB63614  14.080   0.719  10.208 -0.2817  0.1588  0.0677
 1683PEP     CB63615  14.283   0.244  10.063 -0.1296 -0.1719  0.1727
 1683PEP     CB63616  14.189  -0.223  10.055 -0.2750 -0.0459  0.0266
 1683PEP     CB63617  13.829  -0.426   9.844 -0.1732 -0.3234 -0.0283
 1683PEP     CB63618  13.742  -0.482   9.404  0.1891  0.3822  0.2255
 1683PEP     CB63619  13.948  -0.596   9.103  0.2925 -0.0650  0.1115
 1683PEP     CB63620  14.151  -0.647   8.700  0.1629  0.1410  0.0585
 1683PEP     CB63621  14.225  -0.538   8.291  0.2596 -0.0122 -0.1147
 1683PEP     CB63622  14.466  -0.652   7.931  0.4541  0.0280  0.1945
 1683PEP     CB63623  14.891  -0.780   7.789 -0.0045  0.1296 -0.4431
 1683PEP     CB63624  15.192  -1.108   7.899  0.0379 -0.0072  0.0056
 1683PEP     CB63625  15.357  -1.532   8.091  0.2812 -0.3103  0.3035
 1683PEP     CB63626  15.169  -1.837   8.232 -0.1250  0.1217  0.2730
 1683PEP     CB63627  15.235  -2.268   8.120 -0.1536 -0.1992 -0.0281
 1683PEP     CB63628  15.476  -2.599   8.232  0.2931  0.5632  0.0475
 1683PEP     CB63629  15.888  -2.678   8.436 -0.3363  0.4444 -0.1566
 1683PEP     CB63630  16.092  -2.487   8.734  0.3385  0.1133 -0.1991
 1683PEP     CB63631  16.159  -2.130   8.957  0.0405  0.1325 -0.3044
 1683PEP     CB63632  16.168  -1.907   9.273  0.0721 -0.2019 -0.0026
 1683PEP     CB63633  16.064  -1.510   9.489 -0.1732 -0.0078 -0.2550
 1683PEP     CB63634  15.690  -1.431   9.806  0.0180 -0.3035 -0.0777
 1683PEP     CB63635  15.443  -1.849  10.056  0.0082  0.0719  0.2294
 1683PEP     CB63636  15.655  -2.275   9.956  0.0306 -0.2593 -0.0941
 1683PEP     CB63637  15.991  -2.567   9.829 -0.1157  0.3497  0.1092
 1683PEP     CB63638  16.127  -2.832   9.708  0.0706  0.0470  0.1578
 1683PEP     CB63639  16.278  -3.106   9.381  0.4803 -0.1955  0.4255
 1683PEP     CB63640  16.272  -3.527   9.208  0.0318 -0.2301  0.2583
 1684PEP     CB63641  11.503  10.711   2.204  0.2696  0.0816 -0.1760
 1684PEP     CB63642  11.683  10.586   1.746  0.0152  0.1174 -0.3486
 1684PEP     CB63643  11.598  10.775   1.225 -0.1809  0.0009  0.1004
 1684PEP     CB63644  11.470  10.858   0.874  0.2627  0.0363 -0.1719
 1684PEP     CB63645  11.238  10.763   0.562 -0.1018  0.1800  0.2321
 1684PEP     CB63646  11.246  10.484   0.199 -0.0469  0.0046 -0.2272
 1684PEP     CB63647  11.504  10.113   0.229  0.1521 -0.1626 -0.0979
 1684PEP     CB63648  11.787   9.934  -0.080  0.1029 -0.0442  0.1133
 1684PEP     CB63649  12.047  10.038  -0.411 -0.3085  0.0503  0.1736
 1684PEP     CB63650  12.156  10.317  -0.743  0.0521  0.3115 -0.1945
 1684PEP     CB63651  12.278  10.742  -0.854  0.1188  0.3175  0.0826
 1684PEP     CB63652  12.127  11.145  -0.806 -0.2848  0.1547  0.0565
 1684PEP     CB63653  11.762  11.477  -0.953 -0.2921  0.1166  0.1535
 1684PEP     CB63654  11.467  11.822  -0.918 -0.2473 -0.1382  0.1389
 1684PEP     CB63655  11.278  12.203  -0.812  0.1685  0.0661 -0.5274
 1684PEP     CB63656  11.184  12.631  -0.778  0.0060  0.2358  0.1994
 1684PEP     CB63657  10.941  12.934  -0.472 -0.2292  0.4153  0.2417
 1684PEP     CB63658  10.878  13.361  -0.588 -0.3316 -0.1118 -0.1393
 1684PEP     CB63659  11.075  13.561  -0.880 -0.0432  0.0376 -0.0759
 1684PEP     CB63660  11.228  13.751  -1.255  0.0532 -0.3927 -0.0217
 1684PEP     CB63661  11.264  13.598  -1.726  0.2369 -0.0073 -0.0489
 1684PEP     CB63662  11.408  13.307  -2.104 -0.2551  0.4788  0.3375
 1684PEP     CB63663  11.624  13.240  -2.480 -0.2729  0.2466  0.3045
 1684PEP     CB63664  11.604  13.279  -2.910  0.1212  0.2866  0.1198
 1684PEP     CB63665  11.534  13.525  -3.312 -0.1465  0.4756  0.1395
 1684PEP     CB63666  11.523  13.719  -3.703  0.0170  0.1140  0.5099
 1684PEP     CB63667  11.465  13.932  -4.101  0.3176  0.0988 -0.0808
 1684PEP     CB63668  11.247  14.085  -4.466 -0.0592 -0.1612  0.4109
 1684PEP     CB63669  10.948  14.407  -4.600 -0.2673  0.1664  0.1871
 1684PEP     CB63670  10.697  14.537  -4.941 -0.1676  0.2251 -0.0403
 1684PEP     CB63671  10.305  14.458  -5.070  0.0005 -0.3770 -0.0040
 1684PEP     CB63672  10.080  14.151  -4.892 -0.0477  0.1744  0.0934
 1684PEP     CB63673  10.326  13.908  -4.528  0.2606 -0.1381  0.1017
 1684PEP     CB63674  10.730  13.769  -4.391 -0.4671 -0.1401 -0.0133
 1684PEP     CB63675  11.043  13.685  -4.053 -0.4155  0.0681  0.0089
 1684PEP     CB63676  10.976  13.431  -3.710 -0.0229 -0.2962 -0.1138
 1684PEP     CB63677  10.563  13.490  -3.473  0.1359 -0.1098 -0.2520
 1684PEP     CB63678  10.259  13.778  -3.636  0.1675  0.0636 -0.4524
 1684PEP     CB63679  10.181  14.040  -4.028 -0.2955  0.0569  0.0818
 1684PEP     CB63680  10.150  14.443  -4.220 -0.1190 -0.0794 -0.3110
 1685PEP     CB63681   2.790   0.704  14.990  0.3739  0.0285  0.2583
 1685PEP     CB63682   2.567   0.917  14.638 -0.2021  0.0835  0.1993
 1685PEP     CB63683   2.605   1.360  14.475 -0.1409 -0.5019 -0.2325
 1685PEP     CB63684   2.544   1.486  14.042  0.0792  0.0360 -0.0378
 1685PEP     CB63685   2.650   1.301  13.670  0.0474  0.1154 -0.0710
 1685PEP     CB63686   3.001   0.980  13.574 -0.0855  0.0508  0.1498
 1685PEP     CB63687   3.399   0.842  13.571 -0.0692  0.3253  0.0482
 1685PEP     CB63688   3.739   0.563  13.730  0.1416  0.3980 -0.0282
 1685PEP     CB63689   3.767   0.133  13.598 -0.2992 -0.2860  0.0323
 1685PEP     CB63690   3.472  -0.258  13.462 -0.3578  0.1279  0.2555
 1685PEP     CB63691   3.345  -0.402  13.098 -0.0868  0.1115  0.3518
 1685PEP     CB63692   3.566  -0.594  12.772 -0.0551 -0.0937  0.1424
 1685PEP     CB63693   4.045  -0.752  12.797  0.0455 -0.0813  0.1658
 1685PEP     CB63694   4.394  -0.728  13.170  0.0268 -0.3270 -0.2600
 1685PEP     CB63695   4.573  -0.909  13.552  0.3451 -0.0626 -0.5227
 1685PEP     CB63696   4.549  -0.899  13.986  0.1162 -0.1003  0.0832
 1685PEP     CB63697   4.615  -0.735  14.387 -0.0945 -0.1216  0.2905
 1685PEP     CB63698   4.426  -0.381  14.462  0.5711 -0.0322  0.1111
 1685PEP     CB63699   3.979  -0.176  14.535  0.1371  0.5120 -0.3134
 1685PEP     CB63700   3.475  -0.139  14.582  0.0113  0.2501 -0.2547
 1685PEP     CB63701   3.036  -0.031  14.401  0.1471  0.1677 -0.1555
 1685PEP     CB63702   2.618   0.178  14.443  0.0235 -0.1109  0.1527
 1685PEP     CB63703   2.419   0.492  14.640  0.1385 -0.3633 -0.1314
 1685PEP     CB63704   2.154   0.701  14.927 -0.1299  0.1669 -0.1647
 1685PEP     CB63705   1.922   0.963  15.090  0.1215 -0.0500 -0.2746
 1685PEP     CB63706   1.731   1.178  15.358 -0.2128 -0.1426  0.0120
 1685PEP     CB63707   1.689   1.225  15.737  0.0491  0.4625 -0.2795
 1685PEP     CB63708   1.759   1.206  16.144 -0.0324  0.2167 -0.3075
 1685PEP     CB63709   1.916   1.350  16.602 -0.2011 -0.0169  0.0328
 1685PEP     CB63710   2.142   1.723  16.720 -0.1255 -0.2796  0.2350
 1685PEP     CB63711   2.193   2.139  16.541 -0.1127 -0.1018  0.1838
 1685PEP     CB63712   2.358   2.398  16.134  0.5133 -0.0832 -0.0555
 1685PEP     CB63713   2.489   2.213  15.781 -0.0215 -0.2284  0.5631
 1685PEP     CB63714   2.339   1.871  15.694  0.1339  0.6239 -0.2606
 1685PEP     CB63715   1.904   1.655  15.892 -0.1512  0.1070 -0.1579
 1685PEP     CB63716   1.507   1.697  15.934 -0.0181  0.3216  0.1839
 1685PEP     CB63717   1.167   1.388  15.763 -0.1347  0.2339 -0.0527
 1685PEP     CB63718   1.212   1.112  15.428  0.1151  0.1878  0.3491
 1685PEP     CB63719   1.411   1.058  15.032 -0.1024  0.1795  0.3476
 1685PEP     CB63720   1.475   1.073  14.610  0.1647 -0.2642 -0.1861
 1686PEP     CB63721   2.175   2.000  19.308  0.0121  0.0106  0.1508
 1686PEP     CB63722   2.559   2.029  19.570  0.2252  0.0249  0.3234
 1686PEP     CB63723   3.033   1.808  19.584 -0.2054  0.1019 -0.0147
 1686PEP     CB63724   2.959   1.312  19.582 -0.0882 -0.1947  0.0715
 1686PEP     CB63725   2.670   1.015  19.464  0.3411  0.0610 -0.2215
 1686PEP     CB63726   2.413   1.078  19.156  0.1510  0.1633  0.1104
 1686PEP     CB63727   2.087   1.112  18.806  0.0767 -0.0382  0.1118
 1686PEP     CB63728   1.715   1.353  18.582 -0.0208  0.3791 -0.1401
 1686PEP     CB63729   1.262   1.336  18.513 -0.3736  0.0662  0.1306
 1686PEP     CB63730   0.848   1.125  18.706 -0.1424 -0.0406  0.2060
 1686PEP     CB63731   0.415   1.089  18.803  0.0301  0.1207  0.0360
 1686PEP     CB63732   0.128   0.950  19.134 -0.0489 -0.1139  0.0934
 1686PEP     CB63733  -0.139   0.672  19.281 -0.0888  0.3747 -0.1222
 1686PEP     CB63734  -0.512   0.319  19.202 -0.0243  0.2199  0.0470
 1686PEP     CB63735  -0.462  -0.103  19.345 -0.2474 -0.1866 -0.0403
 1686PEP     CB63736  -0.080  -0.258  19.580 -0.1477 -0.0113 -0.1942
 1686PEP     CB63737   0.170  -0.480  19.753 -0.4852 -0.0716 -0.0653
 1686PEP     CB63738   0.470  -0.674  20.019  0.2281 -0.1813  0.0678
 1686PEP     CB63739   0.807  -1.095  20.057  0.2054 -0.1913 -0.1965
 1686PEP     CB63740   0.838  -1.502  19.844 -0.1251  0.2000  0.1564
 1686PEP     CB63741   0.680  -1.730  19.545 -0.1403  0.0086  0.1185
 1686PEP     CB63742   0.406  -1.960  19.284 -0.2626  0.0849 -0.3399
 1686PEP     CB63743   0.372  -1.889  18.849  0.0528  0.1549 -0.3150
 1686PEP     CB63744   0.703  -1.713  18.633  0.1383  0.0871  0.5904
 1686PEP     CB63745   0.742  -1.410  18.292 -0.4036 -0.3737 -0.2794
 1686PEP     CB63746   0.370  -1.323  18.007  0.4945  0.0388  0.3401
 1686PEP     CB63747   0.016  -1.720  17.924 -0.4728  0.2965 -0.0217
 1686PEP     CB63748  -0.016  -2.054  17.728 -0.2634 -0.3946  0.1127
 1686PEP     CB63749  -0.172  -2.283  17.339  0.2130 -0.1535 -0.2126
 1686PEP     CB63750  -0.357  -2.180  16.969  0.3097  0.3947  0.0974
 1686PEP     CB63751  -0.501  -1.894  16.627 -0.3440  0.0132  0.0913
 1686PEP     CB63752  -0.619  -1.730  16.232  0.1206 -0.0487 -0.0832
 1686PEP     CB63753  -0.625  -1.901  15.896  0.3529 -0.2226  0.1118
 1686PEP     CB63754  -0.676  -1.824  15.557  0.2010  0.1427 -0.0951
 1686PEP     CB63755  -1.087  -1.665  15.421 -0.3494 -0.1676 -0.1186
 1686PEP     CB63756  -1.311  -1.581  15.728 -0.2236 -0.0038  0.3300
 1686PEP     CB63757  -1.726  -1.739  15.936  0.0383 -0.1642  0.4478
 1686PEP     CB63758  -2.007  -1.899  16.118 -0.0494  0.1380  0.0834
 1686PEP     CB63759  -2.142  -2.290  16.312  0.0868 -0.1136  0.1460
 1686PEP     CB63760  -2.175  -2.818  16.353  0.0573  0.0547 -0.1629
 1687PEP     CB63761   6.268   7.935   7.232 -0.0657 -0.0660 -0.0330
 1687PEP     CB63762   5.907   8.151   7.023  0.2870 -0.0002  0.1444
 1687PEP     CB63763   5.663   8.259   6.753  0.0813  0.2526 -0.0159
 1687PEP     CB63764   5.475   8.182   6.314  0.0029 -0.1401 -0.1328
 1687PEP     CB63765   5.266   8.476   5.993 -0.0741  0.4030  0.0123
 1687PEP     CB63766   5.124   8.814   5.862  0.1808 -0.3921 -0.0742
 1687PEP     CB63767   5.058   9.171   5.560 -0.1357 -0.2622  0.1225
 1687PEP     CB63768   4.880   9.578   5.392  0.3110  0.2004 -0.0160
 1687PEP     CB63769   4.859   9.570   4.950 -0.4984  0.0252 -0.1861
 1687PEP     CB63770   5.219   9.416   4.736  0.1156  0.1221 -0.2700
 1687PEP     CB63771   5.597   9.119   4.785 -0.3603 -0.0653 -0.1586
 1687PEP     CB63772   5.932   8.749   4.838  0.2906 -0.0246 -0.0517
 1687PEP     CB63773   6.201   8.464   4.973  0.0518  0.2315  0.3152
 1687PEP     CB63774   6.472   8.148   5.148 -0.0412  0.2742  0.2372
 1687PEP     CB63775   6.786   7.914   5.111 -0.2297 -0.2731 -0.0165
 1687PEP     CB63776   7.015   7.927   4.798 -0.4572 -0.1018  0.1347
 1687PEP     CB63777   6.912   8.174   4.402  0.2832 -0.3543 -0.1483
 1687PEP     CB63778   6.665   8.519   4.314  0.0136 -0.1649 -0.2334
 1687PEP     CB63779   6.680   8.901   4.177  0.4257 -0.3401 -0.1212
 1687PEP     CB63780   6.574   9.212   3.868  0.1243  0.1859  0.2726
 1687PEP     CB63781   6.388   9.614   3.670  0.1402 -0.3202 -0.1663
 1687PEP     CB63782   6.390  10.044   3.733 -0.2185 -0.0512 -0.3554
 1687PEP     CB63783   6.506  10.393   3.966 -0.1363  0.0705 -0.4243
 1687PEP     CB63784   6.843  10.775   4.018  0.5238  0.0228 -0.8557
 1687PEP     CB63785   7.112  11.021   4.304 -0.1021  0.1285  0.1755
 1687PEP     CB63786   7.313  11.317   4.489 -0.3517  0.2185  0.1206
 1687PEP     CB63787   7.433  11.664   4.719 -0.1381  0.2417  0.2787
 1687PEP     CB63788   7.221  11.967   4.991 -0.0174 -0.5953 -0.1328
 1687PEP     CB63789   6.839  12.058   5.045 -0.6669 -0.1196 -0.4395
 1687PEP     CB63790   6.455  12.107   4.979  0.0594  0.2080  0.2494
 1687PEP     CB63791   6.142  12.116   4.681 -0.1373  0.0578 -0.0380
 1687PEP     CB63792   5.822  11.880   4.482  0.0812 -0.0467  0.1611
 1687PEP     CB63793   5.380  11.780   4.335 -0.2750 -0.1742 -0.0371
 1687PEP     CB63794   5.055  11.599   4.261  0.0624  0.1614 -0.0253
 1687PEP     CB63795   4.671  11.590   4.349  0.2201  0.1261  0.0312
 1687PEP     CB63796   4.314  11.364   4.522  0.2629  0.0757  0.0181
 1687PEP     CB63797   4.238  11.327   5.018  0.0018 -0.3585 -0.3137
 1687PEP     CB63798   4.477  11.569   5.305  0.0667 -0.2176 -0.1277
 1687PEP     CB63799   4.777  11.899   5.250  0.2030 -0.0648  0.1898
 1687PEP     CB63800   4.805  12.370   5.285 -0.1378 -0.8731  0.0028
 1688PEP     CB63801  13.897   4.024  13.662 -0.0750 -0.1200  0.2414
 1688PEP     CB63802  14.114   3.996  14.102  0.0351  0.0147  0.2061
 1688PEP     CB63803  14.351   4.325  14.447  0.3402 -0.0284  0.2771
 1688PEP     CB63804  14.843   4.257  14.560 -0.1045  0.1073  0.2529
 1688PEP     CB63805  14.992   3.747  14.493  0.0640 -0.0258  0.1193
 1688PEP     CB63806  14.954   3.350  14.180 -0.0896 -0.1146  0.2904
 1688PEP     CB63807  15.191   3.127  13.846 -0.0890  0.0736  0.1014
 1688PEP     CB63808  15.643   2.956  13.855  0.0266  0.1417  0.1624
 1688PEP     CB63809  15.890   2.709  14.128 -0.1055  0.1037 -0.0789
 1688PEP     CB63810  16.224   2.801  14.389  0.2187  0.1309 -0.1072
 1688PEP     CB63811  16.578   2.874  14.584  0.0649  0.0309 -0.2320
 1688PEP     CB63812  16.893   3.121  14.665  0.1406  0.1026 -0.1485
 1688PEP     CB63813  17.350   3.214  14.592 -0.2165  0.0168  0.1316
 1688PEP     CB63814  17.632   2.828  14.654 -0.2064  0.1707  0.1883
 1688PEP     CB63815  17.575   2.482  14.689 -0.0381  0.0670 -0.1747
 1688PEP     CB63816  17.220   2.216  14.651  0.0504 -0.0131 -0.0478
 1688PEP     CB63817  16.963   2.142  14.293 -0.2586 -0.1516  0.0122
 1688PEP     CB63818  16.846   2.230  13.824 -0.2596  0.2627 -0.0857
 1688PEP     CB63819  17.001   2.139  13.483 -0.0451  0.2729  0.1160
 1688PEP     CB63820  17.336   2.428  13.248  0.0335  0.1732 -0.0179
 1688PEP     CB63821  17.677   2.582  13.302  0.0197 -0.0585  0.2578
 1688PEP     CB63822  18.127   2.668  13.601 -0.1771  0.1011  0.0342
 1688PEP     CB63823  18.389   2.419  13.838  0.1538  0.3143  0.1454
 1688PEP     CB63824  18.383   1.950  13.923  0.3832  0.0432 -0.3443
 1688PEP     CB63825  18.278   1.572  14.267 -0.0182 -0.1609  0.2502
 1688PEP     CB63826  18.281   1.459  14.753  0.3381  0.1414  0.3057
 1688PEP     CB63827  18.442   1.466  15.181 -0.0077 -0.1928 -0.1846
 1688PEP     CB63828  18.801   1.530  15.438  0.2075 -0.1601  0.0798
 1688PEP     CB63829  19.081   1.234  15.640 -0.0004  0.3243 -0.1015
 1688PEP     CB63830  19.099   0.952  15.978  0.2279 -0.1740 -0.0172
 1688PEP     CB63831  19.480   0.706  16.237  0.0334  0.1724  0.1741
 1688PEP     CB63832  19.844   0.326  16.281  0.1610  0.1574 -0.0269
 1688PEP     CB63833  20.172  -0.014  16.265  0.2916  0.3999 -0.0144
 1688PEP     CB63834  20.449  -0.289  16.172 -0.0326 -0.1031  0.0645
 1688PEP     CB63835  20.782  -0.630  16.041 -0.0065 -0.0432 -0.1755
 1688PEP     CB63836  20.918  -1.095  16.125  0.0152  0.1700  0.1752
 1688PEP     CB63837  21.198  -1.355  15.902  0.0560  0.0462 -0.2414
 1688PEP     CB63838  21.373  -1.285  15.527 -0.1324  0.1020 -0.0050
 1688PEP     CB63839  21.532  -1.008  15.315  0.1966 -0.0525  0.1856
 1688PEP     CB63840  21.661  -0.828  14.889  0.3507  0.3521  0.0231
 1689PEP     CB63841   5.714  18.003  10.086  0.0909  0.0108 -0.1325
 1689PEP     CB63842   5.551  17.610  10.005  0.2803  0.1190  0.3083
 1689PEP     CB63843   5.472  17.225  10.052  0.0193 -0.1678 -0.1601
 1689PEP     CB63844   5.694  16.837  10.314 -0.0520 -0.0075  0.4297
 1689PEP     CB63845   5.865  16.752  10.790 -0.6536 -0.4481  0.0645
 1689PEP     CB63846   6.137  17.008  11.094  0.1624  0.0472 -0.4104
 1689PEP     CB63847   6.430  17.293  11.038  0.3010  0.2975 -0.0312
 1689PEP     CB63848   6.898  17.480  11.060 -0.1238  0.3208 -0.2145
 1689PEP     CB63849   7.229  17.455  11.107  0.0021 -0.0280  0.1206
 1689PEP     CB63850   7.442  17.632  11.341  0.0227 -0.0337 -0.0192
 1689PEP     CB63851   7.417  17.908  11.656 -0.0046  0.1520  0.2243
 1689PEP     CB63852   7.168  18.157  12.000 -0.1242  0.2364 -0.4590
 1689PEP     CB63853   6.963  18.376  12.285 -0.3048  0.4035  0.1269
 1689PEP     CB63854   6.593  18.576  12.432  0.1455 -0.0197  0.2704
 1689PEP     CB63855   6.587  18.922  12.660 -0.0929 -0.2732 -0.0231
 1689PEP     CB63856   6.474  19.280  12.744  0.1866  0.0480 -0.1148
 1689PEP     CB63857   6.454  19.665  12.448  0.0744  0.1603 -0.0040
 1689PEP     CB63858   6.726  19.713  12.117 -0.2849  0.3679  0.0357
 1689PEP     CB63859   7.069  19.764  11.770  0.0634  0.3020  0.1726
 1689PEP     CB63860   7.464  19.986  11.636 -0.0754 -0.2287 -0.2291
 1689PEP     CB63861   7.965  20.016  11.715 -0.0289  0.6420 -0.1612
 1689PEP     CB63862   8.198  19.883  11.412  0.1488  0.0532  0.0358
 1689PEP     CB63863   8.011  19.843  11.082  0.1112  0.0161 -0.3537
 1689PEP     CB63864   7.484  19.794  11.141 -0.0939  0.3820  0.1647
 1689PEP     CB63865   7.264  20.137  11.236  0.2691 -0.3214  0.2362
 1689PEP     CB63866   7.374  20.628  11.029  0.2050  0.0646  0.1931
 1689PEP     CB63867   7.542  21.029  10.907  0.2969 -0.2230 -0.3556
 1689PEP     CB63868   7.837  21.314  10.972  0.1833 -0.1435 -0.4613
 1689PEP     CB63869   7.999  21.697  10.947 -0.2798 -0.4456  0.2455
 1689PEP     CB63870   8.082  22.169  10.791  0.2956  0.1711  0.0089
 1689PEP     CB63871   8.205  22.516  10.904  0.2290 -0.0744  0.1343
 1689PEP     CB63872   8.488  22.799  10.799 -0.0480 -0.0769 -0.3097
 1689PEP     CB63873   8.746  23.145  10.572 -0.1771 -0.0625 -0.1501
 1689PEP     CB63874   9.044  23.477  10.653 -0.4060  0.1151  0.0206
 1689PEP     CB63875   9.189  23.870  10.816 -0.0883 -0.2757  0.0973
 1689PEP     CB63876   9.216  24.287  10.826  0.0588 -0.2245 -0.3789
 1689PEP     CB63877   9.579  24.470  10.801 -0.2503  0.0968  0.4836
 1689PEP     CB63878   9.881  24.461  10.496 -0.2674  0.0229 -0.0189
 1689PEP     CB63879   9.956  24.097  10.124  0.1362 -0.2486 -0.3571
 1689PEP     CB63880   9.901  23.677  10.011  0.0954 -0.2500 -0.1038
 1690PEP     CB63881   0.442   9.561   6.344  0.1214 -0.5133 -0.0577
 1690PEP     CB63882   0.541   9.861   5.978  0.0809  0.1438  0.0369
 1690PEP     CB63883   0.501  10.343   5.938  0.1583 -0.3455 -0.0829
 1690PEP     CB63884   0.130  10.649   6.084  0.7515 -0.1600 -0.0677
 1690PEP     CB63885  -0.206  10.472   6.168 -0.4401  0.3559  0.2154
 1690PEP     CB63886  -0.619  10.315   6.315  0.0274  0.7950 -0.0332
 1690PEP     CB63887  -0.873   9.928   6.469  0.0359 -0.1491  0.1549
 1690PEP     CB63888  -0.991   9.789   6.808 -0.4715  0.0345  0.0806
 1690PEP     CB63889  -0.959   9.535   7.128  0.6907 -0.0415  0.0367
 1690PEP     CB63890  -0.843   9.774   7.550  0.2771 -0.0498  0.1259
 1690PEP     CB63891  -0.491  10.156   7.579  0.0312 -0.1240  0.1214
 1690PEP     CB63892  -0.184  10.268   7.807  0.2003  0.2314 -0.1785
 1690PEP     CB63893   0.224  10.441   7.821 -0.0429  0.2369  0.3970
 1690PEP     CB63894   0.554  10.618   7.832  0.1140 -0.3421  0.4305
 1690PEP     CB63895   1.036  10.720   7.900 -0.3570  0.2876  0.0269
 1690PEP     CB63896   1.427  10.943   7.777 -0.1322 -0.1429 -0.1113
 1690PEP     CB63897   1.749  10.888   7.413  0.0146 -0.0126 -0.0660
 1690PEP     CB63898   1.747  11.155   7.017  0.5074  0.1166  0.3382
 1690PEP     CB63899   1.990  11.446   6.758  0.0194  0.1299 -0.2588
 1690PEP     CB63900   1.939  11.727   6.433 -0.3456  0.1194  0.0880
 1690PEP     CB63901   2.019  12.188   6.225 -0.3059  0.2737  0.4072
 1690PEP     CB63902   2.061  12.356   5.831 -0.0084 -0.0152  0.0864
 1690PEP     CB63903   1.798  12.291   5.513 -0.3468 -0.0839 -0.4708
 1690PEP     CB63904   1.515  12.003   5.440 -0.1072  0.1031 -0.0113
 1690PEP     CB63905   1.271  11.905   5.009  0.3555 -0.3712  0.2670
 1690PEP     CB63906   1.429  11.829   4.660 -0.1328  0.0051 -0.2827
 1690PEP     CB63907   1.800  11.879   4.486 -0.3956  0.3703  0.0209
 1690PEP     CB63908   2.116  12.187   4.715 -0.0361  0.1008 -0.1540
 1690PEP     CB63909   2.425  12.146   5.120 -0.1405  0.1374  0.0497
 1690PEP     CB63910   2.448  12.104   5.609 -0.2223 -0.3147  0.0737
 1690PEP     CB63911   2.600  12.214   6.033 -0.1394 -0.1933 -0.0307
 1690PEP     CB63912   2.909  12.138   6.298  0.3547 -0.3390 -0.1229
 1690PEP     CB63913   3.250  11.820   6.102  0.4228  0.4180  0.0106
 1690PEP     CB63914   3.111  11.434   5.713 -0.0189  0.1999 -0.0481
 1690PEP     CB63915   2.711  11.347   5.627  0.0180 -0.0642  0.4258
 1690PEP     CB63916   2.248  11.493   5.695 -0.3266 -0.3350  0.2470
 1690PEP     CB63917   1.845  11.569   5.882 -0.2392  0.0733 -0.3419
 1690PEP     CB63918   1.603  11.383   6.226 -0.2899  0.0871  0.1819
 1690PEP     CB63919   1.423  10.995   6.458  0.3517  0.0374 -0.0587
 1690PEP     CB63920   1.295  10.843   6.923  0.3536  0.2449 -0.2110
 1691PEP     CB63921  19.418  20.967  19.344  0.0896 -0.1468 -0.0155
 1691PEP     CB63922  19.399  21.250  19.673 -0.0140  0.2116 -0.1813
 1691PEP     CB63923  19.107  21.259  20.008  0.2940 -0.0036 -0.4559
 1691PEP     CB63924  18.725  20.967  20.056 -0.1135 -0.2837  0.4187
 1691PEP     CB63925  18.628  20.521  20.143  0.0133  0.2926 -0.1772
 1691PEP     CB63926  18.442  20.180  20.384 -0.2799 -0.2849  0.0205
 1691PEP     CB63927  18.304  19.931  20.718 -0.0957 -0.5357 -0.3091
 1691PEP     CB63928  18.236  19.688  21.095 -0.2941 -0.3409  0.1277
 1691PEP     CB63929  18.202  19.686  21.519  0.0879 -0.1332 -0.3544
 1691PEP     CB63930  18.320  19.816  21.992 -0.0577  0.1379 -0.0622
 1691PEP     CB63931  18.335  19.868  22.432  0.1293  0.1517 -0.1136
 1691PEP     CB63932  18.127  19.896  22.781  0.3997 -0.0471 -0.1192
 1691PEP     CB63933  17.809  20.054  23.058  0.4712  0.4327  0.3125
 1691PEP     CB63934  17.740  20.287  23.389  0.4809 -0.1373  0.2909
 1691PEP     CB63935  17.849  20.300  23.890 -0.2241 -0.0262 -0.1587
 1691PEP     CB63936  17.852  20.047  24.241  0.0556 -0.0268  0.0509
 1691PEP     CB63937  17.869  19.625  24.371  0.3154  0.2004 -0.0246
 1691PEP     CB63938  18.122  19.416  24.669 -0.3949 -0.5496  0.0527
 1691PEP     CB63939  18.440  19.510  24.951 -0.3163 -0.1273  0.3831
 1691PEP     CB63940  18.846  19.648  25.093 -0.1944 -0.5816 -0.1606
 1691PEP     CB63941  19.263  19.754  24.985  0.0051 -0.1039 -0.1479
 1691PEP     CB63942  19.614  20.102  25.203  0.0087 -0.3411 -0.1321
 1691PEP     CB63943  19.814  20.264  25.632 -0.3120 -0.0986 -0.0676
 1691PEP     CB63944  20.215  20.084  25.762  0.2655  0.1010  0.2089
 1691PEP     CB63945  20.514  19.970  25.477 -0.3423 -0.0215  0.3951
 1691PEP     CB63946  20.558  19.953  24.966  0.0690 -0.3323 -0.0757
 1691PEP     CB63947  20.574  20.018  24.425  0.1870  0.1289  0.1803
 1691PEP     CB63948  20.359  19.850  24.001 -0.3211 -0.0041 -0.3271
 1691PEP     CB63949  20.075  19.804  23.656 -0.1370 -0.2090  0.1842
 1691PEP     CB63950  19.677  19.878  23.552 -0.1297  0.0283  0.0980
 1691PEP     CB63951  19.261  19.890  23.709  0.1401  0.1163 -0.2562
 1691PEP     CB63952  18.980  20.128  23.928 -0.0948 -0.1558 -0.2056
 1691PEP     CB63953  18.628  20.395  23.905 -0.0494 -0.1040  0.2266
 1691PEP     CB63954  18.268  20.602  24.016  0.0507 -0.1638 -0.3496
 1691PEP     CB63955  17.818  20.795  24.066 -0.1065  0.3175 -0.0402
 1691PEP     CB63956  17.439  20.564  24.092 -0.3906 -0.2922 -0.1251
 1691PEP     CB63957  17.200  20.211  24.346  0.1968  0.0926 -0.2818
 1691PEP     CB63958  17.098  19.915  24.705  0.3995  0.0761 -0.3146
 1691PEP     CB63959  16.754  19.686  24.784  0.0958 -0.1267  0.0434
 1691PEP     CB63960  16.356  19.568  24.690  0.1320 -0.0998  0.3395
 1692PEP     CB63961   1.961  19.237  17.697 -0.1935 -0.2090  0.0236
 1692PEP     CB63962   2.035  18.841  17.496 -0.5586  0.1898 -0.4254
 1692PEP     CB63963   2.112  18.430  17.412  0.3430 -0.2934 -0.0608
 1692PEP     CB63964   2.066  17.961  17.208 -0.1107 -0.1499 -0.1872
 1692PEP     CB63965   2.363  17.669  17.045 -0.2133  0.0659 -0.2178
 1692PEP     CB63966   2.710  17.354  17.238  0.1077  0.1711 -0.2726
 1692PEP     CB63967   3.118  17.297  17.193  0.0938 -0.0811 -0.0965
 1692PEP     CB63968   3.247  17.692  17.038 -0.1481  0.3525  0.0676
 1692PEP     CB63969   2.991  18.046  17.054 -0.2069 -0.1893 -0.3511
 1692PEP     CB63970   2.625  18.050  17.342 -0.0437 -0.1570  0.0119
 1692PEP     CB63971   2.382  18.039  17.659  0.2841 -0.1722 -0.1494
 1692PEP     CB63972   2.505  17.714  17.992  0.2992 -0.0866  0.1048
 1692PEP     CB63973   2.817  17.498  17.771  0.0949 -0.0375  0.3385
 1692PEP     CB63974   3.025  17.743  17.461  0.0249 -0.1389  0.0910
 1692PEP     CB63975   3.194  18.072  17.500 -0.2760 -0.1499 -0.1148
 1692PEP     CB63976   3.352  18.378  17.837 -0.1440  0.1874  0.1055
 1692PEP     CB63977   3.405  18.482  18.255  0.1301 -0.1180 -0.2769
 1692PEP     CB63978   3.246  18.850  18.498  0.0506 -0.0860  0.2845
 1692PEP     CB63979   3.031  19.049  18.815  0.1431 -0.0193  0.0565
 1692PEP     CB63980   2.602  19.297  18.980 -0.0613 -0.0008  0.0331
 1692PEP     CB63981   2.144  19.379  19.012  0.3989  0.3247  0.0569
 1692PEP     CB63982   1.776  19.253  18.855 -0.0110 -0.2005  0.0240
 1692PEP     CB63983   1.536  19.020  18.993 -0.1362  0.2884  0.3131
 1692PEP     CB63984   1.076  18.838  19.102 -0.2559 -0.0523 -0.1461
 1692PEP     CB63985   0.661  18.721  19.264 -0.1626  0.0812  0.2790
 1692PEP     CB63986   0.419  18.362  19.412  0.0237 -0.4664 -0.3000
 1692PEP     CB63987   0.277  18.314  19.827  0.1462 -0.1030 -0.1547
 1692PEP     CB63988   0.257  18.494  20.280  0.0667  0.2271 -0.0570
 1692PEP     CB63989   0.297  18.604  20.688  0.1192 -0.0123  0.1100
 1692PEP     CB63990   0.001  18.737  21.030  0.1568 -0.1330 -0.1330
 1692PEP     CB63991  -0.299  18.903  21.284 -0.1186 -0.3157 -0.2976
 1692PEP     CB63992  -0.562  19.157  21.551 -0.0298  0.1854  0.1711
 1692PEP     CB63993  -0.761  19.559  21.646  0.0260  0.1737  0.3155
 1692PEP     CB63994  -0.767  19.980  21.728  0.0563 -0.2175  0.0695
 1692PEP     CB63995  -0.943  20.253  22.072 -0.0046 -0.0604  0.3292
 1692PEP     CB63996  -0.997  20.223  22.562  0.2099 -0.0319  0.0788
 1692PEP     CB63997  -0.698  20.021  22.891 -0.1901  0.2028  0.0478
 1692PEP     CB63998  -0.239  20.005  22.977 -0.1920  0.3552 -0.1654
 1692PEP     CB63999   0.194  20.171  22.857 -0.0320  0.2221  0.0267
 1692PEP     CB64000   0.473  20.457  22.942  0.1754 -0.2536  0.1190
 1693PEP     CB64001  18.589  14.443  18.030 -0.0127  0.3737  0.1641
 1693PEP     CB64002  18.968  14.232  18.123  0.0871 -0.1050  0.3417
 1693PEP     CB64003  19.382  14.194  18.194 -0.0947  0.1338 -0.2020
 1693PEP     CB64004  19.751  14.051  18.025 -0.2233  0.1496  0.2477
 1693PEP     CB64005  20.149  13.950  17.864  0.0887  0.3318 -0.1729
 1693PEP     CB64006  20.603  13.908  18.025  0.5033 -0.3449 -0.2725
 1693PEP     CB64007  20.791  13.792  18.380  0.0386 -0.0886  0.0531
 1693PEP     CB64008  21.062  13.569  18.652  0.1648 -0.1233 -0.1797
 1693PEP     CB64009  21.062  13.292  19.025  0.3334 -0.0728 -0.1302
 1693PEP     CB64010  20.750  13.110  19.372  0.1656 -0.1819  0.3075
 1693PEP     CB64011  20.588  13.155  19.806  0.0407 -0.0680 -0.1825
 1693PEP     CB64012  20.589  13.580  20.081 -0.1185 -0.3326 -0.1012
 1693PEP     CB64013  20.823  13.978  19.989  0.1021 -0.5185  0.1409
 1693PEP     CB64014  21.080  14.032  19.641  0.3162  0.0511  0.0210
 1693PEP     CB64015  21.398  14.239  19.296 -0.4969  0.0938 -0.0275
 1693PEP     CB64016  21.310  14.456  18.843  0.0030 -0.1850  0.2588
 1693PEP     CB64017  21.350  14.864  18.746 -0.0316  0.2932 -0.0916
 1693PEP     CB64018  21.266  15.356  18.978  0.2086  0.3018 -0.2271
 1693PEP     CB64019  21.505  15.710  19.144  0.1726 -0.1490  0.4505
 1693PEP     CB64020  21.608  16.220  19.053  0.0197 -0.0255 -0.1757
 1693PEP     CB64021  21.684  16.640  19.030  0.1037 -0.1573  0.2100
 1693PEP     CB64022  21.762  16.948  19.353 -0.3015  0.0712  0.5930
 1693PEP     CB64023  21.562  17.024  19.711 -0.2817  0.0941 -0.0746
 1693PEP     CB64024  21.233  16.678  19.865 -0.0493  0.0003  0.3188
 1693PEP     CB64025  21.205  16.217  19.699  0.0834 -0.0315  0.0099
 1693PEP     CB64026  21.572  15.991  19.736 -0.3634 -0.7687  0.0292
 1693PEP     CB64027  21.968  16.067  19.825  0.4546 -0.1340  0.0407
 1693PEP     CB64028  22.222  16.211  19.565 -0.0676  0.2312  0.0001
 1693PEP     CB64029  22.095  16.419  19.155 -0.0089 -0.1076 -0.3365
 1693PEP     CB64030  22.036  16.066  18.712 -0.0884 -0.0402 -0.0429
 1693PEP     CB64031  21.832  15.928  18.270  0.1171  0.2678  0.0841
 1693PEP     CB64032  21.957  15.612  18.030 -0.0814  0.0544  0.1084
 1693PEP     CB64033  21.852  15.198  17.966 -0.3892  0.2697  0.0093
 1693PEP     CB64034  21.669  14.853  17.673 -0.3195 -0.1748 -0.1833
 1693PEP     CB64035  21.731  14.446  17.534  0.2176  0.1762  0.1797
 1693PEP     CB64036  21.754  13.981  17.612  0.1588 -0.0580  0.3247
 1693PEP     CB64037  22.057  13.915  17.928 -0.3633 -0.1711  0.1850
 1693PEP     CB64038  22.447  14.003  18.103 -0.4417  0.1464  0.2775
 1693PEP     CB64039  22.837  14.075  18.373  0.1382 -0.3671  0.0666
 1693PEP     CB64040  23.099  14.324  18.632 -0.0942  0.1573  0.1547
 1694PEP     CB64041   3.874   3.992   7.659 -0.2183 -0.1072 -0.0607
 1694PEP     CB64042   3.989   4.145   8.060  0.1110  0.2860  0.1476
 1694PEP     CB64043   4.239   4.495   8.137  0.1508  0.1126 -0.0036
 1694PEP     CB64044   4.685   4.665   8.129  0.2731 -0.0336  0.0187
 1694PEP     CB64045   4.960   4.403   7.917  0.1651 -0.0595 -0.0887
 1694PEP     CB64046   4.877   4.009   7.732  0.0748 -0.3422  0.0129
 1694PEP     CB64047   4.836   3.590   7.536 -0.0218  0.2225  0.1206
 1694PEP     CB64048   5.048   3.204   7.407  0.4681  0.4490 -0.0712
 1694PEP     CB64049   5.392   2.863   7.314  0.4532 -0.2219 -0.1596
 1694PEP     CB64050   5.776   2.603   7.161 -0.0531 -0.3170  0.0469
 1694PEP     CB64051   6.207   2.494   7.188 -0.3422 -0.3495  0.1420
 1694PEP     CB64052   6.453   2.324   7.480  0.1721  0.3729  0.0305
 1694PEP     CB64053   6.392   1.993   7.735 -0.2841 -0.2582 -0.1429
 1694PEP     CB64054   6.489   1.654   7.874 -0.0664  0.0406  0.3763
 1694PEP     CB64055   6.312   1.338   8.185  0.6219 -0.2461  0.0581
 1694PEP     CB64056   6.307   1.014   8.514  0.2219 -0.3931 -0.2799
 1694PEP     CB64057   6.399   0.677   8.653 -0.1869 -0.1421 -0.1960
 1694PEP     CB64058   6.476   0.314   8.740  0.0738  0.3542 -0.1806
 1694PEP     CB64059   6.696  -0.019   8.934 -0.3581  0.0463 -0.2551
 1694PEP     CB64060   6.806  -0.481   8.980 -0.0773  0.0331 -0.3254
 1694PEP     CB64061   7.273  -0.641   9.106  0.1685 -0.0634  0.2466
 1694PEP     CB64062   7.747  -0.337   9.024  0.0221  0.1610  0.1533
 1694PEP     CB64063   7.852  -0.038   8.725 -0.2458  0.1362  0.1701
 1694PEP     CB64064   7.627   0.191   8.397 -0.1934  0.1835  0.1556
 1694PEP     CB64065   7.509   0.556   8.085 -0.1907  0.0244  0.2978
 1694PEP     CB64066   7.140   0.837   7.878 -0.4444  0.1139  0.1672
 1694PEP     CB64067   6.775   1.168   7.918 -0.1087 -0.1151  0.1992
 1694PEP     CB64068   6.306   1.154   7.724 -0.0103 -0.2763  0.0138
 1694PEP     CB64069   5.978   1.051   7.356  0.2078 -0.0015 -0.2772
 1694PEP     CB64070   5.865   0.753   7.064  0.3312  0.1151  0.2122
 1694PEP     CB64071   5.811   0.480   6.744 -0.2861  0.1360 -0.2285
 1694PEP     CB64072   5.497   0.285   6.491  0.3730  0.2150  0.3019
 1694PEP     CB64073   5.298  -0.074   6.325 -0.2412  0.2225  0.0223
 1694PEP     CB64074   5.026  -0.351   6.111 -0.2616 -0.0398  0.1384
 1694PEP     CB64075   4.830  -0.461   5.746  0.2407 -0.2359 -0.0087
 1694PEP     CB64076   4.612  -0.722   5.510  0.1741 -0.1329 -0.3814
 1694PEP     CB64077   4.455  -1.154   5.472  0.1113 -0.0018 -0.1186
 1694PEP     CB64078   4.323  -1.500   5.178  0.0278 -0.0438 -0.0588
 1694PEP     CB64079   4.259  -1.769   4.888 -0.2638  0.0043 -0.0855
 1694PEP     CB64080   3.935  -1.944   4.886  0.4351  0.1476  0.0046
 1695PEP     CB64081  16.723   8.281  11.123  0.2643 -0.0126  0.1081
 1695PEP     CB64082  16.997   8.055  10.860  0.0828  0.1330  0.1826
 1695PEP     CB64083  17.350   7.853  10.601  0.1185 -0.2457  0.2062
 1695PEP     CB64084  17.464   7.846  10.184 -0.0267  0.1563 -0.1030
 1695PEP     CB64085  17.142   8.055   9.859  0.2935  0.2398  0.2099
 1695PEP     CB64086  17.316   8.163   9.357 -0.0352  0.3786  0.2030
 1695PEP     CB64087  17.508   7.766   9.054 -0.1197 -0.1619  0.3228
 1695PEP     CB64088  17.433   7.326   9.010 -0.0418  0.2034  0.2473
 1695PEP     CB64089  17.210   6.941   8.901  0.3107  0.2464  0.0437
 1695PEP     CB64090  17.063   6.710   8.659 -0.0397 -0.0901  0.0086
 1695PEP     CB64091  16.940   6.386   8.547  0.2830 -0.1435 -0.0114
 1695PEP     CB64092  16.608   6.202   8.722 -0.3230  0.0324 -0.0092
 1695PEP     CB64093  16.462   6.340   9.111 -0.2195  0.7543 -0.0025
 1695PEP     CB64094  16.745   6.402   9.467 -0.5361 -0.3210 -0.0878
 1695PEP     CB64095  17.091   6.166   9.557  0.3668 -0.0608  0.0273
 1695PEP     CB64096  17.434   6.074   9.711  0.0061 -0.3961  0.0022
 1695PEP     CB64097  17.868   5.878   9.679  0.3687  0.1563 -0.0841
 1695PEP     CB64098  18.223   5.887   9.912 -0.0544 -0.1010  0.1792
 1695PEP     CB64099  18.541   5.692  10.116  0.0871 -0.3306 -0.2613
 1695PEP     CB64100  18.852   5.422  10.357 -0.1742 -0.1989  0.4472
 1695PEP     CB64101  19.247   5.166  10.420  0.1215 -0.0939 -0.0323
 1695PEP     CB64102  19.475   4.956  10.445 -0.0416  0.3301  0.1541
 1695PEP     CB64103  19.829   4.627  10.549 -0.0785  0.0570  0.0011
 1695PEP     CB64104  19.900   4.328  10.940 -0.0027 -0.2169  0.3020
 1695PEP     CB64105  20.142   4.262  11.310 -0.2094 -0.1582 -0.5611
 1695PEP     CB64106  20.293   4.325  11.762 -0.0064  0.1462  0.3282
 1695PEP     CB64107  20.671   4.226  11.870 -0.4337 -0.3121  0.0176
 1695PEP     CB64108  21.067   4.210  11.599  0.2128  0.0820  0.0941
 1695PEP     CB64109  21.348   4.545  11.343  0.1642 -0.1172 -0.0176
 1695PEP     CB64110  21.816   4.789  11.354 -0.2804 -0.4355  0.2426
 1695PEP     CB64111  22.068   5.150  11.523  0.0237 -0.0345  0.2211
 1695PEP     CB64112  21.963   5.627  11.463  0.0794 -0.3131  0.1490
 1695PEP     CB64113  21.721   5.965  11.144 -0.2187 -0.2877 -0.0312
 1695PEP     CB64114  21.486   5.981  10.795 -0.1821 -0.0483  0.0673
 1695PEP     CB64115  21.298   6.174  10.423 -0.2247 -0.4018 -0.1636
 1695PEP     CB64116  21.165   6.495  10.160 -0.1379 -0.1412 -0.1084
 1695PEP     CB64117  20.877   6.798   9.983 -0.3835  0.3125 -0.0681
 1695PEP     CB64118  20.467   6.915   9.820  0.1555 -0.0195 -0.2371
 1695PEP     CB64119  20.235   7.165   9.498 -0.0648 -0.1893 -0.3419
 1695PEP     CB64120  19.899   7.158   9.243 -0.1872  0.1788 -0.0551
 1696PEP     CB64121   5.672  15.348   5.797  0.1529 -0.0837 -0.0554
 1696PEP     CB64122   5.547  15.315   6.250  0.0899  0.0174  0.3432
 1696PEP     CB64123   5.678  15.147   6.648 -0.3038  0.2146  0.4066
 1696PEP     CB64124   5.400  14.846   6.862  0.0195 -0.0382  0.3153
 1696PEP     CB64125   4.995  14.748   6.699 -0.4156  0.3275  0.3260
 1696PEP     CB64126   4.895  14.512   6.313  0.1625 -0.9669 -0.1457
 1696PEP     CB64127   5.176  14.421   6.013 -0.1083  0.1206 -0.0467
 1696PEP     CB64128   5.500  14.514   5.658  0.2003  0.0527 -0.0463
 1696PEP     CB64129   5.887  14.625   5.536  0.0644  0.1270  0.0555
 1696PEP     CB64130   5.986  15.052   5.462  0.2286  0.1811  0.0060
 1696PEP     CB64131   6.298  15.375   5.436  0.4144 -0.0106 -0.1980
 1696PEP     CB64132   6.594  15.612   5.649 -0.0108 -0.2522 -0.0715
 1696PEP     CB64133   6.953  15.903   5.579 -0.2170  0.1366 -0.1089
 1696PEP     CB64134   7.365  16.002   5.390 -0.0293 -0.0826  0.0379
 1696PEP     CB64135   7.693  16.239   5.273  0.1435  0.1675 -0.2872
 1696PEP     CB64136   7.931  16.413   5.437 -0.0447 -0.3863 -0.1518
 1696PEP     CB64137   8.214  16.281   5.719  0.2516  0.2827  0.1578
 1696PEP     CB64138   8.532  16.012   5.858 -0.0244 -0.1078  0.2788
 1696PEP     CB64139   8.718  15.668   6.120  0.2290 -0.3121  0.2630
 1696PEP     CB64140   8.913  15.284   6.304  0.2352  0.2822 -0.0718
 1696PEP     CB64141   8.776  14.906   6.515 -0.1721 -0.2739  0.3156
 1696PEP     CB64142   8.883  14.617   6.869 -0.0101  0.2411 -0.0944
 1696PEP     CB64143   8.717  14.796   7.297  0.3249  0.1651  0.0673
 1696PEP     CB64144   8.334  14.968   7.439 -0.4511  0.2514  0.1527
 1696PEP     CB64145   7.918  15.051   7.425 -0.0951 -0.3208  0.0215
 1696PEP     CB64146   7.585  15.234   7.138  0.0398 -0.2089 -0.1260
 1696PEP     CB64147   7.224  15.097   6.883  0.1670 -0.3189  0.2529
 1696PEP     CB64148   7.209  14.777   6.460 -0.2463 -0.0922 -0.1356
 1696PEP     CB64149   7.406  14.638   6.076 -0.0480 -0.1203 -0.0179
 1696PEP     CB64150   7.380  14.566   5.632  0.2192  0.2833 -0.0733
 1696PEP     CB64151   7.153  14.701   5.334 -0.0408  0.1632 -0.1320
 1696PEP     CB64152   6.796  14.870   5.349  0.3691  0.1155 -0.1599
 1696PEP     CB64153   6.581  15.083   5.692 -0.3057  0.1616  0.1207
 1696PEP     CB64154   6.306  15.310   5.883  0.3993 -0.0497 -0.1358
 1696PEP     CB64155   6.241  15.753   6.011 -0.0215 -0.0366 -0.0920
 1696PEP     CB64156   6.468  16.053   6.000  0.1601  0.4266 -0.2567
 1696PEP     CB64157   6.671  16.418   5.849 -0.1409 -0.5570  0.1056
 1696PEP     CB64158   6.931  16.758   5.823 -0.0287  0.0993  0.1980
 1696PEP     CB64159   7.015  17.241   5.918 -0.0826 -0.3598 -0.2080
 1696PEP     CB64160   7.221  17.635   5.923 -0.1409  0.0924  0.3499
 1697PEP     CB64161  14.883  13.093   2.914 -0.1394 -0.0906  0.0030
 1697PEP     CB64162  14.796  13.493   2.827 -0.1169  0.2636  0.0385
 1697PEP     CB64163  14.678  13.938   2.709 -0.6058  0.0923 -0.2702
 1697PEP     CB64164  14.473  14.082   2.372 -0.5353  0.0167 -0.1894
 1697PEP     CB64165  14.289  13.987   1.951 -0.4858  0.0020  0.0050
 1697PEP     CB64166  14.179  14.081   1.497  0.1750  0.2336  0.0758
 1697PEP     CB64167  13.740  14.184   1.294 -0.2641 -0.0547 -0.1073
 1697PEP     CB64168  13.463  14.565   1.368 -0.1213  0.0050 -0.3862
 1697PEP     CB64169  13.304  14.986   1.444 -0.0381  0.2778  0.0390
 1697PEP     CB64170  12.900  15.152   1.432  0.1920  0.0960  0.1121
 1697PEP     CB64171  12.513  14.807   1.428 -0.3329 -0.0193 -0.4525
 1697PEP     CB64172  12.649  14.364   1.356  0.1559  0.1204  0.0305
 1697PEP     CB64173  13.127  14.179   1.500 -0.0821 -0.0230  0.0602
 1697PEP     CB64174  13.408  14.392   1.830 -0.2822  0.0009 -0.1863
 1697PEP     CB64175  13.260  14.470   2.231  0.1518 -0.1166  0.2305
 1697PEP     CB64176  13.110  14.805   2.372  0.0284 -0.2077 -0.0655
 1697PEP     CB64177  13.043  15.153   2.667 -0.2002  0.2930 -0.3404
 1697PEP     CB64178  12.728  15.532   2.825  0.4438 -0.1565  0.3651
 1697PEP     CB64179  12.440  15.852   2.969  0.2594  0.1384 -0.2512
 1697PEP     CB64180  12.024  16.078   3.126 -0.2610  0.1921 -0.1814
 1697PEP     CB64181  11.600  16.134   3.063  0.3293  0.1371  0.3493
 1697PEP     CB64182  11.284  16.337   2.728 -0.2505 -0.1420  0.4111
 1697PEP     CB64183  11.231  16.310   2.276 -0.0918  0.0934 -0.1156
 1697PEP     CB64184  11.245  16.329   1.835  0.5518  0.0966  0.0971
 1697PEP     CB64185  11.035  15.999   1.677  0.3114  0.1852 -0.1871
 1697PEP     CB64186  11.111  15.529   1.737  0.1261 -0.0770  0.3367
 1697PEP     CB64187  11.465  15.307   1.926  0.2281  0.2749 -0.2096
 1697PEP     CB64188  11.824  15.431   2.071  0.0535 -0.1200 -0.1840
 1697PEP     CB64189  12.066  15.955   2.125 -0.1735 -0.0149  0.3451
 1697PEP     CB64190  12.272  16.363   1.907 -0.1312  0.0781 -0.3654
 1697PEP     CB64191  12.588  16.345   1.702 -0.0775  0.2039 -0.0862
 1697PEP     CB64192  12.811  15.996   1.870 -0.0385  0.1445 -0.0580
 1697PEP     CB64193  12.485  15.579   1.954 -0.0161 -0.0101 -0.2150
 1697PEP     CB64194  12.207  15.390   1.552  0.0748  0.3145 -0.1732
 1697PEP     CB64195  11.854  15.371   1.314  0.0197  0.1750  0.0463
 1697PEP     CB64196  11.639  15.491   0.964  0.3495 -0.1745 -0.3694
 1697PEP     CB64197  11.601  15.664   0.578  0.1165  0.3231 -0.0811
 1697PEP     CB64198  11.635  16.101   0.379 -0.3978  0.0562  0.4170
 1697PEP     CB64199  11.728  16.576   0.535  0.0664  0.1475 -0.1347
 1697PEP     CB64200  11.636  16.942   0.740  0.1386  0.1025  0.0349
 1698PEP     CB64201  17.854  10.611  21.828 -0.3232  0.2503  0.1691
 1698PEP     CB64202  18.016  10.162  21.733  0.3665  0.1573  0.2883
 1698PEP     CB64203  18.080   9.760  21.842  0.2902  0.1089 -0.2050
 1698PEP     CB64204  18.019   9.419  22.169 -0.2563 -0.1695  0.1288
 1698PEP     CB64205  17.845   9.239  22.493 -0.0774  0.2324  0.1005
 1698PEP     CB64206  17.459   8.980  22.490  0.4341  0.1860  0.2374
 1698PEP     CB64207  17.276   8.735  22.230  0.1927 -0.5353  0.0343
 1698PEP     CB64208  17.279   8.913  21.895  0.3227  0.0024  0.0581
 1698PEP     CB64209  17.211   9.215  21.558  0.2012  0.3413 -0.0571
 1698PEP     CB64210  16.941   9.551  21.361  0.1157  0.1101 -0.3768
 1698PEP     CB64211  16.555   9.731  21.202  0.2562 -0.1828 -0.0868
 1698PEP     CB64212  16.297   9.825  20.850  0.5125  0.0367  0.0487
 1698PEP     CB64213  16.387   9.873  20.385  0.1953  0.1097  0.1811
 1698PEP     CB64214  16.832   9.706  20.340  0.2144  0.0479 -0.2408
 1698PEP     CB64215  16.901   9.319  20.483 -0.0502  0.5003 -0.1903
 1698PEP     CB64216  16.830   8.796  20.395 -0.0704 -0.1253 -0.0277
 1698PEP     CB64217  16.537   8.551  20.244  0.1582 -0.1434  0.2269
 1698PEP     CB64218  16.306   8.158  20.207  0.2587 -0.1167 -0.0987
 1698PEP     CB64219  16.178   7.796  20.056 -0.0362  0.0232  0.1034
 1698PEP     CB64220  16.004   7.441  19.956  0.0345  0.4685  0.2495
 1698PEP     CB64221  16.057   7.007  19.759 -0.0058 -0.3342 -0.2948
 1698PEP     CB64222  16.424   6.828  19.767 -0.2173 -0.3866  0.3017
 1698PEP     CB64223  16.785   6.489  19.720 -0.2179 -0.4971  0.0368
 1698PEP     CB64224  17.151   6.301  19.488  0.1023  0.4029 -0.0365
 1698PEP     CB64225  17.255   6.367  18.959  0.4379 -0.0492 -0.1443
 1698PEP     CB64226  17.367   6.664  18.641  0.0056 -0.1133 -0.0229
 1698PEP     CB64227  17.702   6.823  18.359  0.1253  0.3011 -0.2762
 1698PEP     CB64228  17.872   6.741  17.946 -0.0326 -0.1911 -0.0469
 1698PEP     CB64229  17.829   6.749  17.572 -0.2069  0.4216  0.0138
 1698PEP     CB64230  17.618   6.484  17.437 -0.2158 -0.3406  0.0445
 1698PEP     CB64231  17.610   6.007  17.439 -0.0896  0.1307  0.0076
 1698PEP     CB64232  17.887   5.698  17.667  0.0406  0.5654 -0.0937
 1698PEP     CB64233  18.053   5.733  18.023 -0.0113 -0.0495  0.1649
 1698PEP     CB64234  18.072   6.007  18.332 -0.1933 -0.2771  0.3772
 1698PEP     CB64235  17.849   6.182  18.626  0.0695 -0.0983 -0.0840
 1698PEP     CB64236  17.389   5.991  18.690 -0.4038  0.0737 -0.0738
 1698PEP     CB64237  17.139   5.732  18.366  0.0060  0.0635 -0.2303
 1698PEP     CB64238  16.896   5.882  17.970 -0.2727 -0.1090  0.0141
 1698PEP     CB64239  16.704   6.110  17.608 -0.1524 -0.2503  0.1686
 1698PEP     CB64240  16.381   6.058  17.219  0.0449 -0.5098 -0.0948
 1699PEP     CB64241  15.070   3.600   7.640 -0.1055 -0.2716  0.0819
 1699PEP     CB64242  14.702   3.542   7.347 -0.2205 -0.0780 -0.2245
 1699PEP     CB64243  14.305   3.334   7.196  0.4139 -0.0606  0.0774
 1699PEP     CB64244  13.995   3.187   6.929 -0.2592 -0.1172  0.1824
 1699PEP     CB64245  13.593   3.027   7.004  0.0419  0.1813  0.2901
 1699PEP     CB64246  13.181   3.209   7.014  0.4002  0.0943 -0.2637
 1699PEP     CB64247  13.086   3.514   7.353 -0.1356 -0.0672  0.3501
 1699PEP     CB64248  13.416   3.848   7.502  0.1682 -0.0370  0.0566
 1699PEP     CB64249  13.755   3.783   7.736  0.0015  0.2218 -0.4182
 1699PEP     CB64250  14.080   3.738   7.845  0.1185 -0.0798 -0.5880
 1699PEP     CB64251  14.511   3.831   7.749  0.0165  0.1260 -0.1278
 1699PEP     CB64252  14.740   4.206   7.568 -0.0446  0.1695  0.0899
 1699PEP     CB64253  14.824   4.591   7.258 -0.1806  0.1440  0.2994
 1699PEP     CB64254  15.050   4.975   7.007  0.1335  0.4043 -0.1480
 1699PEP     CB64255  14.952   5.303   6.774  0.1590 -0.0004 -0.0831
 1699PEP     CB64256  14.898   5.676   7.092 -0.0027  0.0565  0.0591
 1699PEP     CB64257  14.871   5.430   7.506 -0.0303 -0.2898 -0.0483
 1699PEP     CB64258  14.873   5.018   7.540  0.1013  0.1911  0.0326
 1699PEP     CB64259  15.153   4.659   7.608 -0.2078 -0.2006  0.2721
 1699PEP     CB64260  15.287   4.218   7.778 -0.0971 -0.2577 -0.1014
 1699PEP     CB64261  15.510   4.063   8.057  0.0603 -0.0009 -0.0379
 1699PEP     CB64262  15.728   3.722   8.264  0.1823  0.0280 -0.0114
 1699PEP     CB64263  16.071   3.518   8.167 -0.3017 -0.2366  0.3857
 1699PEP     CB64264  16.449   3.536   8.233 -0.2488 -0.0116  0.0575
 1699PEP     CB64265  16.739   3.213   8.359 -0.4319 -0.0851  0.1963
 1699PEP     CB64266  16.938   2.787   8.544  0.1247 -0.2299 -0.1181
 1699PEP     CB64267  16.972   2.603   8.958 -0.1096  0.2857  0.1012
 1699PEP     CB64268  17.152   2.293   9.304  0.0960  0.0562  0.3072
 1699PEP     CB64269  17.204   2.161   9.702 -0.0862  0.1112  0.2702
 1699PEP     CB64270  17.054   2.260  10.121  0.0657 -0.1475  0.4810
 1699PEP     CB64271  17.021   2.666  10.276  0.0151  0.4546  0.1050
 1699PEP     CB64272  16.983   3.042  10.503  0.2675  0.1732  0.1130
 1699PEP     CB64273  16.769   3.424  10.506 -0.0463  0.1992  0.1302
 1699PEP     CB64274  16.410   3.657  10.614 -0.2026 -0.0219  0.1252
 1699PEP     CB64275  16.086   3.315  10.696 -0.2133 -0.1226  0.3900
 1699PEP     CB64276  16.004   2.762  10.573  0.0823  0.0476  0.3151
 1699PEP     CB64277  16.246   2.476  10.435 -0.0086  0.1592  0.1320
 1699PEP     CB64278  16.693   2.356  10.454 -0.3834  0.0417 -0.2202
 1699PEP     CB64279  16.952   1.939  10.488 -0.3878 -0.0907 -0.2277
 1699PEP     CB64280  17.010   1.507  10.622 -0.0451  0.0588 -0.1561
 1700PEP     CB64281  20.111   5.211  20.735 -0.3322  0.1194 -0.0798
 1700PEP     CB64282  20.138   5.107  21.152 -0.0711  0.3224  0.0607
 1700PEP     CB64283  20.294   5.176  21.594 -0.2976  0.2838 -0.1474
 1700PEP     CB64284  20.548   5.012  21.954 -0.2308 -0.0902  0.1063
 1700PEP     CB64285  20.488   4.955  22.352 -0.1691  0.1569 -0.1713
 1700PEP     CB64286  20.620   4.623  22.686  0.2042 -0.1365  0.0138
 1700PEP     CB64287  20.759   4.302  22.981 -0.1473 -0.2350  0.0893
 1700PEP     CB64288  21.023   4.018  23.176  0.0601  0.1938 -0.2614
 1700PEP     CB64289  21.376   3.688  23.088  0.4978 -0.0454 -0.2011
 1700PEP     CB64290  21.732   3.554  22.919 -0.0087  0.0751  0.0729
 1700PEP     CB64291  21.935   3.141  22.991  0.0368  0.2476 -0.2314
 1700PEP     CB64292  22.056   2.752  22.970  0.1100  0.2993  0.2384
 1700PEP     CB64293  22.160   2.348  22.807 -0.0966 -0.1677  0.0609
 1700PEP     CB64294  22.465   2.150  22.934  0.3409  0.0310  0.1229
 1700PEP     CB64295  22.453   2.126  23.396  0.0072 -0.2629 -0.0480
 1700PEP     CB64296  22.130   2.248  23.697 -0.1289  0.1718 -0.0357
 1700PEP     CB64297  21.708   2.045  23.843 -0.2836 -0.1084 -0.2148
 1700PEP     CB64298  21.281   1.947  23.712  0.2932  0.5068  0.1094
 1700PEP     CB64299  20.898   1.825  23.749  0.1334  0.3308 -0.2125
 1700PEP     CB64300  20.391   1.890  23.769 -0.0182  0.3105 -0.1178
 1700PEP     CB64301  19.978   1.860  24.086 -0.0579  0.2021  0.1697
 1700PEP     CB64302  19.592   1.763  24.084 -0.0213 -0.2122 -0.4539
 1700PEP     CB64303  19.409   1.576  23.779  0.2445 -0.2560  0.3141
 1700PEP     CB64304  19.272   1.532  23.438 -0.3136  0.2028 -0.0215
 1700PEP     CB64305  19.123   1.443  23.038  0.1948 -0.0107  0.0527
 1700PEP     CB64306  19.116   1.332  22.603  0.1471 -0.4465  0.2642
 1700PEP     CB64307  18.941   1.273  22.203  0.1653  0.1975 -0.1530
 1700PEP     CB64308  18.532   1.416  22.036  0.1435 -0.2584 -0.2267
 1700PEP     CB64309  18.181   1.592  22.181  0.0768  0.2231  0.0875
 1700PEP     CB64310  17.760   1.407  22.245 -0.0948  0.2050  0.2999
 1700PEP     CB64311  17.666   1.019  22.435 -0.0749 -0.5918  0.0595
 1700PEP     CB64312  17.874   0.679  22.430  0.1309  0.1443 -0.0190
 1700PEP     CB64313  18.341   0.670  22.339  0.0862  0.2844 -0.2306
 1700PEP     CB64314  18.688   0.848  22.059 -0.1435 -0.3609 -0.1868
 1700PEP     CB64315  19.064   0.904  21.804  0.1633 -0.2269  0.1380
 1700PEP     CB64316  19.559   0.893  21.801 -0.1810 -0.2870  0.1884
 1700PEP     CB64317  20.003   0.846  21.983 -0.2546  0.3569  0.0562
 1700PEP     CB64318  20.466   1.010  21.861 -0.7024  0.3049  0.1220
 1700PEP     CB64319  20.555   1.121  21.364 -0.1963 -0.1186 -0.0736
 1700PEP     CB64320  20.405   0.964  21.004 -0.0496  0.0929  0.3685
 1701PEP     CB64321  16.495   4.329   1.472  0.0176  0.3006 -0.1369
 1701PEP     CB64322  16.447   4.459   1.051 -0.1632 -0.1797 -0.4543
 1701PEP     CB64323  16.159   4.594   0.784  0.1789 -0.1037 -0.0095
 1701PEP     CB64324  15.781   4.510   0.462  0.1893 -0.1480  0.1991
 1701PEP     CB64325  15.398   4.250   0.457 -0.0969  0.2045  0.0742
 1701PEP     CB64326  15.067   3.964   0.401  0.0663 -0.2397  0.1736
 1701PEP     CB64327  14.883   3.598   0.414 -0.1615 -0.1363  0.3611
 1701PEP     CB64328  14.856   3.178   0.477  0.0121  0.1695  0.0595
 1701PEP     CB64329  15.020   2.941   0.850 -0.1380 -0.2526  0.0944
 1701PEP     CB64330  15.123   3.187   1.274 -0.1300 -0.0171  0.1870
 1701PEP     CB64331  15.368   3.490   1.333 -0.1619  0.2174  0.0900
 1701PEP     CB64332  15.758   3.567   1.057 -0.0389  0.1489 -0.0404
 1701PEP     CB64333  16.170   3.516   0.817 -0.3855 -0.2683 -0.0290
 1701PEP     CB64334  16.538   3.281   0.699  0.1127 -0.2987  0.0041
 1701PEP     CB64335  16.736   3.030   0.439 -0.0697 -0.0124  0.1320
 1701PEP     CB64336  16.623   2.879   0.029 -0.0279  0.1082 -0.3524
 1701PEP     CB64337  16.147   2.961  -0.139  0.1649  0.0801  0.0646
 1701PEP     CB64338  15.897   3.340  -0.038 -0.1509 -0.3117  0.2645
 1701PEP     CB64339  15.705   3.474   0.342  0.1564 -0.2513 -0.2509
 1701PEP     CB64340  15.434   3.816   0.641 -0.2274  0.1239 -0.1585
 1701PEP     CB64341  15.344   3.942   1.074 -0.3179  0.1087 -0.2328
 1701PEP     CB64342  15.550   4.094   1.466 -0.0937 -0.0825  0.2165
 1701PEP     CB64343  15.946   4.205   1.495 -0.5368  0.0739  0.3031
 1701PEP     CB64344  16.160   4.524   1.780  0.1757 -0.3374  0.0554
 1701PEP     CB64345  15.968   4.699   2.133  0.0138  0.2726 -0.1392
 1701PEP     CB64346  15.638   4.956   2.080 -0.0686 -0.0496  0.3169
 1701PEP     CB64347  15.257   5.000   1.916 -0.7618 -0.0084  0.0983
 1701PEP     CB64348  14.802   5.042   1.798  0.0752  0.1916 -0.0025
 1701PEP     CB64349  14.445   4.811   1.648  0.1316 -0.0971  0.0728
 1701PEP     CB64350  14.081   4.557   1.699  0.0509  0.0998 -0.0073
 1701PEP     CB64351  13.696   4.283   1.585 -0.1500  0.0667 -0.1059
 1701PEP     CB64352  13.677   3.817   1.624  0.2680  0.0003 -0.1785
 1701PEP     CB64353  14.005   3.493   1.687  0.0055  0.0542 -0.0562
 1701PEP     CB64354  14.385   3.319   1.515  0.3210  0.3227 -0.0718
 1701PEP     CB64355  14.632   3.414   1.064 -0.1973 -0.0128  0.0005
 1701PEP     CB64356  14.506   3.429   0.713 -0.2545 -0.1972  0.4088
 1701PEP     CB64357  14.377   3.113   0.540 -0.0259 -0.0362  0.0295
 1701PEP     CB64358  14.313   2.751   0.771 -0.0744 -0.2498 -0.1138
 1701PEP     CB64359  14.120   2.660   1.229  0.1217 -0.0449 -0.0389
 1701PEP     CB64360  14.213   2.423   1.650  0.0425 -0.0991  0.1716
 1702PEP     CB64361  18.338  11.622  19.164 -0.1287  0.2776 -0.2516
 1702PEP     CB64362  18.363  11.240  18.994  0.2500 -0.0847 -0.0758
 1702PEP     CB64363  18.514  10.876  18.670  0.0119 -0.0949 -0.2854
 1702PEP     CB64364  18.816  10.679  18.392 -0.2108 -0.3443  0.4224
 1702PEP     CB64365  19.085  10.720  18.104 -0.1505  0.2910  0.5749
 1702PEP     CB64366  19.443  10.822  17.837  0.1363 -0.3578 -0.2807
 1702PEP     CB64367  19.665  10.725  17.426  0.0559  0.0816 -0.0039
 1702PEP     CB64368  19.736  10.948  16.984 -0.2253  0.3346  0.1851
 1702PEP     CB64369  19.678  11.177  16.666  0.0505  0.3241 -0.0050
 1702PEP     CB64370  19.501  11.292  16.272  0.1749 -0.3277  0.1133
 1702PEP     CB64371  19.446  11.515  15.891 -0.1573  0.0155 -0.0833
 1702PEP     CB64372  19.018  11.747  15.665  0.2237  0.1653 -0.2382
 1702PEP     CB64373  18.611  11.947  15.572 -0.1886 -0.0233 -0.1897
 1702PEP     CB64374  18.121  12.119  15.703  0.0810 -0.2634  0.0799
 1702PEP     CB64375  17.721  12.108  15.533 -0.1740  0.0877 -0.1336
 1702PEP     CB64376  17.303  12.173  15.536  0.1924 -0.3336  0.1186
 1702PEP     CB64377  16.830  12.238  15.444  0.0193 -0.1942 -0.2323
 1702PEP     CB64378  16.502  12.489  15.313  0.1000 -0.0980 -0.0822
 1702PEP     CB64379  16.138  12.618  15.029  0.1387 -0.2768  0.1762
 1702PEP     CB64380  15.858  12.951  14.867 -0.1433  0.6308  0.0303
 1702PEP     CB64381  15.422  12.907  14.742 -0.2059 -0.1186 -0.0832
 1702PEP     CB64382  15.240  12.561  14.770 -0.0345 -0.0787 -0.0010
 1702PEP     CB64383  15.349  12.174  14.732 -0.1421 -0.2863  0.1949
 1702PEP     CB64384  15.268  11.765  14.776  0.0477 -0.2951  0.2286
 1702PEP     CB64385  15.283  11.347  14.888 -0.0714  0.1905  0.6761
 1702PEP     CB64386  15.332  10.954  14.826 -0.2168 -0.1860 -0.0624
 1702PEP     CB64387  15.454  10.617  14.546  0.1362 -0.1537 -0.3734
 1702PEP     CB64388  15.703  10.148  14.270  0.0130 -0.1450 -0.2104
 1702PEP     CB64389  15.824   9.715  14.168  0.0900  0.2096  0.2839
 1702PEP     CB64390  15.776   9.327  13.983  0.3442 -0.0343  0.0316
 1702PEP     CB64391  16.064   9.005  13.915 -0.1497 -0.0535  0.1530
 1702PEP     CB64392  16.507   9.088  13.898 -0.1961 -0.2067  0.0321
 1702PEP     CB64393  16.715   9.505  13.793  0.2541 -0.2135  0.1592
 1702PEP     CB64394  16.672   9.830  13.505  0.0663 -0.4281  0.2726
 1702PEP     CB64395  16.603  10.272  13.636 -0.1037 -0.2211  0.3471
 1702PEP     CB64396  16.673  10.549  14.067 -0.4954  0.8200  0.0363
 1702PEP     CB64397  16.529  10.576  14.495  0.0387 -0.2807 -0.1537
 1702PEP     CB64398  16.375  10.484  14.887  0.0713 -0.2869  0.2599
 1702PEP     CB64399  16.152  10.234  15.135  0.0467  0.1787 -0.2107
 1702PEP     CB64400  15.951   9.869  15.475  0.1460  0.2254 -0.1661
 1703PEP     CB64401  16.255   2.682  11.079  0.4544 -0.0756 -0.2952
 1703PEP     CB64402  16.748   2.518  11.095  0.1757  0.0239 -0.2273
 1703PEP     CB64403  17.053   2.366  10.815  0.0448  0.2732 -0.1762
 1703PEP     CB64404  17.471   2.282  10.601 -0.1396 -0.0044  0.0788
 1703PEP     CB64405  17.957   2.325  10.589 -0.0382 -0.0223  0.1213
 1703PEP     CB64406  18.302   2.068  10.562  0.1935 -0.0617 -0.2314
 1703PEP     CB64407  18.395   1.693  10.863 -0.0880 -0.2013  0.3431
 1703PEP     CB64408  18.184   1.403  11.073 -0.0337  0.1102 -0.1551
 1703PEP     CB64409  18.034   1.309  11.470 -0.0113 -0.3230  0.3402
 1703PEP     CB64410  18.018   1.084  11.832 -0.2629  0.0106  0.3165
 1703PEP     CB64411  17.751   1.088  12.269  0.1802 -0.0295  0.2106
 1703PEP     CB64412  17.655   1.408  12.623  0.0326 -0.2055 -0.1716
 1703PEP     CB64413  17.842   1.496  12.988 -0.2668  0.1920 -0.2182
 1703PEP     CB64414  18.307   1.457  13.170  0.0178 -0.0302  0.1157
 1703PEP     CB64415  18.621   1.259  13.074  0.1903 -0.1131 -0.0287
 1703PEP     CB64416  19.088   1.408  13.108 -0.1015  0.3198 -0.1637
 1703PEP     CB64417  19.309   1.693  13.354  0.0925 -0.0802  0.2260
 1703PEP     CB64418  19.661   1.704  13.748  0.3367 -0.0736  0.0943
 1703PEP     CB64419  20.033   1.790  13.577  0.0819 -0.2533  0.0062
 1703PEP     CB64420  20.340   1.632  13.385  0.1022 -0.0820 -0.5026
 1703PEP     CB64421  20.708   1.659  13.048  0.6242  0.1211  0.5398
 1703PEP     CB64422  20.702   1.788  12.698  0.1493 -0.3338  0.0503
 1703PEP     CB64423  20.303   1.947  12.606 -0.3479 -0.1862 -0.0652
 1703PEP     CB64424  19.953   1.699  12.530  0.1744 -0.3529 -0.3149
 1703PEP     CB64425  19.920   1.278  12.628  0.0124 -0.6086  0.1937
 1703PEP     CB64426  20.190   0.935  12.543  0.0726  0.1645 -0.0549
 1703PEP     CB64427  20.250   0.497  12.362 -0.0446  0.1955 -0.2740
 1703PEP     CB64428  20.010   0.091  12.190 -0.6264  0.1347  0.1960
 1703PEP     CB64429  19.909  -0.284  11.918  0.0759 -0.1233 -0.1090
 1703PEP     CB64430  19.966  -0.702  11.901  0.0702 -0.2407 -0.0976
 1703PEP     CB64431  19.863  -1.044  12.007 -0.2590  0.1578  0.1981
 1703PEP     CB64432  19.495  -1.165  11.937  0.0457  0.1259  0.5564
 1703PEP     CB64433  19.298  -1.110  11.491 -0.0452 -0.1153  0.3102
 1703PEP     CB64434  19.589  -0.935  11.149 -0.5985  0.0058 -0.3860
 1703PEP     CB64435  19.591  -0.575  10.765  0.5052  0.0217 -0.4629
 1703PEP     CB64436  19.512  -0.148  10.599 -0.1049 -0.5552 -0.6181
 1703PEP     CB64437  19.321   0.125  10.157  0.1137  0.0914 -0.0841
 1703PEP     CB64438  19.519   0.334   9.806  0.1165  0.3268  0.0151
 1703PEP     CB64439  19.818   0.514   9.501  0.0469  0.2400  0.2443
 1703PEP     CB64440  20.110   0.520   9.200  0.2664 -0.0523 -0.0817
 1704PEP     CB64441  11.731   1.982   7.735  0.0484  0.1869  0.0918
 1704PEP     CB64442  11.847   1.846   7.297 -0.0587  0.0128  0.1420
 1704PEP     CB64443  11.908   1.811   6.930 -0.1331 -0.1436  0.0217
 1704PEP     CB64444  11.815   2.037   6.539  0.1647  0.1191  0.1630
 1704PEP     CB64445  11.972   2.218   6.167 -0.2178  0.2925  0.0576
 1704PEP     CB64446  12.001   2.032   5.721 -0.2719 -0.2410  0.1370
 1704PEP     CB64447  11.909   1.763   5.388  0.4792  0.0145 -0.3295
 1704PEP     CB64448  11.713   1.391   5.285 -0.2368 -0.0940  0.2177
 1704PEP     CB64449  11.522   1.094   5.179 -0.0399  0.1973  0.0210
 1704PEP     CB64450  11.482   0.686   4.934  0.0748 -0.3079  0.4056
 1704PEP     CB64451  11.585   0.451   4.484  0.1016  0.0464 -0.1458
 1704PEP     CB64452  11.486   0.056   4.246  0.2169  0.3679 -0.1409
 1704PEP     CB64453  11.735  -0.398   4.294  0.2499  0.2398 -0.0296
 1704PEP     CB64454  12.101  -0.586   4.544  0.2437  0.1463  0.2060
 1704PEP     CB64455  12.484  -0.360   4.601  0.1025  0.3161 -0.0656
 1704PEP     CB64456  12.670  -0.306   4.869 -0.0967  0.3644 -0.1960
 1704PEP     CB64457  12.469  -0.287   5.291 -0.0532 -0.1787  0.1415
 1704PEP     CB64458  12.320  -0.255   5.611  0.0669  0.5568 -0.1517
 1704PEP     CB64459  12.276  -0.253   6.033  0.4557 -0.0547  0.1733
 1704PEP     CB64460  12.199  -0.063   6.506 -0.0635 -0.1536 -0.0275
 1704PEP     CB64461  12.115   0.047   7.017 -0.3282 -0.1494 -0.3700
 1704PEP     CB64462  12.306   0.299   7.262  0.1164 -0.1223  0.0307
 1704PEP     CB64463  12.588   0.700   7.308 -0.5100 -0.1091  0.0194
 1704PEP     CB64464  13.053   0.676   7.351 -0.1290 -0.1483  0.1577
 1704PEP     CB64465  13.383   0.433   7.146  0.1675 -0.1135  0.2446
 1704PEP     CB64466  13.699   0.189   6.912  0.2887  0.1185  0.0318
 1704PEP     CB64467  13.693  -0.055   6.546 -0.0761  0.0879 -0.0073
 1704PEP     CB64468  13.744  -0.446   6.374  0.1137  0.3316  0.2173
 1704PEP     CB64469  13.532  -0.924   6.402 -0.1710 -0.6057  0.2960
 1704PEP     CB64470  13.292  -1.140   6.118 -0.1096 -0.2345 -0.1934
 1704PEP     CB64471  13.084  -1.325   5.756  0.0298  0.2944 -0.0376
 1704PEP     CB64472  13.168  -1.663   5.529 -0.5157  0.2610 -0.2649
 1704PEP     CB64473  13.291  -1.972   5.250 -0.2287  0.2575  0.0570
 1704PEP     CB64474  13.155  -2.085   4.825 -0.1158  0.2020  0.2412
 1704PEP     CB64475  13.290  -2.167   4.426  0.3899 -0.4436 -0.2530
 1704PEP     CB64476  13.575  -2.416   4.208 -0.2174  0.1415  0.1339
 1704PEP     CB64477  13.832  -2.719   4.139  0.2415  0.6177 -0.1956
 1704PEP     CB64478  14.147  -2.964   4.059 -0.2789 -0.1447 -0.4966
 1704PEP     CB64479  14.354  -3.372   4.174 -0.3178  0.0021 -0.2619
 1704PEP     CB64480  14.737  -3.618   4.124 -0.0263 -0.1399 -0.0026
 1705PEP     CB64481  21.868  17.805  10.897 -0.0073 -0.1203 -0.0143
 1705PEP     CB64482  21.879  17.860  11.305 -0.1558 -0.2343  0.1172
 1705PEP     CB64483  22.159  17.701  11.666 -0.5513 -0.1572  0.0230
 1705PEP     CB64484  22.379  17.840  12.023 -0.0219  0.1421 -0.0157
 1705PEP     CB64485  22.313  17.906  12.458  0.0958 -0.1124  0.1580
 1705PEP     CB64486  22.160  18.041  12.928 -0.2020 -0.0202 -0.2751
 1705PEP     CB64487  21.962  18.238  13.224  0.0530  0.4986 -0.1674
 1705PEP     CB64488  21.919  18.507  13.533 -0.2714 -0.2866 -0.1110
 1705PEP     CB64489  21.799  18.485  13.898  0.1400 -0.2826  0.5222
 1705PEP     CB64490  21.765  18.322  14.288 -0.3448 -0.2898 -0.1037
 1705PEP     CB64491  21.880  18.112  14.579 -0.1879 -0.7043 -0.2266
 1705PEP     CB64492  22.235  18.084  14.838  0.2289 -0.1261 -0.2808
 1705PEP     CB64493  22.716  18.012  14.936 -0.0418 -0.2641  0.1491
 1705PEP     CB64494  23.036  17.738  14.880  0.0607 -0.0045  0.3972
 1705PEP     CB64495  22.866  17.334  14.657  0.0463  0.4474  0.3676
 1705PEP     CB64496  22.488  17.297  14.435 -0.1941  0.2362  0.0797
 1705PEP     CB64497  22.052  17.104  14.295  0.0874  0.1790  0.1460
 1705PEP     CB64498  21.639  16.871  14.318  0.1753  0.2800 -0.1688
 1705PEP     CB64499  21.263  16.664  14.279 -0.0739  0.2375  0.4018
 1705PEP     CB64500  21.075  16.640  13.890 -0.3283  0.1107  0.0577
 1705PEP     CB64501  20.837  16.994  13.594 -0.0583 -0.0948  0.1612
 1705PEP     CB64502  20.616  17.412  13.608  0.0244 -0.1482  0.1942
 1705PEP     CB64503  20.213  17.658  13.493  0.0791 -0.1025  0.0737
 1705PEP     CB64504  19.775  17.756  13.632 -0.2937 -0.1607 -0.0235
 1705PEP     CB64505  19.494  17.642  13.915  0.2856 -0.2583  0.0772
 1705PEP     CB64506  19.320  17.289  14.140 -0.2354 -0.2717  0.3952
 1705PEP     CB64507  19.134  16.990  14.108  0.4105 -0.0121 -0.1394
 1705PEP     CB64508  19.040  16.662  13.857 -0.2459  0.0790  0.1155
 1705PEP     CB64509  19.039  16.494  13.384 -0.2163 -0.6865 -0.1519
 1705PEP     CB64510  19.221  16.293  13.027 -0.1763 -0.4061  0.0958
 1705PEP     CB64511  19.604  16.021  12.823  0.3923  0.0933 -0.0994
 1705PEP     CB64512  19.667  15.733  12.551 -0.1293 -0.0241  0.2905
 1705PEP     CB64513  19.949  15.642  12.079 -0.2167  0.2485  0.0723
 1705PEP     CB64514  20.271  15.791  11.723 -0.0269  0.0635  0.2387
 1705PEP     CB64515  20.663  16.091  11.636 -0.3486  0.0639 -0.2602
 1705PEP     CB64516  21.069  16.204  11.517 -0.3493 -0.1054  0.0400
 1705PEP     CB64517  21.306  16.311  11.197 -0.0902 -0.1284 -0.0446
 1705PEP     CB64518  21.368  16.238  10.805  0.0417  0.3389 -0.2938
 1705PEP     CB64519  21.543  16.380  10.403 -0.1131  0.1335  0.2035
 1705PEP     CB64520  21.749  16.428  10.026 -0.1369  0.1547 -0.4359
 1706PEP     CB64521  13.362   1.897  21.204 -0.0113 -0.2492  0.3869
 1706PEP     CB64522  13.001   1.745  21.083 -0.0604  0.3041 -0.0394
 1706PEP     CB64523  12.536   1.586  21.036  0.3828 -0.1799  0.0461
 1706PEP     CB64524  12.171   1.389  21.054  0.2092 -0.0493  0.0198
 1706PEP     CB64525  11.891   1.593  20.651  0.0420  0.0372 -0.0112
 1706PEP     CB64526  12.016   1.743  20.275 -0.1098  0.0305 -0.0938
 1706PEP     CB64527  11.853   1.735  19.794 -0.0287 -0.0086 -0.1602
 1706PEP     CB64528  11.729   1.933  19.420 -0.1688  0.0635  0.0136
 1706PEP     CB64529  12.120   2.147  19.229  0.1574 -0.0129 -0.2790
 1706PEP     CB64530  12.484   2.263  19.491  0.0378  0.1822 -0.5895
 1706PEP     CB64531  12.617   2.114  19.934 -0.2413 -0.0315  0.0024
 1706PEP     CB64532  12.859   1.647  19.949 -0.0424  0.3073  0.3179
 1706PEP     CB64533  12.768   1.319  19.667 -0.2583 -0.0949 -0.4098
 1706PEP     CB64534  12.908   1.210  19.205  0.2317 -0.1762  0.2473
 1706PEP     CB64535  12.882   1.215  18.868 -0.0528  0.1481 -0.4097
 1706PEP     CB64536  12.812   1.308  18.403  0.5736  0.4274 -0.0768
 1706PEP     CB64537  12.598   1.356  18.039  0.1806  0.3675  0.1564
 1706PEP     CB64538  12.284   1.419  17.769 -0.0817 -0.3775  0.4166
 1706PEP     CB64539  11.892   1.619  17.696 -0.2777  0.4468  0.0203
 1706PEP     CB64540  11.994   1.917  17.423  0.0702 -0.1404  0.1582
 1706PEP     CB64541  12.001   2.143  16.944  0.3551 -0.0912  0.1174
 1706PEP     CB64542  12.277   2.024  16.614  0.4849  0.2445 -0.1124
 1706PEP     CB64543  12.294   1.610  16.478  0.0299  0.0720 -0.3906
 1706PEP     CB64544  12.023   1.523  16.191 -0.2930  0.0020  0.1331
 1706PEP     CB64545  11.856   1.834  16.025  0.2973  0.0427  0.2703
 1706PEP     CB64546  11.704   2.268  15.851  0.1393 -0.6164 -0.4257
 1706PEP     CB64547  11.837   2.705  15.917  0.0341  0.1335 -0.0513
 1706PEP     CB64548  12.046   3.015  16.100 -0.5449 -0.5825  0.4581
 1706PEP     CB64549  12.266   3.409  16.010  0.1428 -0.3645  0.3662
 1706PEP     CB64550  12.602   3.741  15.964 -0.3418 -0.1949  0.2065
 1706PEP     CB64551  12.825   4.075  16.231 -0.4272 -0.0887 -0.2081
 1706PEP     CB64552  13.162   4.365  16.386 -0.1384  0.0181 -0.1082
 1706PEP     CB64553  13.460   4.571  16.593 -0.1464  0.1133  0.3006
 1706PEP     CB64554  13.833   4.602  16.829  0.1745  0.0354  0.0362
 1706PEP     CB64555  14.279   4.611  16.876 -0.2456  0.2820  0.2157
 1706PEP     CB64556  14.578   4.353  16.972  0.2566 -0.0752 -0.1535
 1706PEP     CB64557  14.612   4.029  17.317 -0.0499 -0.0976  0.1235
 1706PEP     CB64558  14.865   3.842  17.602 -0.0526  0.1210  0.2187
 1706PEP     CB64559  15.037   3.711  18.003 -0.2849 -0.0674 -0.2207
 1706PEP     CB64560  15.158   3.358  18.269 -0.3728 -0.0314  0.1289
 1707PEP     CB64561   9.680  19.735   9.713 -0.3643  0.0965 -0.0554
 1707PEP     CB64562   9.317  20.097   9.801 -0.6536 -0.0497 -0.2440
 1707PEP     CB64563   8.862  20.243   9.855 -0.0271 -0.4929 -0.0278
 1707PEP     CB64564   8.412  20.431  10.117 -0.1449  0.1630  0.2332
 1707PEP     CB64565   8.112  20.756  10.232 -0.4091 -0.4195 -0.2352
 1707PEP     CB64566   7.992  20.944  10.579 -0.0549  0.0512 -0.1560
 1707PEP     CB64567   7.967  20.798  11.043  0.0340  0.0421 -0.1175
 1707PEP     CB64568   7.688  20.857  11.485  0.1085  0.3166  0.1544
 1707PEP     CB64569   7.400  21.158  11.594 -0.1801 -0.0950  0.1320
 1707PEP     CB64570   7.457  21.611  11.702  0.0376  0.1956  0.0024
 1707PEP     CB64571   7.583  21.950  11.770 -0.3388 -0.1218 -0.1161
 1707PEP     CB64572   7.734  22.379  11.786  0.3214  0.0091 -0.0814
 1707PEP     CB64573   7.620  22.707  11.668  0.2225 -0.1158  0.0687
 1707PEP     CB64574   7.531  23.085  11.941  0.3634 -0.1310 -0.1363
 1707PEP     CB64575   7.483  22.948  12.425 -0.0668  0.1589  0.0046
 1707PEP     CB64576   7.209  22.665  12.684 -0.1713  0.1290 -0.1934
 1707PEP     CB64577   7.283  22.263  12.755 -0.2232 -0.1973 -0.0933
 1707PEP     CB64578   7.464  21.941  12.555  0.1282  0.1666 -0.1394
 1707PEP     CB64579   7.356  21.814  12.172  0.3785 -0.2365 -0.3980
 1707PEP     CB64580   7.103  21.913  11.847 -0.4365  0.0743 -0.0297
 1707PEP     CB64581   6.769  22.117  11.597  0.0112  0.2276 -0.3521
 1707PEP     CB64582   6.654  22.390  11.330  0.1037 -0.0048  0.4084
 1707PEP     CB64583   6.562  22.578  10.957  0.0145  0.1400 -0.2990
 1707PEP     CB64584   6.548  22.509  10.544 -0.0135 -0.2204 -0.2290
 1707PEP     CB64585   6.698  22.277  10.257  0.0735 -0.7717  0.0117
 1707PEP     CB64586   6.897  22.408   9.848 -0.4229 -0.2039  0.0105
 1707PEP     CB64587   6.938  22.846   9.682 -0.2390  0.0156  0.3862
 1707PEP     CB64588   6.704  23.201   9.832  0.0747 -0.1354 -0.3671
 1707PEP     CB64589   6.501  23.300  10.218  0.1119 -0.3466 -0.3001
 1707PEP     CB64590   6.718  23.389  10.587  0.4094  0.1508 -0.1820
 1707PEP     CB64591   6.826  23.204  10.892 -0.2342  0.2872  0.2168
 1707PEP     CB64592   6.999  22.778  10.768  0.1852 -0.0465  0.0005
 1707PEP     CB64593   7.145  22.415  10.498  0.0767  0.0424 -0.3570
 1707PEP     CB64594   7.298  21.990  10.305  0.3941  0.0392 -0.1147
 1707PEP     CB64595   7.407  21.609  10.093  0.2708  0.1382 -0.0547
 1707PEP     CB64596   7.789  21.283   9.963  0.2445 -0.0369 -0.4925
 1707PEP     CB64597   8.118  21.213   9.963 -0.3227 -0.1777  0.1994
 1707PEP     CB64598   8.377  20.937   9.833 -0.0699  0.0270  0.0023
 1707PEP     CB64599   8.086  20.489   9.766 -0.4369 -0.0784 -0.5884
 1707PEP     CB64600   7.951  20.252  10.132  0.5359 -0.1589 -0.1224
 1708PEP     CB64601  20.702   7.147   2.309 -0.2894 -0.0037 -0.2402
 1708PEP     CB64602  20.475   6.889   2.026 -0.1368 -0.0048  0.1938
 1708PEP     CB64603  20.474   6.433   1.812  0.0918  0.0058 -0.1878
 1708PEP     CB64604  20.347   5.951   1.781 -0.3087 -0.0151  0.0465
 1708PEP     CB64605  20.476   5.526   1.857 -0.1437 -0.1001  0.0418
 1708PEP     CB64606  20.845   5.395   1.872 -0.3418  0.0243 -0.2156
 1708PEP     CB64607  21.216   5.205   1.860 -0.2637  0.0765  0.2523
 1708PEP     CB64608  21.665   5.033   2.083  0.0075  0.3113  0.0217
 1708PEP     CB64609  22.006   4.888   2.334 -0.8949 -0.1812 -0.0113
 1708PEP     CB64610  22.438   4.741   2.470  0.0953  0.0380  0.1470
 1708PEP     CB64611  22.509   4.467   2.687 -0.2599 -0.2831  0.0538
 1708PEP     CB64612  22.299   4.043   2.815 -0.0331  0.0914  0.3589
 1708PEP     CB64613  21.929   3.809   2.996  0.1372  0.3851 -0.4609
 1708PEP     CB64614  21.573   3.518   3.071  0.1017  0.1497  0.2772
 1708PEP     CB64615  21.357   3.243   3.374 -0.2045  0.2771 -0.0392
 1708PEP     CB64616  21.259   2.775   3.462 -0.1896  0.0645 -0.1780
 1708PEP     CB64617  21.377   2.411   3.225 -0.0376  0.0343  0.2077
 1708PEP     CB64618  21.523   2.057   3.255  0.2440 -0.0694 -0.0677
 1708PEP     CB64619  21.436   1.695   3.109 -0.0485  0.2102  0.0651
 1708PEP     CB64620  21.247   1.480   2.769  0.0391 -0.3629 -0.1303
 1708PEP     CB64621  21.128   1.088   2.511  0.1370  0.1803 -0.4231
 1708PEP     CB64622  21.202   0.806   2.160  0.0560 -0.0742 -0.1339
 1708PEP     CB64623  21.060   0.465   1.982  0.2586 -0.6704 -0.1028
 1708PEP     CB64624  20.991   0.112   2.019 -0.2570 -0.2389  0.3346
 1708PEP     CB64625  21.165  -0.148   2.314 -0.0465 -0.1642 -0.0848
 1708PEP     CB64626  21.645  -0.229   2.428 -0.0909 -0.0552 -0.1774
 1708PEP     CB64627  22.023  -0.028   2.369 -0.0443 -0.2116 -0.2046
 1708PEP     CB64628  22.155   0.446   2.295  0.0577 -0.0776  0.2849
 1708PEP     CB64629  22.138   0.745   1.846  0.1052 -0.0381  0.0675
 1708PEP     CB64630  21.858   0.637   1.507 -0.1723 -0.3117  0.0758
 1708PEP     CB64631  21.416   0.401   1.674  0.4423  0.4740 -0.0381
 1708PEP     CB64632  21.493   0.033   1.966 -0.0061 -0.1236 -0.0615
 1708PEP     CB64633  21.843  -0.248   1.960  0.1301 -0.1005 -0.0039
 1708PEP     CB64634  22.249  -0.144   1.893  0.1189 -0.2847 -0.1860
 1708PEP     CB64635  22.625   0.089   2.100 -0.2673 -0.2920  0.0445
 1708PEP     CB64636  22.711   0.445   2.277  0.0335  0.2997 -0.3105
 1708PEP     CB64637  22.974   0.867   2.265 -0.3686 -0.0219  0.1042
 1708PEP     CB64638  23.083   1.138   2.576  0.1976 -0.0952  0.1346
 1708PEP     CB64639  23.107   1.309   3.054  0.1954 -0.3579  0.3566
 1708PEP     CB64640  23.034   1.529   3.349 -0.2475  0.3927 -0.0576
 1709PEP     CB64641  14.755   8.552  18.110  0.3516 -0.1622  0.1730
 1709PEP     CB64642  15.153   8.542  18.095  0.1651 -0.0398 -0.4017
 1709PEP     CB64643  15.507   8.450  18.353  0.0266 -0.0162  0.1119
 1709PEP     CB64644  15.519   8.213  18.712 -0.0241 -0.0162  0.2400
 1709PEP     CB64645  15.259   8.169  19.074 -0.0893  0.2053 -0.4472
 1709PEP     CB64646  14.876   7.938  19.328  0.1168 -0.2575 -0.1464
 1709PEP     CB64647  14.786   7.652  19.670 -0.1097 -0.0263 -0.0610
 1709PEP     CB64648  14.735   7.570  20.132 -0.1799 -0.1925 -0.2730
 1709PEP     CB64649  14.697   7.479  20.575 -0.1414 -0.5126  0.0605
 1709PEP     CB64650  14.432   7.200  20.824  0.0337  0.0705  0.0272
 1709PEP     CB64651  14.337   6.784  20.861 -0.0058 -0.0043 -0.1971
 1709PEP     CB64652  14.021   6.562  20.754  0.2190 -0.1242  0.0009
 1709PEP     CB64653  13.595   6.415  20.666 -0.2114 -0.1739  0.0375
 1709PEP     CB64654  13.234   6.431  20.609 -0.0100 -0.0280  0.0194
 1709PEP     CB64655  12.753   6.529  20.663  0.3583 -0.1865  0.1186
 1709PEP     CB64656  12.460   6.389  20.472  0.2623  0.1112 -0.0952
 1709PEP     CB64657  12.339   6.160  20.154  0.1466  0.0955 -0.1005
 1709PEP     CB64658  12.497   6.020  19.664 -0.0146  0.1163  0.1295
 1709PEP     CB64659  12.609   6.250  19.252  0.3725  0.1273  0.0848
 1709PEP     CB64660  13.024   6.550  19.014 -0.1976  0.0278 -0.1570
 1709PEP     CB64661  13.359   6.805  18.860  0.4015 -0.5087  0.2508
 1709PEP     CB64662  13.797   6.841  18.703 -0.4314  0.3383  0.1372
 1709PEP     CB64663  14.029   6.590  18.447  0.1659 -0.2612 -0.3357
 1709PEP     CB64664  14.110   6.192  18.181  0.0607  0.0371 -0.0012
 1709PEP     CB64665  14.192   5.795  18.041  0.1740  0.0076  0.0468
 1709PEP     CB64666  14.182   5.340  18.014 -0.1025 -0.1038  0.0454
 1709PEP     CB64667  14.407   5.017  17.851  0.3682  0.3800 -0.0092
 1709PEP     CB64668  14.710   4.786  17.682 -0.0881  0.0215  0.1639
 1709PEP     CB64669  14.867   4.482  17.299 -0.0484  0.2350  0.1859
 1709PEP     CB64670  15.152   4.168  17.349 -0.2453 -0.4361  0.2291
 1709PEP     CB64671  15.476   3.914  17.121  0.5448 -0.0901  0.0317
 1709PEP     CB64672  15.587   3.607  16.845 -0.4195 -0.0714 -0.2843
 1709PEP     CB64673  15.573   3.530  16.533 -0.0019 -0.1144 -0.0521
 1709PEP     CB64674  15.363   3.725  16.181 -0.0712  0.0656  0.0115
 1709PEP     CB64675  14.923   3.916  16.166 -0.1856 -0.2005 -0.1013
 1709PEP     CB64676  14.623   4.170  16.204  0.3648 -0.3518 -0.1040
 1709PEP     CB64677  14.341   4.523  16.404  0.2841  0.1316  0.1723
 1709PEP     CB64678  13.946   4.834  16.424 -0.0057  0.0843  0.0161
 1709PEP     CB64679  13.948   5.114  16.786  0.3955  0.1573  0.0967
 1709PEP     CB64680  14.301   5.068  17.135 -0.3898  0.0540 -0.0940
 1710PEP     CB64681  17.566  11.632   6.756  0.3169  0.3861 -0.0952
 1710PEP     CB64682  17.428  12.016   6.802  0.1835  0.2340 -0.2189
 1710PEP     CB64683  17.569  12.490   6.760 -0.1730 -0.1972  0.3409
 1710PEP     CB64684  17.913  12.673   6.817  0.4073  0.1611  0.3068
 1710PEP     CB64685  18.344  12.481   6.754  0.2283  0.4429  0.1020
 1710PEP     CB64686  18.679  12.252   6.824  0.1703 -0.3205  0.1366
 1710PEP     CB64687  19.030  12.178   6.579  0.2502 -0.2244  0.1203
 1710PEP     CB64688  19.268  11.908   6.307 -0.2430  0.2301  0.4822
 1710PEP     CB64689  19.585  11.916   6.011  0.1471  0.0693  0.0887
 1710PEP     CB64690  19.716  11.876   5.600  0.2162 -0.0418  0.3077
 1710PEP     CB64691  19.547  11.733   5.171  0.1906  0.1720  0.0808
 1710PEP     CB64692  19.151  11.815   4.986  0.1196 -0.1774  0.1285
 1710PEP     CB64693  18.875  12.136   5.140  0.1892  0.1356 -0.1364
 1710PEP     CB64694  18.906  12.348   5.569 -0.0024 -0.0413  0.1883
 1710PEP     CB64695  18.791  12.681   5.866  0.1514  0.5858  0.4243
 1710PEP     CB64696  18.740  12.859   6.369 -0.3443  0.1393 -0.0204
 1710PEP     CB64697  18.558  13.070   6.721 -0.0181 -0.0015  0.3224
 1710PEP     CB64698  18.570  13.241   7.162  0.0304  0.2395  0.3622
 1710PEP     CB64699  18.358  13.630   7.426  0.0223  0.0774  0.0339
 1710PEP     CB64700  18.174  14.078   7.402 -0.2455 -0.2346 -0.2257
 1710PEP     CB64701  17.785  14.367   7.436 -0.3006  0.0177  0.1530
 1710PEP     CB64702  17.574  14.463   7.786 -0.2999 -0.0267 -0.2331
 1710PEP     CB64703  17.273  14.367   8.141 -0.0584  0.2426 -0.1776
 1710PEP     CB64704  16.937  14.172   8.237 -0.0157  0.2173  0.5836
 1710PEP     CB64705  16.659  13.775   8.294  0.4990  0.0978 -0.0532
 1710PEP     CB64706  16.381  13.392   8.346  0.0596  0.1683 -0.2154
 1710PEP     CB64707  16.011  13.205   8.209 -0.4271  0.0231  0.1617
 1710PEP     CB64708  15.532  13.011   8.213  0.3595  0.1945  0.0176
 1710PEP     CB64709  15.320  12.700   8.262  0.1844 -0.0197 -0.2387
 1710PEP     CB64710  15.398  12.308   8.427 -0.4437 -0.4802 -0.1788
 1710PEP     CB64711  15.537  11.929   8.650 -0.3609 -0.0558  0.2363
 1710PEP     CB64712  15.884  11.639   8.686  0.0715 -0.0225 -0.0454
 1710PEP     CB64713  16.130  11.389   8.899  0.3626  0.5166  0.0975
 1710PEP     CB64714  15.921  11.118   9.174  0.0262 -0.5644  0.3204
 1710PEP     CB64715  15.649  10.765   9.059  0.2184 -0.0074 -0.3664
 1710PEP     CB64716  15.545  10.766   8.594 -0.0256  0.1355 -0.5492
 1710PEP     CB64717  15.728  11.015   8.224 -0.4052  0.0052 -0.1644
 1710PEP     CB64718  16.007  11.191   7.907 -0.4027  0.2036 -0.1233
 1710PEP     CB64719  16.466  11.227   7.838  0.4519 -0.3083 -0.0229
 1710PEP     CB64720  16.870  11.425   7.695 -0.0742  0.2651 -0.3395
 1711PEP     CB64721  21.060  16.575   2.908  0.2245 -0.0946 -0.4315
 1711PEP     CB64722  20.856  16.854   3.102  0.0877 -0.3010  0.1036
 1711PEP     CB64723  20.839  17.318   3.087 -0.0439  0.4454  0.3532
 1711PEP     CB64724  20.410  17.532   3.275  0.3144  0.1293 -0.1482
 1711PEP     CB64725  20.093  17.441   3.430  0.0930  0.0197 -0.2407
 1711PEP     CB64726  19.754  17.557   3.836 -0.2490  0.1074  0.2136
 1711PEP     CB64727  19.383  17.550   4.035  0.0419 -0.1033  0.0102
 1711PEP     CB64728  19.170  17.283   4.335 -0.0920 -0.2640 -0.2170
 1711PEP     CB64729  18.912  17.342   4.678 -0.3851 -0.1733 -0.1141
 1711PEP     CB64730  18.866  17.378   5.049  0.1645 -0.0952 -0.1789
 1711PEP     CB64731  18.927  17.325   5.460 -0.0002 -0.1236  0.1280
 1711PEP     CB64732  19.042  17.159   5.915  0.5206  0.0537 -0.3213
 1711PEP     CB64733  19.334  17.317   6.238 -0.0351 -0.2030  0.1951
 1711PEP     CB64734  19.528  17.497   6.608  0.0768 -0.4587 -0.1665
 1711PEP     CB64735  19.499  17.856   6.933 -0.1493 -0.1052 -0.0121
 1711PEP     CB64736  19.141  18.046   7.072 -0.2666 -0.1148 -0.2721
 1711PEP     CB64737  18.684  18.055   6.980 -0.1227 -0.0642 -0.3098
 1711PEP     CB64738  18.197  18.315   7.071  0.0034  0.1160  0.2319
 1711PEP     CB64739  18.113  18.714   7.206 -0.1281 -0.3880  0.0464
 1711PEP     CB64740  18.312  19.015   6.940  0.1943  0.2831  0.2149
 1711PEP     CB64741  18.753  18.936   6.810 -0.2188 -0.0395  0.0204
 1711PEP     CB64742  19.032  18.648   6.684  0.2195  0.1920  0.4459
 1711PEP     CB64743  18.969  18.307   6.441  0.0606 -0.5883 -0.0789
 1711PEP     CB64744  18.840  17.977   6.268  0.4698 -0.2037  0.1379
 1711PEP     CB64745  18.443  17.901   6.047  0.0618  0.2361  0.0360
 1711PEP     CB64746  18.049  18.204   6.085 -0.1579 -0.1391 -0.1831
 1711PEP     CB64747  17.820  18.525   6.113 -0.2341 -0.0930  0.1323
 1711PEP     CB64748  17.538  18.627   6.535  0.0755  0.4108 -0.1289
 1711PEP     CB64749  17.469  18.726   7.019 -0.1799 -0.0776  0.4084
 1711PEP     CB64750  17.149  18.885   7.393 -0.2373  0.2142 -0.2146
 1711PEP     CB64751  16.899  19.194   7.601  0.0562 -0.4481  0.4499
 1711PEP     CB64752  16.619  19.470   7.861  0.1328 -0.0362  0.3852
 1711PEP     CB64753  16.190  19.473   7.942  0.1125  0.1016 -0.0989
 1711PEP     CB64754  15.802  19.555   7.854 -0.4865  0.1585  0.2256
 1711PEP     CB64755  15.567  19.704   7.450  0.1603  0.1274  0.1265
 1711PEP     CB64756  15.790  19.918   7.166 -0.4856  0.0154  0.0270
 1711PEP     CB64757  16.096  20.216   6.903  0.0063  0.1862  0.1607
 1711PEP     CB64758  16.474  20.384   6.694  0.0311 -0.0946 -0.2482
 1711PEP     CB64759  16.819  20.644   6.511  0.1471 -0.0058 -0.5403
 1711PEP     CB64760  16.974  20.867   6.092 -0.3759 -0.0814 -0.4762
 1712PEP     CB64761   7.881  13.503  15.101  0.0135 -0.0853  0.4720
 1712PEP     CB64762   7.515  13.442  15.294 -0.4008 -0.1049  0.0557
 1712PEP     CB64763   7.155  13.242  15.315  0.1315  0.0188 -0.3310
 1712PEP     CB64764   7.129  12.809  15.177 -0.1784 -0.0537 -0.1652
 1712PEP     CB64765   7.074  12.420  15.004  0.1459 -0.4944 -0.0218
 1712PEP     CB64766   6.898  12.132  15.197  0.0278 -0.1367 -0.3440
 1712PEP     CB64767   6.840  11.793  15.468  0.0629 -0.0240 -0.1643
 1712PEP     CB64768   6.767  11.726  15.914  0.1244  0.1604  0.1450
 1712PEP     CB64769   6.835  11.998  16.265 -0.2571  0.4017  0.1538
 1712PEP     CB64770   6.779  12.359  16.550 -0.0894 -0.2760 -0.1049
 1712PEP     CB64771   6.494  12.706  16.471  0.1351 -0.0564 -0.3056
 1712PEP     CB64772   6.442  12.982  16.202  0.1060 -0.0678  0.0575
 1712PEP     CB64773   6.557  13.219  15.909  0.1660  0.3506 -0.2390
 1712PEP     CB64774   6.757  13.498  15.646 -0.4176 -0.1817  0.3038
 1712PEP     CB64775   6.899  13.926  15.636  0.1323  0.1435  0.3789
 1712PEP     CB64776   6.891  14.088  16.009  0.0279 -0.0373  0.4594
 1712PEP     CB64777   6.461  14.241  16.195  0.0168  0.1666 -0.2521
 1712PEP     CB64778   6.124  13.932  16.230 -0.3916 -0.5839  0.0589
 1712PEP     CB64779   6.137  13.501  16.118 -0.2061  0.0598 -0.1744
 1712PEP     CB64780   5.943  13.194  15.967  0.3456  0.0451  0.0484
 1712PEP     CB64781   5.637  13.290  15.671 -0.1001 -0.3656  0.0586
 1712PEP     CB64782   5.911  13.737  15.588  0.2001 -0.4481  0.2491
 1712PEP     CB64783   6.323  13.849  15.753  0.0653 -0.0344  0.2060
 1712PEP     CB64784   6.574  13.733  16.099  0.3614  0.0180 -0.4236
 1712PEP     CB64785   6.638  13.401  16.407  0.1502 -0.0718  0.0368
 1712PEP     CB64786   6.862  12.992  16.558 -0.1762  0.1454 -0.0322
 1712PEP     CB64787   6.725  12.744  16.915 -0.5411 -0.0882  0.3132
 1712PEP     CB64788   6.558  12.932  17.349  0.1065 -0.2786  0.3692
 1712PEP     CB64789   6.283  13.278  17.315 -0.2150  0.6470 -0.3385
 1712PEP     CB64790   6.071  13.658  17.264  0.0573 -0.0907 -0.1216
 1712PEP     CB64791   6.035  14.063  17.327 -0.3686  0.0210  0.0453
 1712PEP     CB64792   6.241  14.358  17.513 -0.0842 -0.2082  0.4605
 1712PEP     CB64793   6.556  14.463  17.876 -0.1475 -0.0784 -0.0046
 1712PEP     CB64794   6.862  14.185  18.029 -0.6324 -0.1980 -0.1345
 1712PEP     CB64795   6.717  13.766  17.946 -0.1799  0.1788  0.0766
 1712PEP     CB64796   6.282  13.812  17.731  0.1185  0.0464 -0.0581
 1712PEP     CB64797   5.847  14.003  17.782 -0.3073 -0.0113 -0.1420
 1712PEP     CB64798   5.403  13.820  17.764 -0.3216 -0.1513 -0.0337
 1712PEP     CB64799   5.063  13.782  17.549 -0.2311  0.2907  0.0769
 1712PEP     CB64800   5.018  13.685  17.103  0.0476  0.2123 -0.0182
 1713PEP     CB64801  13.409  18.896   6.188  0.2588 -0.0838 -0.0171
 1713PEP     CB64802  13.244  19.292   6.339  0.4228  0.3907 -0.2298
 1713PEP     CB64803  13.092  19.514   6.639  0.3754 -0.0810  0.1323
 1713PEP     CB64804  13.173  19.871   6.881 -0.1159 -0.2918  0.3053
 1713PEP     CB64805  13.291  19.964   7.337  0.0694  0.0405 -0.1690
 1713PEP     CB64806  13.354  20.351   7.668  0.0412 -0.0307 -0.3299
 1713PEP     CB64807  13.260  20.817   7.661  0.2586  0.2111 -0.2864
 1713PEP     CB64808  13.416  21.210   7.414  0.0826  0.2732 -0.0975
 1713PEP     CB64809  13.089  21.360   7.182 -0.2899 -0.3644 -0.0715
 1713PEP     CB64810  12.620  21.410   7.263 -0.3272  0.3960 -0.4515
 1713PEP     CB64811  12.193  21.238   7.234  0.3738  0.1368  0.1340
 1713PEP     CB64812  11.798  21.117   7.223 -0.1779 -0.0675 -0.0378
 1713PEP     CB64813  11.580  20.791   7.068 -0.0797  0.2636 -0.0864
 1713PEP     CB64814  11.769  20.531   6.668 -0.3041 -0.2184 -0.5538
 1713PEP     CB64815  11.699  20.681   6.242  0.0099  0.0548  0.1940
 1713PEP     CB64816  11.468  21.036   6.020  0.3977 -0.0588  0.0992
 1713PEP     CB64817  11.039  21.194   6.022 -0.3450  0.1097  0.0171
 1713PEP     CB64818  10.886  21.708   6.133  0.3691  0.0153 -0.0122
 1713PEP     CB64819  11.191  22.066   6.072  0.2957  0.2095 -0.3051
 1713PEP     CB64820  11.366  22.398   6.266 -0.0781 -0.1783  0.4370
 1713PEP     CB64821  11.649  22.769   6.251  0.2635  0.3203 -0.4858
 1713PEP     CB64822  11.849  23.002   6.542  0.1431 -0.0456  0.4018
 1713PEP     CB64823  11.824  22.895   6.922  0.0953  0.0926  0.4251
 1713PEP     CB64824  11.919  22.499   6.889 -0.1772  0.1979 -0.2944
 1713PEP     CB64825  11.828  22.351   6.470 -0.0620 -0.0695 -0.1985
 1713PEP     CB64826  11.832  22.064   6.181  0.1401 -0.3996 -0.1394
 1713PEP     CB64827  11.805  21.750   5.761 -0.0637  0.0195  0.0663
 1713PEP     CB64828  12.002  21.509   5.370  0.1571 -0.1509  0.2225
 1713PEP     CB64829  11.894  21.381   4.949  0.0326 -0.3034  0.1306
 1713PEP     CB64830  11.598  21.189   4.673 -0.0058  0.4255 -0.4132
 1713PEP     CB64831  11.367  20.871   4.691 -0.1798 -0.0906 -0.1010
 1713PEP     CB64832  10.959  20.735   4.697  0.0938 -0.1342 -0.1415
 1713PEP     CB64833  10.836  20.235   4.646  0.1005 -0.0256 -0.0134
 1713PEP     CB64834  11.097  19.953   4.750 -0.2014 -0.1426 -0.1253
 1713PEP     CB64835  11.458  20.014   4.994  0.2410  0.1520 -0.0614
 1713PEP     CB64836  11.536  20.157   5.408 -0.1228 -0.2018 -0.3901
 1713PEP     CB64837  11.634  20.010   5.773  0.0822 -0.1641  0.4922
 1713PEP     CB64838  11.685  19.799   6.169  0.0326  0.7373 -0.3497
 1713PEP     CB64839  11.776  19.861   6.646  0.0581 -0.0155 -0.3463
 1713PEP     CB64840  11.599  19.704   7.007 -0.1624  0.3239  0.2843
 1714PEP     CB64841  12.948  12.984   1.926 -0.1693 -0.3310 -0.0650
 1714PEP     CB64842  13.142  13.119   2.309 -0.2103 -0.2824  0.0065
 1714PEP     CB64843  13.270  12.893   2.786  0.1856  0.5818  0.1130
 1714PEP     CB64844  13.240  12.585   3.130 -0.0659  0.0962  0.0083
 1714PEP     CB64845  12.930  12.375   3.429 -0.2141 -0.0842 -0.2568
 1714PEP     CB64846  12.455  12.346   3.527  0.0263 -0.0282 -0.3397
 1714PEP     CB64847  12.184  12.675   3.707  0.1654  0.3408  0.0615
 1714PEP     CB64848  11.881  12.847   3.993 -0.0599  0.0156  0.0129
 1714PEP     CB64849  11.763  13.055   4.379 -0.0731 -0.0907 -0.4485
 1714PEP     CB64850  11.756  13.367   4.752 -0.1103  0.5133 -0.1236
 1714PEP     CB64851  11.547  13.578   5.047 -0.0486 -0.3312  0.2616
 1714PEP     CB64852  11.314  13.964   5.053 -0.2169  0.0846 -0.2766
 1714PEP     CB64853  11.012  14.170   4.801  0.1230 -0.0433  0.1208
 1714PEP     CB64854  10.827  14.060   4.378  0.0856  0.3555 -0.4704
 1714PEP     CB64855  10.502  13.872   4.360  0.1155 -0.1057  0.1737
 1714PEP     CB64856  10.413  13.512   4.533 -0.1748 -0.0159 -0.4987
 1714PEP     CB64857  10.050  13.343   4.468  0.1974 -0.3596  0.5001
 1714PEP     CB64858   9.778  13.504   4.313 -0.1509  0.0625  0.0047
 1714PEP     CB64859   9.623  13.878   4.060 -0.1093 -0.3697 -0.3840
 1714PEP     CB64860   9.744  14.299   4.085 -0.4260  0.1329 -0.2406
 1714PEP     CB64861   9.852  14.555   4.387  0.2029 -0.5617 -0.2582
 1714PEP     CB64862   9.993  14.919   4.579 -0.1584 -0.2217  0.4807
 1714PEP     CB64863  10.077  15.347   4.586 -0.2791  0.0924  0.0044
 1714PEP     CB64864  10.066  15.652   4.241 -0.1965  0.5927  0.2003
 1714PEP     CB64865  10.167  15.798   3.774  0.1941 -0.1554  0.0488
 1714PEP     CB64866  10.062  15.919   3.489 -0.0432  0.2187 -0.3831
 1714PEP     CB64867   9.859  16.151   3.219  0.3665  0.2151 -0.0310
 1714PEP     CB64868   9.507  16.539   3.163  0.1585  0.0100 -0.0870
 1714PEP     CB64869   9.542  17.029   3.260 -0.2357 -0.1862 -0.1643
 1714PEP     CB64870   9.402  17.366   3.350 -0.2674  0.4042  0.5701
 1714PEP     CB64871   9.096  17.622   3.209 -0.2000 -0.0503 -0.3941
 1714PEP     CB64872   8.671  17.873   3.097 -0.1447  0.1795 -0.0144
 1714PEP     CB64873   8.281  18.097   3.164 -0.2983 -0.3926  0.2259
 1714PEP     CB64874   7.939  18.240   3.085  0.0254 -0.1423 -0.2539
 1714PEP     CB64875   7.559  18.119   3.078 -0.1398 -0.4268 -0.3880
 1714PEP     CB64876   7.238  17.816   3.036 -0.1862  0.2599 -0.1076
 1714PEP     CB64877   7.233  17.505   2.701  0.0076 -0.2123  0.4032
 1714PEP     CB64878   6.980  17.521   2.345  0.3315  0.2222 -0.0471
 1714PEP     CB64879   6.831  17.747   1.944  0.3483 -0.1622 -0.0118
 1714PEP     CB64880   6.960  18.040   1.607 -0.4500 -0.1126 -0.1832
 1715PEP     CB64881  16.423  20.049  11.110  0.1102 -0.2285 -0.1785
 1715PEP     CB64882  16.551  19.650  10.846  0.1675 -0.0965  0.0542
 1715PEP     CB64883  16.677  19.488  10.432  0.3431 -0.0294 -0.0948
 1715PEP     CB64884  16.657  19.315  10.085  0.2693 -0.4004  0.1645
 1715PEP     CB64885  16.614  19.367   9.646  0.1677 -0.0530  0.1719
 1715PEP     CB64886  16.635  19.473   9.089 -0.5605  0.1816 -0.1452
 1715PEP     CB64887  16.623  19.496   8.693 -0.2173 -0.1900 -0.2294
 1715PEP     CB64888  16.391  19.194   8.337  0.2276  0.3343 -0.1435
 1715PEP     CB64889  15.997  18.960   8.214  0.2138 -0.0658 -0.0134
 1715PEP     CB64890  15.606  18.979   8.037 -0.1981  0.0883  0.0580
 1715PEP     CB64891  15.152  18.823   8.107  0.2950  0.1794  0.1980
 1715PEP     CB64892  14.780  18.884   7.948 -0.1149  0.4063 -0.0259
 1715PEP     CB64893  14.584  18.832   7.552 -0.0402  0.0700 -0.2615
 1715PEP     CB64894  14.526  18.654   7.213 -0.1241  0.1590 -0.2885
 1715PEP     CB64895  14.478  18.266   7.173  0.2801 -0.2247  0.3289
 1715PEP     CB64896  14.327  17.899   7.392 -0.1052  0.4326  0.1967
 1715PEP     CB64897  14.144  17.476   7.508  0.1618 -0.0530 -0.0748
 1715PEP     CB64898  14.230  16.973   7.510 -0.4839 -0.0733 -0.0273
 1715PEP     CB64899  14.385  16.566   7.423 -0.0749  0.2182 -0.0452
 1715PEP     CB64900  14.494  16.150   7.415 -0.1751  0.1418 -0.2869
 1715PEP     CB64901  14.259  15.783   7.439 -0.1917 -0.0895 -0.0656
 1715PEP     CB64902  14.154  15.393   7.203 -0.0251  0.1247  0.2299
 1715PEP     CB64903  14.395  15.123   7.023 -0.1849  0.1154 -0.1278
 1715PEP     CB64904  14.694  14.988   6.766  0.5984 -0.5799 -0.0049
 1715PEP     CB64905  15.033  14.674   6.709  0.0163  0.5320  0.0183
 1715PEP     CB64906  15.272  14.383   6.965 -0.3483  0.2307 -0.0796
 1715PEP     CB64907  15.208  14.238   7.356  0.2496  0.1531 -0.0283
 1715PEP     CB64908  15.262  14.025   7.817  0.1308  0.2882  0.2229
 1715PEP     CB64909  15.515  14.199   8.252  0.5069 -0.1465 -0.0438
 1715PEP     CB64910  15.826  14.231   8.629 -0.2665 -0.5276  0.2126
 1715PEP     CB64911  16.058  14.479   8.995  0.0570  0.1345 -0.0829
 1715PEP     CB64912  16.109  14.445   9.356  0.1451  0.3082 -0.3401
 1715PEP     CB64913  16.169  14.344   9.819 -0.1579 -0.2665 -0.1390
 1715PEP     CB64914  16.196  14.387  10.207 -0.3135  0.2503  0.3983
 1715PEP     CB64915  15.934  14.435  10.554 -0.0268 -0.1683 -0.4464
 1715PEP     CB64916  15.472  14.189  10.593 -0.4385  0.4740  0.0096
 1715PEP     CB64917  15.397  13.803  10.305  0.3085 -0.0775  0.2192
 1715PEP     CB64918  15.671  13.496  10.150 -0.2004  0.1549  0.1491
 1715PEP     CB64919  16.105  13.588  10.061 -0.1667  0.2005 -0.1722
 1715PEP     CB64920  16.410  13.902   9.888  0.1673  0.1691  0.2362
 1716PEP     CB64921  10.727   1.139   9.864  0.2179  0.3429  0.0152
 1716PEP     CB64922  10.488   1.084  10.142  0.2812 -0.2457  0.1923
 1716PEP     CB64923  10.192   0.814  10.439 -0.2152 -0.0433  0.2867
 1716PEP     CB64924  10.123   0.454  10.725 -0.0121  0.1443 -0.2314
 1716PEP     CB64925   9.978   0.085  10.869 -0.0086  0.2597  0.0311
 1716PEP     CB64926   9.641  -0.221  10.715  0.0297  0.2013 -0.0701
 1716PEP     CB64927   9.403  -0.594  10.641 -0.0695 -0.1420 -0.3816
 1716PEP     CB64928   9.063  -0.966  10.712  0.0135 -0.2715 -0.0019
 1716PEP     CB64929   9.023  -1.342  10.764 -0.0400  0.1062  0.0050
 1716PEP     CB64930   9.231  -1.645  10.955 -0.3059  0.1303 -0.3679
 1716PEP     CB64931   9.582  -1.931  11.165 -0.2180  0.0186  0.0068
 1716PEP     CB64932  10.011  -2.023  11.379 -0.3065  0.1091 -0.0072
 1716PEP     CB64933  10.227  -2.094  11.694 -0.2879 -0.4129  0.1564
 1716PEP     CB64934  10.407  -2.166  12.080  0.0031  0.1474  0.1133
 1716PEP     CB64935  10.514  -1.878  12.407 -0.1422  0.4343 -0.0340
 1716PEP     CB64936  10.424  -1.561  12.799  0.2076  0.2259  0.0445
 1716PEP     CB64937  10.422  -1.144  13.024  0.1251  0.2073  0.2819
 1716PEP     CB64938  10.657  -0.712  13.035  0.2502  0.2559  0.1449
 1716PEP     CB64939  10.500  -0.253  13.034  0.3906  0.0486  0.2098
 1716PEP     CB64940  10.270   0.100  13.084 -0.0424  0.3042 -0.2049
 1716PEP     CB64941   9.925   0.341  13.325 -0.3396  0.2744 -0.3426
 1716PEP     CB64942   9.492   0.390  13.468  0.2703  0.2873  0.0879
 1716PEP     CB64943   9.162   0.355  13.768 -0.2081  0.0567  0.1158
 1716PEP     CB64944   8.729   0.649  13.875  0.0546 -0.1761  0.2972
 1716PEP     CB64945   8.523   1.080  14.122  0.4481  0.2825 -0.1444
 1716PEP     CB64946   8.634   1.514  14.298  0.0475  0.2896  0.0604
 1716PEP     CB64947   8.609   1.640  14.747  0.0363  0.0497  0.4530
 1716PEP     CB64948   8.332   1.724  15.099  0.0285 -0.3406 -0.0444
 1716PEP     CB64949   8.076   1.551  15.411 -0.0299 -0.0249 -0.0317
 1716PEP     CB64950   8.102   1.166  15.626  0.1932  0.2054 -0.0529
 1716PEP     CB64951   8.222   0.718  15.529  0.0984  0.0005  0.0813
 1716PEP     CB64952   8.516   0.508  15.588 -0.2388  0.1534  0.0037
 1716PEP     CB64953   8.757   0.522  15.930  0.1421  0.0400  0.0757
 1716PEP     CB64954   8.944   0.183  16.160  0.1066 -0.4462 -0.2572
 1716PEP     CB64955   9.081  -0.225  16.323 -0.2382 -0.2631  0.0551
 1716PEP     CB64956   8.999  -0.565  16.590  0.1099 -0.0168 -0.2476
 1716PEP     CB64957   8.612  -0.820  16.737 -0.0350  0.0483 -0.2419
 1716PEP     CB64958   8.220  -1.113  16.686  0.4473 -0.0190  0.3779
 1716PEP     CB64959   7.765  -1.283  16.615  0.0311 -0.0174 -0.1073
 1716PEP     CB64960   7.353  -1.087  16.495 -0.2939 -0.2502 -0.0537
 1717PEP     CB64961   6.776  13.191   0.756 -0.1313 -0.2995  0.5175
 1717PEP     CB64962   7.165  13.325   0.920 -0.0264 -0.2575  0.5512
 1717PEP     CB64963   7.415  13.604   1.093 -0.0414 -0.0513 -0.1854
 1717PEP     CB64964   7.707  13.815   1.241 -0.0496  0.2018 -0.3216
 1717PEP     CB64965   8.158  13.846   1.230  0.1763 -0.1103  0.3106
 1717PEP     CB64966   8.398  13.515   1.047 -0.0033 -0.3940  0.3048
 1717PEP     CB64967   8.453  13.327   0.689  0.3595 -0.2919 -0.0690
 1717PEP     CB64968   8.270  13.384   0.298  0.1760  0.1606 -0.2020
 1717PEP     CB64969   8.035  13.776   0.284  0.1331 -0.1818 -0.1153
 1717PEP     CB64970   8.036  14.196   0.387 -0.1683  0.4719 -0.1431
 1717PEP     CB64971   8.044  14.662   0.332  0.0256 -0.5147  0.0784
 1717PEP     CB64972   8.099  15.110   0.487 -0.3870  0.1077  0.0894
 1717PEP     CB64973   8.207  15.508   0.738 -0.1839 -0.1744  0.0112
 1717PEP     CB64974   8.331  15.822   0.879  0.2276  0.1013  0.2213
 1717PEP     CB64975   8.355  16.254   0.951  0.0255  0.2817 -0.3496
 1717PEP     CB64976   8.561  16.636   1.128 -0.1060  0.0934  0.1898
 1717PEP     CB64977   8.549  16.959   0.908 -0.0714 -0.1287  0.0770
 1717PEP     CB64978   8.670  16.970   0.471  0.5423 -0.2999  0.3258
 1717PEP     CB64979   8.666  16.806   0.129 -0.2026  0.4388 -0.0654
 1717PEP     CB64980   8.667  16.372   0.051 -0.3128  0.0882 -0.2125
 1717PEP     CB64981   8.983  16.043   0.218 -0.0480  0.4150 -0.1173
 1717PEP     CB64982   9.334  15.762   0.357 -0.2157  0.1571  0.1070
 1717PEP     CB64983   9.316  15.379   0.623 -0.1413 -0.2607 -0.4415
 1717PEP     CB64984   9.603  15.197   0.913  0.1992  0.0313 -0.2787
 1717PEP     CB64985   9.947  14.962   0.835 -0.1956  0.0067  0.0436
 1717PEP     CB64986   9.904  14.503   0.934  0.3987 -0.0690  0.1017
 1717PEP     CB64987   9.519  14.250   0.824  0.0731  0.3500 -0.1236
 1717PEP     CB64988   9.015  14.179   0.866  0.1311  0.2903 -0.0652
 1717PEP     CB64989   8.797  13.852   1.171 -0.1560  0.0170 -0.3646
 1717PEP     CB64990   9.057  13.576   1.354 -0.0376  0.4185 -0.3608
 1717PEP     CB64991   9.531  13.592   1.373  0.1231 -0.1010 -0.4167
 1717PEP     CB64992   9.754  13.907   1.480  0.0746 -0.1023 -0.0046
 1717PEP     CB64993   9.720  14.367   1.649  0.0454  0.0472 -0.1698
 1717PEP     CB64994   9.447  14.759   1.658  0.2703  0.1455 -0.2094
 1717PEP     CB64995   9.202  14.964   1.934  0.1809  0.4479  0.1867
 1717PEP     CB64996   9.196  15.229   2.311  0.0982 -0.2012 -0.0264
 1717PEP     CB64997   9.502  15.278   2.603 -0.3944 -0.0521  0.3108
 1717PEP     CB64998   9.939  15.338   2.505 -0.0488 -0.0243 -0.0427
 1717PEP     CB64999  10.131  15.380   2.005 -0.0311  0.1383  0.1707
 1717PEP     CB65000  10.120  15.595   1.569  0.2641 -0.1126 -0.0731
 1718PEP     CB65001   2.846   8.653  20.082 -0.5212  0.5018 -0.2426
 1718PEP     CB65002   2.658   8.685  20.390 -0.1424  0.1004  0.3703
 1718PEP     CB65003   2.344   8.792  20.641 -0.0693  0.0060 -0.2979
 1718PEP     CB65004   2.245   9.071  21.016 -0.1307  0.0749 -0.0622
 1718PEP     CB65005   2.473   9.356  21.206 -0.2632  0.2963 -0.5130
 1718PEP     CB65006   2.996   9.449  21.067 -0.0416 -0.1421  0.1282
 1718PEP     CB65007   3.217   9.332  20.770 -0.0867  0.1824  0.0714
 1718PEP     CB65008   3.261   9.031  20.407  0.1185 -0.1977  0.0898
 1718PEP     CB65009   3.157   8.979  19.901  0.2174  0.0752 -0.1241
 1718PEP     CB65010   3.060   8.928  19.368  0.2558 -0.4300 -0.4889
 1718PEP     CB65011   2.742   8.922  19.096  0.1089 -0.1726 -0.0666
 1718PEP     CB65012   2.307   8.934  18.881  0.1824 -0.3068 -0.2914
 1718PEP     CB65013   2.005   9.179  18.640  0.3246  0.1879 -0.4708
 1718PEP     CB65014   1.573   9.196  18.424 -0.1374  0.1036  0.3087
 1718PEP     CB65015   1.202   8.937  18.444 -0.0013  0.2637  0.0165
 1718PEP     CB65016   0.807   8.703  18.566  0.3636  0.0508 -0.0403
 1718PEP     CB65017   0.422   8.501  18.466 -0.1069  0.0548  0.3655
 1718PEP     CB65018   0.017   8.412  18.720  0.0792 -0.1690 -0.1789
 1718PEP     CB65019  -0.174   8.636  18.927  0.0731  0.1294 -0.0799
 1718PEP     CB65020   0.066   9.018  19.204 -0.2782 -0.0508 -0.1458
 1718PEP     CB65021   0.446   9.229  19.326  0.4566  0.3483 -0.0521
 1718PEP     CB65022   0.670   9.200  19.677  0.0674  0.2832 -0.5217
 1718PEP     CB65023   0.716   8.977  20.062  0.1422 -0.0160 -0.3799
 1718PEP     CB65024   0.541   8.895  20.425  0.0449  0.1679 -0.0018
 1718PEP     CB65025   0.403   8.656  20.782 -0.3335 -0.0465 -0.2224
 1718PEP     CB65026   0.247   8.482  21.200 -0.0188  0.1636 -0.3256
 1718PEP     CB65027   0.049   8.543  21.524 -0.0332 -0.1758  0.4392
 1718PEP     CB65028  -0.181   8.425  21.845  0.1820  0.0441  0.0340
 1718PEP     CB65029  -0.481   8.101  22.112 -0.0503  0.2329  0.2273
 1718PEP     CB65030  -0.531   8.149  22.561  0.1451 -0.0191 -0.1919
 1718PEP     CB65031  -0.220   8.443  22.918  0.0210  0.0518  0.2088
 1718PEP     CB65032   0.202   8.425  22.926  0.3457  0.1513  0.0423
 1718PEP     CB65033   0.463   8.322  22.531 -0.0223 -0.1475 -0.0680
 1718PEP     CB65034   0.250   8.248  22.116 -0.1053 -0.2104 -0.0278
 1718PEP     CB65035  -0.002   7.956  22.085 -0.4835 -0.0945  0.5661
 1718PEP     CB65036   0.161   7.575  22.338 -0.7792 -0.3176 -0.1052
 1718PEP     CB65037   0.609   7.571  22.334 -0.0825 -0.0825 -0.2004
 1718PEP     CB65038   0.966   7.461  22.091  0.1616  0.2159  0.1598
 1718PEP     CB65039   1.288   7.333  21.786 -0.0384 -0.0733  0.4598
 1718PEP     CB65040   1.668   7.538  21.597  0.0476 -0.1943 -0.1535
 1719PEP     CB65041  18.638  13.552   3.802  0.2853  0.2010 -0.0339
 1719PEP     CB65042  18.550  13.830   3.404 -0.5318  0.3414  0.3180
 1719PEP     CB65043  18.860  14.039   3.127  0.0575 -0.1774  0.1310
 1719PEP     CB65044  18.963  14.229   2.763 -0.0964 -0.0140  0.2872
 1719PEP     CB65045  19.095  14.236   2.325 -0.2727 -0.0341  0.1759
 1719PEP     CB65046  19.188  14.477   1.964  0.0122  0.1699  0.1775
 1719PEP     CB65047  19.362  14.824   1.739  0.4997  0.1093 -0.1247
 1719PEP     CB65048  19.199  14.896   1.318 -0.4728 -0.0586 -0.0464
 1719PEP     CB65049  18.812  14.754   1.071 -0.0958  0.0294 -0.1120
 1719PEP     CB65050  18.529  14.476   0.959 -0.0230 -0.4033 -0.0588
 1719PEP     CB65051  18.371  14.062   0.949 -0.3485 -0.2290  0.3341
 1719PEP     CB65052  18.053  13.823   0.844 -0.1293 -0.0937 -0.3864
 1719PEP     CB65053  17.582  13.898   0.798  0.2851  0.0491  0.4346
 1719PEP     CB65054  17.383  14.330   0.854 -0.1365 -0.1711  0.0948
 1719PEP     CB65055  17.469  14.683   1.120  0.2002 -0.2580 -0.2315
 1719PEP     CB65056  17.365  14.863   1.556  0.1960  0.0574  0.0040
 1719PEP     CB65057  17.124  15.201   1.721  0.1095 -0.1124  0.0177
 1719PEP     CB65058  16.688  15.292   1.837 -0.2069  0.0327 -0.1424
 1719PEP     CB65059  16.311  15.316   1.820  0.0163  0.0436 -0.2475
 1719PEP     CB65060  15.851  15.414   1.927 -0.3314 -0.0157  0.2095
 1719PEP     CB65061  15.538  15.620   2.083  0.0945  0.2109 -0.3134
 1719PEP     CB65062  15.165  15.880   1.946 -0.0845 -0.1708  0.3109
 1719PEP     CB65063  14.968  16.176   1.943 -0.1403 -0.2004 -0.2241
 1719PEP     CB65064  14.810  16.663   1.941 -0.2060  0.1144  0.0174
 1719PEP     CB65065  14.745  16.935   2.190  0.0757 -0.1288  0.1832
 1719PEP     CB65066  14.434  17.283   2.353  0.0676 -0.0592  0.3071
 1719PEP     CB65067  13.955  17.242   2.344 -0.0419  0.2424 -0.2936
 1719PEP     CB65068  13.805  16.877   2.503 -0.3259 -0.2526 -0.0608
 1719PEP     CB65069  13.885  16.369   2.355 -0.1527 -0.1396  0.0719
 1719PEP     CB65070  14.261  16.076   2.187 -0.3656  0.0944 -0.0145
 1719PEP     CB65071  14.522  15.966   1.804  0.1712  0.1707  0.2578
 1719PEP     CB65072  14.789  15.898   1.466  0.2538 -0.0483  0.0063
 1719PEP     CB65073  14.790  15.612   1.134 -0.0050  0.1420 -0.2409
 1719PEP     CB65074  14.753  15.125   1.173  0.0162  0.1532  0.0012
 1719PEP     CB65075  14.582  14.822   1.379 -0.0370  0.1770  0.1028
 1719PEP     CB65076  14.821  14.547   1.530 -0.1641 -0.3234 -0.1438
 1719PEP     CB65077  15.270  14.421   1.237 -0.0807  0.0218 -0.3232
 1719PEP     CB65078  15.638  14.544   1.006 -0.2641 -0.2212  0.0686
 1719PEP     CB65079  15.990  14.815   0.846 -0.2958  0.1420  0.0532
 1719PEP     CB65080  16.400  15.005   0.866  0.0581 -0.2474  0.0176
 1720PEP     CB65081  15.298  13.029  20.091 -0.1182 -0.0644 -0.0058
 1720PEP     CB65082  15.627  13.208  19.943 -0.1100  0.1376 -0.1372
 1720PEP     CB65083  15.989  13.070  19.707  0.2052  0.3326 -0.0836
 1720PEP     CB65084  16.377  13.038  19.537 -0.1630  0.2090  0.2608
 1720PEP     CB65085  16.491  13.037  19.232  0.1284  0.0304  0.0667
 1720PEP     CB65086  16.328  12.838  18.918 -0.1410 -0.1420  0.0015
 1720PEP     CB65087  15.963  12.881  18.667 -0.1150  0.3933  0.4497
 1720PEP     CB65088  15.486  13.024  18.828  0.1869 -0.1058 -0.0145
 1720PEP     CB65089  15.252  13.225  19.147  0.0084  0.1791 -0.3974
 1720PEP     CB65090  15.083  13.189  19.598 -0.2166 -0.2221  0.0409
 1720PEP     CB65091  14.890  12.874  19.848 -0.2019 -0.2898 -0.0219
 1720PEP     CB65092  14.443  12.667  19.963 -0.2325  0.0258 -0.2287
 1720PEP     CB65093  14.052  12.334  19.765 -0.0236  0.4401 -0.3341
 1720PEP     CB65094  14.023  11.934  19.555 -0.1675 -0.2491 -0.2288
 1720PEP     CB65095  14.106  11.829  19.150 -0.1628  0.0637 -0.3960
 1720PEP     CB65096  14.416  11.702  18.879 -0.1113  0.0134  0.1078
 1720PEP     CB65097  14.716  11.621  18.509  0.2508 -0.1535 -0.2783
 1720PEP     CB65098  15.091  11.737  18.216  0.2129  0.1655  0.1558
 1720PEP     CB65099  15.389  12.096  18.254  0.3143  0.2214 -0.1233
 1720PEP     CB65100  15.815  12.354  18.419 -0.0644 -0.3686 -0.3433
 1720PEP     CB65101  16.300  12.403  18.531  0.2059  0.0001  0.1640
 1720PEP     CB65102  16.743  12.456  18.455  0.0070  0.5343  0.0607
 1720PEP     CB65103  17.135  12.436  18.693 -0.0867  0.1114 -0.2588
 1720PEP     CB65104  17.155  12.681  19.089 -0.0530  0.2440 -0.1317
 1720PEP     CB65105  16.793  12.625  19.319 -0.0950 -0.2053 -0.2785
 1720PEP     CB65106  16.314  12.465  19.409 -0.1192 -0.1412 -0.4942
 1720PEP     CB65107  15.897  12.422  19.643 -0.0358 -0.1971  0.0320
 1720PEP     CB65108  15.727  12.174  19.968  0.4256  0.1059  0.6163
 1720PEP     CB65109  15.331  12.080  20.220 -0.2594 -0.2488  0.4581
 1720PEP     CB65110  14.954  11.900  20.061 -0.2653 -0.0041 -0.2316
 1720PEP     CB65111  14.952  11.694  19.651 -0.0536  0.2368 -0.1753
 1720PEP     CB65112  15.317  11.664  19.521 -0.1363  0.1967 -0.0323
 1720PEP     CB65113  15.786  11.756  19.676 -0.0727 -0.2070 -0.2490
 1720PEP     CB65114  16.157  11.577  19.588 -0.1375 -0.3688  0.2025
 1720PEP     CB65115  16.503  11.347  19.491 -0.0727 -0.2692 -0.1979
 1720PEP     CB65116  16.801  11.065  19.713  0.2271  0.4414  0.6631
 1720PEP     CB65117  17.229  10.961  19.581 -0.0681 -0.2027 -0.1842
 1720PEP     CB65118  17.554  10.699  19.741 -0.0623  0.2564 -0.1566
 1720PEP     CB65119  17.525  10.533  20.117  0.1133  0.0610  0.0940
 1720PEP     CB65120  17.505  10.688  20.558  0.1488 -0.3313  0.2375
 1721PEP     CB65121   9.695   3.058  20.492 -0.1666  0.0060  0.0764
 1721PEP     CB65122   9.472   3.438  20.612  0.3410  0.0249  0.1719
 1721PEP     CB65123   9.089   3.655  20.446  0.0209 -0.3971  0.0966
 1721PEP     CB65124   8.908   3.754  20.046 -0.1449  0.2168  0.1085
 1721PEP     CB65125   8.592   4.028  19.871  0.1836 -0.3674 -0.2288
 1721PEP     CB65126   8.675   4.534  19.896  0.0751 -0.4130  0.1171
 1721PEP     CB65127   9.048   4.660  20.025 -0.1804 -0.1797  0.3210
 1721PEP     CB65128   9.322   4.825  19.737 -0.2471 -0.2077  0.1555
 1721PEP     CB65129   9.634   4.842  19.427 -0.4194 -0.3614  0.0020
 1721PEP     CB65130   9.775   4.691  18.990 -0.3300 -0.1285 -0.2944
 1721PEP     CB65131   9.927   4.333  18.732 -0.0199  0.2117 -0.2368
 1721PEP     CB65132   9.773   4.012  18.505  0.0399 -0.1175 -0.0340
 1721PEP     CB65133   9.461   3.656  18.372  0.3925  0.2150  0.3195
 1721PEP     CB65134   9.323   3.366  18.140  0.2282 -0.1251  0.0868
 1721PEP     CB65135   9.143   3.001  18.249 -0.5274 -0.4099 -0.3540
 1721PEP     CB65136   9.099   2.538  18.452  0.2624  0.1562  0.4349
 1721PEP     CB65137   8.926   2.201  18.289 -0.0052  0.1139 -0.5026
 1721PEP     CB65138   8.536   2.293  17.969 -0.3345 -0.0538  0.2940
 1721PEP     CB65139   8.475   2.782  17.790 -0.0999 -0.1241 -0.0430
 1721PEP     CB65140   8.537   3.257  17.818  0.3566  0.0010  0.4784
 1721PEP     CB65141   8.804   3.570  18.019 -0.1605  0.1602  0.2429
 1721PEP     CB65142   8.824   3.724  18.376  0.2150 -0.1581 -0.1002
 1721PEP     CB65143   8.615   3.729  18.709  0.3011  0.3467 -0.2574
 1721PEP     CB65144   8.378   3.949  19.010 -0.0877  0.2369 -0.0884
 1721PEP     CB65145   7.964   4.027  19.165  0.0335 -0.0534 -0.0791
 1721PEP     CB65146   7.688   4.263  19.325  0.2281  0.1372  0.2889
 1721PEP     CB65147   7.543   4.273  19.818 -0.4078  0.0310 -0.1107
 1721PEP     CB65148   7.467   4.479  20.269 -0.1846  0.0002  0.1904
 1721PEP     CB65149   7.323   4.542  20.697 -0.3131 -0.2193  0.0049
 1721PEP     CB65150   7.018   4.811  20.745 -0.2216 -0.2053 -0.0681
 1721PEP     CB65151   6.549   4.642  20.752  0.0629  0.2344 -0.1537
 1721PEP     CB65152   6.263   4.349  20.783 -0.3635  0.1282  0.2521
 1721PEP     CB65153   6.106   4.080  20.439  0.2038 -0.3407 -0.3719
 1721PEP     CB65154   6.273   3.688  20.066  0.0211  0.1382 -0.5227
 1721PEP     CB65155   6.690   3.621  19.751 -0.0561 -0.1336  0.2977
 1721PEP     CB65156   7.044   3.544  19.560 -0.2352  0.0274 -0.0783
 1721PEP     CB65157   7.332   3.216  19.493 -0.0951  0.1012 -0.1787
 1721PEP     CB65158   7.716   2.909  19.495  0.1799 -0.2290 -0.2176
 1721PEP     CB65159   8.041   2.594  19.505  0.1761  0.0882 -0.1880
 1721PEP     CB65160   8.276   2.328  19.784 -0.0706  0.2836 -0.1006
 1722PEP     CB65161   4.453  21.425   0.256  0.0053 -0.0160  0.1730
 1722PEP     CB65162   4.778  21.306   0.038 -0.2335  0.6326 -0.2277
 1722PEP     CB65163   4.855  20.878  -0.179 -0.1591  0.2030 -0.0975
 1722PEP     CB65164   4.597  20.528  -0.193  0.2018  0.1036  0.2285
 1722PEP     CB65165   4.161  20.429   0.059  0.1589 -0.1139 -0.1492
 1722PEP     CB65166   3.787  20.340   0.351  0.2375  0.0658  0.1924
 1722PEP     CB65167   3.440  20.509   0.545  0.0520 -0.0285  0.1278
 1722PEP     CB65168   2.977  20.693   0.559 -0.1443  0.3741  0.0574
 1722PEP     CB65169   2.682  20.978   0.474  0.2267  0.1386 -0.1215
 1722PEP     CB65170   2.470  21.272   0.796 -0.2024  0.2976 -0.0910
 1722PEP     CB65171   2.325  21.264   1.219  0.0260 -0.1665 -0.3183
 1722PEP     CB65172   2.246  21.580   1.524 -0.2919  0.1974 -0.0361
 1722PEP     CB65173   2.238  21.959   1.309 -0.2285 -0.0362  0.1538
 1722PEP     CB65174   2.125  21.860   0.856 -0.2079  0.3720  0.2245
 1722PEP     CB65175   2.085  21.423   0.548 -0.0192  0.0920  0.0206
 1722PEP     CB65176   2.113  20.976   0.500 -0.0045 -0.1437 -0.2194
 1722PEP     CB65177   2.362  20.610   0.457  0.0759 -0.1853 -0.0436
 1722PEP     CB65178   2.656  20.543   0.139 -0.1663 -0.1348  0.0532
 1722PEP     CB65179   3.106  20.610  -0.064 -0.0568 -0.2306  0.2930
 1722PEP     CB65180   3.459  20.292  -0.026  0.0088 -0.2719 -0.1907
 1722PEP     CB65181   3.422  19.888   0.273 -0.1125  0.0175 -0.1524
 1722PEP     CB65182   3.143  19.657   0.504 -0.1390 -0.1360 -0.3930
 1722PEP     CB65183   2.940  19.685   0.860  0.3207 -0.2117 -0.1630
 1722PEP     CB65184   2.574  19.818   1.167 -0.0405 -0.5426  0.4293
 1722PEP     CB65185   2.348  19.958   1.485  0.2170  0.0578 -0.0240
 1722PEP     CB65186   2.310  20.190   1.852  0.0942  0.1960  0.0969
 1722PEP     CB65187   2.304  20.619   2.030  0.2915  0.1744 -0.3935
 1722PEP     CB65188   2.633  20.906   2.214 -0.0442  0.3505  0.4278
 1722PEP     CB65189   2.703  21.268   2.512  0.2185  0.3728 -0.2425
 1722PEP     CB65190   2.517  21.373   2.850 -0.4005 -0.2503 -0.0713
 1722PEP     CB65191   2.298  21.342   3.183  0.3644 -0.3249  0.4026
 1722PEP     CB65192   2.001  21.234   3.456  0.5665  0.0946 -0.4533
 1722PEP     CB65193   1.943  21.161   3.882 -0.3439 -0.1747  0.1529
 1722PEP     CB65194   1.899  20.879   4.297  0.2675 -0.4163 -0.0942
 1722PEP     CB65195   2.113  20.592   4.533 -0.3404 -0.0799  0.1678
 1722PEP     CB65196   2.407  20.468   4.850  0.1058 -0.0710  0.1335
 1722PEP     CB65197   2.917  20.449   5.142 -0.1629  0.0823 -0.2861
 1722PEP     CB65198   3.278  20.286   5.428 -0.0414  0.3438 -0.1011
 1722PEP     CB65199   3.555  20.227   5.810  0.2887 -0.2090 -0.3596
 1722PEP     CB65200   3.862  20.114   6.087 -0.1062 -0.0940  0.2445
 1723PEP     CB65201   9.368   1.048   0.916  0.0781 -0.2404  0.1955
 1723PEP     CB65202   9.521   1.375   0.762 -0.0208 -0.2323  0.1157
 1723PEP     CB65203   9.740   1.756   0.707  0.1849 -0.1701 -0.2053
 1723PEP     CB65204   9.708   2.141   0.890  0.2824 -0.2947  0.0658
 1723PEP     CB65205   9.730   2.548   0.879 -0.0305 -0.1197 -0.2517
 1723PEP     CB65206   9.553   2.976   0.733  0.1118 -0.2456 -0.1404
 1723PEP     CB65207   9.647   3.318   0.388  0.3928  0.0367  0.1273
 1723PEP     CB65208   9.522   3.647   0.276  0.1430 -0.0875 -0.1510
 1723PEP     CB65209   9.421   3.944  -0.007  0.2289  0.5473 -0.2440
 1723PEP     CB65210   9.028   3.852  -0.325  0.1439  0.4454 -0.3123
 1723PEP     CB65211   8.765   3.654  -0.186  0.3494  0.0738 -0.4034
 1723PEP     CB65212   8.380   3.472  -0.079 -0.1295  0.0532 -0.2302
 1723PEP     CB65213   8.213   3.180  -0.273 -0.0818 -0.4190  0.0258
 1723PEP     CB65214   8.230   3.077  -0.734 -0.0056  0.0124 -0.0783
 1723PEP     CB65215   8.526   3.214  -1.069  0.0814 -0.0669  0.2343
 1723PEP     CB65216   8.747   3.616  -1.103  0.1525  0.0606 -0.0413
 1723PEP     CB65217   8.826   4.028  -1.121 -0.1035 -0.2711 -0.1158
 1723PEP     CB65218   8.639   4.391  -1.103  0.1179  0.0904 -0.4494
 1723PEP     CB65219   8.388   4.513  -0.734 -0.0206  0.0057 -0.0752
 1723PEP     CB65220   8.297   4.427  -0.202 -0.2724  0.0200  0.0861
 1723PEP     CB65221   8.034   4.272   0.096  0.2055 -0.0819 -0.4308
 1723PEP     CB65222   7.748   4.197   0.494  0.2106 -0.0760 -0.8174
 1723PEP     CB65223   7.513   4.053   0.732 -0.1397 -0.1987 -0.0261
 1723PEP     CB65224   7.189   3.779   0.779  0.3372 -0.2091  0.3007
 1723PEP     CB65225   6.902   3.603   0.939 -0.1257  0.0958  0.0035
 1723PEP     CB65226   6.674   3.823   1.264 -0.0094 -0.1202  0.1528
 1723PEP     CB65227   6.567   4.262   1.259 -0.2853  0.0039 -0.2296
 1723PEP     CB65228   6.493   4.679   1.515  0.4084  0.3032 -0.0654
 1723PEP     CB65229   6.278   5.102   1.474  0.4521  0.3116  0.2476
 1723PEP     CB65230   6.074   5.414   1.705 -0.1520 -0.5814 -0.2641
 1723PEP     CB65231   5.789   5.793   1.805 -0.0710  0.0814  0.0092
 1723PEP     CB65232   5.399   6.053   1.745  0.0403  0.1448  0.2716
 1723PEP     CB65233   5.113   6.449   1.619 -0.2461  0.5900 -0.2411
 1723PEP     CB65234   4.704   6.584   1.710  0.0501 -0.1326 -0.4278
 1723PEP     CB65235   4.295   6.667   1.952  0.0870  0.0983  0.5091
 1723PEP     CB65236   3.843   6.742   1.955 -0.1445  0.3709 -0.3147
 1723PEP     CB65237   3.555   6.359   1.899 -0.0179 -0.5721  0.1858
 1723PEP     CB65238   3.483   5.925   2.074  0.1119 -0.1773  0.0691
 1723PEP     CB65239   3.390   5.504   2.079  0.0159  0.0991  0.0182
 1723PEP     CB65240   3.057   5.199   2.142 -0.2662 -0.1414  0.0604
 1724PEP     CB65241   2.172   5.965   0.031 -0.0516  0.1571 -0.0409
 1724PEP     CB65242   2.188   5.609   0.254  0.0399  0.1378  0.1370
 1724PEP     CB65243   2.249   5.287   0.432 -0.0865  0.1261 -0.1842
 1724PEP     CB65244   2.080   4.865   0.561  0.2029  0.1605 -0.0602
 1724PEP     CB65245   2.092   4.609   0.899 -0.3106 -0.0798 -0.0542
 1724PEP     CB65246   2.138   4.630   1.398  0.0176 -0.1752 -0.3810
 1724PEP     CB65247   2.288   5.033   1.580 -0.4027 -0.0799  0.5816
 1724PEP     CB65248   2.215   5.466   1.822  0.1432  0.2349 -0.3560
 1724PEP     CB65249   1.953   5.781   1.768  0.2478 -0.0222 -0.1849
 1724PEP     CB65250   1.653   5.982   1.387  0.1928  0.0593  0.3549
 1724PEP     CB65251   1.420   5.931   1.007 -0.1710  0.1810  0.2021
 1724PEP     CB65252   1.492   5.653   0.622  0.1488  0.0149  0.0130
 1724PEP     CB65253   1.741   5.434   0.378  0.1191 -0.0704 -0.1177
 1724PEP     CB65254   1.658   4.973   0.284  0.0890  0.1354  0.6338
 1724PEP     CB65255   1.518   4.543   0.296 -0.2220  0.1204  0.0149
 1724PEP     CB65256   1.154   4.294   0.244  0.1131  0.1090 -0.0235
 1724PEP     CB65257   0.769   4.225   0.035 -0.3942 -0.2064  0.0819
 1724PEP     CB65258   0.557   4.003  -0.274 -0.2200 -0.1306 -0.3048
 1724PEP     CB65259   0.663   3.832  -0.625 -0.1454 -0.1372  0.2201
 1724PEP     CB65260   0.988   3.942  -0.777  0.3018 -0.3302  0.2615
 1724PEP     CB65261   1.397   3.713  -0.644  0.2290  0.1524 -0.3314
 1724PEP     CB65262   1.456   3.480  -0.166  0.1407  0.1795  0.2328
 1724PEP     CB65263   1.218   3.076   0.006 -0.0451  0.1241  0.2312
 1724PEP     CB65264   1.057   3.061   0.396 -0.1335  0.0615 -0.1865
 1724PEP     CB65265   0.972   3.152   0.752 -0.1128  0.1249 -0.2508
 1724PEP     CB65266   0.753   3.569   0.896 -0.1232  0.0228  0.1354
 1724PEP     CB65267   0.808   3.987   1.142 -0.1946 -0.1554  0.1555
 1724PEP     CB65268   1.112   4.214   1.482 -0.0451  0.3178  0.3162
 1724PEP     CB65269   1.207   4.389   1.983  0.0394  0.2167 -0.0096
 1724PEP     CB65270   0.899   4.600   2.305 -0.1397  0.0047 -0.1072
 1724PEP     CB65271   0.859   4.931   2.473 -0.0609  0.2764  0.0337
 1724PEP     CB65272   0.879   5.146   2.807 -0.3204  0.1582 -0.0145
 1724PEP     CB65273   0.709   5.534   3.044 -0.5073  0.1225  0.2036
 1724PEP     CB65274   0.942   5.847   3.366 -0.1197 -0.2307  0.0128
 1724PEP     CB65275   1.096   5.668   3.658 -0.1203 -0.0814 -0.0109
 1724PEP     CB65276   0.830   5.426   3.918 -0.0731 -0.4079 -0.4211
 1724PEP     CB65277   0.442   5.485   3.921  0.1599  0.0389  0.0572
 1724PEP     CB65278   0.116   5.231   4.146  0.1942 -0.0379  0.3532
 1724PEP     CB65279  -0.009   4.793   4.148 -0.0908 -0.4182 -0.2706
 1724PEP     CB65280  -0.279   4.493   4.364 -0.0489  0.1352 -0.3005
 1725PEP     CB65281   4.142  21.296   9.901  0.1933 -0.1150 -0.0369
 1725PEP     CB65282   4.498  21.414  10.003 -0.0096  0.2303  0.1680
 1725PEP     CB65283   4.914  21.425  10.067  0.2045  0.0344 -0.2177
 1725PEP     CB65284   5.233  21.663  10.419 -0.0829 -0.6201  0.3666
 1725PEP     CB65285   5.502  21.718  10.833 -0.1687 -0.4192 -0.1319
 1725PEP     CB65286   5.638  21.405  11.222  0.4124  0.2017 -0.2016
 1725PEP     CB65287   5.383  21.261  11.460  0.0146 -0.2845  0.0397
 1725PEP     CB65288   5.216  21.424  11.843  0.2478 -0.1356 -0.2530
 1725PEP     CB65289   5.139  21.856  11.976  0.3102  0.1852  0.1256
 1725PEP     CB65290   5.181  22.023  12.305  0.1372  0.4818  0.0123
 1725PEP     CB65291   5.337  22.001  12.695 -0.4723 -0.1697  0.1078
 1725PEP     CB65292   5.134  22.042  13.083 -0.3089 -0.0511  0.4601
 1725PEP     CB65293   4.781  21.690  13.106  0.1094 -0.1212  0.0907
 1725PEP     CB65294   4.800  21.400  12.753 -0.1343  0.1491  0.0790
 1725PEP     CB65295   5.053  20.985  12.595  0.1039 -0.4288  0.2674
 1725PEP     CB65296   5.060  20.696  12.767  0.1325  0.2110 -0.1169
 1725PEP     CB65297   5.046  20.655  13.185  0.0617 -0.0768  0.3954
 1725PEP     CB65298   5.055  20.858  13.601  0.0888 -0.1998 -0.3833
 1725PEP     CB65299   5.163  21.178  13.738  0.0671  0.2688 -0.1703
 1725PEP     CB65300   5.350  21.682  13.888 -0.3917  0.1179 -0.1697
 1725PEP     CB65301   5.290  22.094  14.065  0.2062 -0.2034 -0.0409
 1725PEP     CB65302   5.303  22.581  14.094 -0.1981 -0.1990  0.4453
 1725PEP     CB65303   5.463  22.934  14.177  0.5122  0.2457  0.0168
 1725PEP     CB65304   5.553  23.309  14.506 -0.1476 -0.3012 -0.0179
 1725PEP     CB65305   5.463  23.185  14.930 -0.2120  0.1979 -0.0315
 1725PEP     CB65306   5.196  22.772  15.048  0.0513 -0.1566 -0.2128
 1725PEP     CB65307   4.948  22.580  15.218 -0.2830 -0.0304  0.0120
 1725PEP     CB65308   4.573  22.374  15.295  0.0002  0.2401 -0.1245
 1725PEP     CB65309   4.282  22.105  15.525 -0.4650 -0.1808 -0.0332
 1725PEP     CB65310   4.029  21.948  15.856 -0.3025 -0.1125 -0.3239
 1725PEP     CB65311   3.694  21.906  16.043  0.0521  0.0067 -0.0780
 1725PEP     CB65312   3.389  21.768  16.271 -0.0284 -0.0643 -0.1735
 1725PEP     CB65313   3.061  21.659  16.637 -0.0967 -0.0868 -0.2681
 1725PEP     CB65314   2.653  21.769  16.821  0.1716 -0.1237  0.3376
 1725PEP     CB65315   2.304  22.008  17.000 -0.2544 -0.0774 -0.0958
 1725PEP     CB65316   2.100  22.344  16.989 -0.1132  0.0019 -0.0247
 1725PEP     CB65317   1.979  22.698  17.140 -0.1930  0.0149 -0.0991
 1725PEP     CB65318   2.071  22.949  17.495 -0.0357  0.1008  0.0208
 1725PEP     CB65319   2.183  23.025  17.881  0.1258 -0.1212 -0.1860
 1725PEP     CB65320   1.988  22.975  18.317  0.1173 -0.1881  0.3877
 1726PEP     CB65321  11.371   7.795   4.047 -0.2319  0.4769 -0.0602
 1726PEP     CB65322  11.016   7.633   3.972 -0.3960 -0.0472 -0.1879
 1726PEP     CB65323  10.683   7.532   3.670  0.2706  0.2317  0.1053
 1726PEP     CB65324  10.563   7.739   3.356  0.4602 -0.2155 -0.1755
 1726PEP     CB65325  10.564   8.058   3.109 -0.0080 -0.1238 -0.0459
 1726PEP     CB65326  10.452   8.547   3.099 -0.2910  0.1675 -0.1207
 1726PEP     CB65327  10.399   9.011   3.294  0.0282 -0.1400 -0.1461
 1726PEP     CB65328  10.160   9.284   3.244 -0.0216 -0.1196  0.2422
 1726PEP     CB65329  10.150   9.704   3.127  0.0426 -0.1072  0.2295
 1726PEP     CB65330  10.302   9.864   2.726  0.1360  0.0567 -0.0507
 1726PEP     CB65331  10.310   9.589   2.344  0.1167  0.2160 -0.0333
 1726PEP     CB65332  10.230   9.463   1.907  0.2526  0.2264 -0.1806
 1726PEP     CB65333   9.899   9.541   1.533 -0.4395 -0.2152  0.2285
 1726PEP     CB65334   9.455   9.652   1.349  0.1400 -0.0247  0.2047
 1726PEP     CB65335   9.095   9.817   1.638 -0.3293 -0.0742  0.0795
 1726PEP     CB65336   8.906   9.729   2.054  0.1392  0.1775  0.1782
 1726PEP     CB65337   8.880   9.707   2.548 -0.2804 -0.0448  0.3168
 1726PEP     CB65338   9.025   9.604   3.002  0.0531  0.1456  0.0144
 1726PEP     CB65339   9.182   9.245   3.193  0.1739 -0.0690  0.0683
 1726PEP     CB65340   9.589   9.001   3.316 -0.2871 -0.2510  0.0027
 1726PEP     CB65341   9.802   8.530   3.510  0.1148 -0.2193 -0.2463
 1726PEP     CB65342  10.077   8.201   3.367  0.1764  0.3326 -0.1680
 1726PEP     CB65343  10.102   7.879   3.142 -0.3271 -0.1564  0.3067
 1726PEP     CB65344  10.306   7.653   2.806  0.1962 -0.0411  0.1158
 1726PEP     CB65345  10.291   7.184   2.651 -0.1429  0.0405  0.0873
 1726PEP     CB65346  10.515   6.814   2.676 -0.1447  0.1635  0.2226
 1726PEP     CB65347  10.832   6.639   2.706  0.1454 -0.3062 -0.0097
 1726PEP     CB65348  11.337   6.548   2.640 -0.4063 -0.3775 -0.3521
 1726PEP     CB65349  11.737   6.525   2.345  0.0321 -0.1445  0.0294
 1726PEP     CB65350  11.970   6.442   1.994  0.1767  0.0989 -0.6361
 1726PEP     CB65351  12.321   6.388   1.731 -0.1762  0.2020 -0.3335
 1726PEP     CB65352  12.746   6.412   1.571  0.1825 -0.0145 -0.0884
 1726PEP     CB65353  13.024   6.748   1.375  0.2817 -0.3802  0.1282
 1726PEP     CB65354  12.985   6.972   1.006 -0.0629 -0.0555 -0.3058
 1726PEP     CB65355  13.055   7.083   0.637  0.0569  0.2158  0.2029
 1726PEP     CB65356  13.388   7.206   0.214  0.0258 -0.1922 -0.0930
 1726PEP     CB65357  13.731   7.126   0.016  0.0434  0.1015  0.0827
 1726PEP     CB65358  14.149   6.983  -0.081 -0.0767  0.2354 -0.0634
 1726PEP     CB65359  14.559   6.878  -0.052  0.1578 -0.0017  0.0096
 1726PEP     CB65360  14.940   6.678  -0.178 -0.0826 -0.0160  0.3412
 1727PEP     CB65361   2.672  12.411  19.055 -0.4589  0.0151  0.0812
 1727PEP     CB65362   2.684  12.715  19.278 -0.1580 -0.0455  0.1743
 1727PEP     CB65363   2.561  13.096  19.189 -0.2085 -0.1481 -0.0132
 1727PEP     CB65364   2.738  13.463  19.053  0.2629 -0.1431 -0.0214
 1727PEP     CB65365   2.892  13.862  19.083 -0.1692 -0.0104 -0.2162
 1727PEP     CB65366   3.142  14.264  19.283 -0.1814 -0.2896 -0.4468
 1727PEP     CB65367   3.312  14.637  19.520  0.3719 -0.1675  0.1406
 1727PEP     CB65368   3.177  15.062  19.730  0.0542  0.3746 -0.1326
 1727PEP     CB65369   2.943  15.446  19.698 -0.0050 -0.5532 -0.1433
 1727PEP     CB65370   2.946  15.876  19.617 -0.2824 -0.0743 -0.5310
 1727PEP     CB65371   2.851  16.271  19.528 -0.3738  0.0786  0.0984
 1727PEP     CB65372   2.778  16.769  19.431  0.2085 -0.2539 -0.1049
 1727PEP     CB65373   2.562  17.068  19.210  0.3440 -0.1128 -0.1614
 1727PEP     CB65374   2.245  17.313  19.172  0.0617  0.0891 -0.1367
 1727PEP     CB65375   2.011  17.448  19.309  0.5759 -0.0102  0.1512
 1727PEP     CB65376   1.742  17.528  19.527 -0.1224  0.2952 -0.3748
 1727PEP     CB65377   1.507  17.852  19.603  0.4559 -0.0918  0.0379
 1727PEP     CB65378   1.652  18.152  19.656 -0.4228  0.2350  0.2876
 1727PEP     CB65379   1.688  18.358  20.030  0.0871  0.2806  0.3975
 1727PEP     CB65380   1.666  18.451  20.429  0.1229  0.2427  0.0449
 1727PEP     CB65381   1.617  18.872  20.646  0.1741 -0.0452 -0.2345
 1727PEP     CB65382   1.172  19.032  20.593 -0.1377  0.1072 -0.5067
 1727PEP     CB65383   0.952  18.891  20.316  0.0373 -0.4551  0.2931
 1727PEP     CB65384   0.738  18.541  20.109 -0.2016 -0.7474 -0.3307
 1727PEP     CB65385   0.810  18.138  19.935 -0.2581  0.1179 -0.2434
 1727PEP     CB65386   1.002  17.845  19.640  0.2731 -0.1963  0.0139
 1727PEP     CB65387   1.111  17.731  19.215 -0.3627  0.2397 -0.5326
 1727PEP     CB65388   1.068  17.632  18.744  0.0074  0.2967  0.4408
 1727PEP     CB65389   1.093  17.641  18.250  0.0649  0.0552 -0.2501
 1727PEP     CB65390   1.122  17.902  17.820  0.0486 -0.1094 -0.0595
 1727PEP     CB65391   1.052  17.873  17.416 -0.3752  0.2296 -0.0808
 1727PEP     CB65392   0.878  18.175  17.113  0.1895  0.0909 -0.1564
 1727PEP     CB65393   0.999  18.597  17.134  0.0193  0.1219  0.0158
 1727PEP     CB65394   1.431  18.789  17.133  0.0722  0.3629 -0.2883
 1727PEP     CB65395   1.719  18.770  16.852 -0.0908 -0.1659  0.4532
 1727PEP     CB65396   2.166  18.965  16.857  0.0691  0.3062 -0.0046
 1727PEP     CB65397   2.447  18.992  17.097  0.0057  0.0124  0.1608
 1727PEP     CB65398   2.300  19.346  17.368 -0.6326  0.0410  0.2860
 1727PEP     CB65399   2.108  19.729  17.442 -0.3009  0.0517  0.1909
 1727PEP     CB65400   1.760  20.023  17.548  0.1238  0.3458  0.0503
 1728PEP     CB65401  14.717  13.729   6.518  0.0637 -0.2348 -0.2138
 1728PEP     CB65402  15.095  13.669   6.312  0.4181  0.0731 -0.0715
 1728PEP     CB65403  15.404  13.322   6.328 -0.0606  0.4012  0.1175
 1728PEP     CB65404  15.311  12.912   6.337 -0.0689  0.1442  0.1123
 1728PEP     CB65405  14.998  12.658   6.420 -0.1280 -0.1265  0.1470
 1728PEP     CB65406  14.819  12.474   6.775 -0.0386 -0.0655 -0.1142
 1728PEP     CB65407  14.963  12.470   7.122 -0.0729  0.0374  0.4202
 1728PEP     CB65408  14.805  12.471   7.559  0.1394 -0.4020  0.3111
 1728PEP     CB65409  14.564  12.650   7.883 -0.0939  0.0837 -0.0075
 1728PEP     CB65410  14.722  12.862   8.297  0.2686  0.3440  0.1018
 1728PEP     CB65411  15.063  13.149   8.446 -0.1201  0.3015  0.1820
 1728PEP     CB65412  15.471  13.415   8.526  0.1959 -0.1091 -0.2729
 1728PEP     CB65413  15.805  13.236   8.626 -0.2353  0.2153  0.1750
 1728PEP     CB65414  15.843  12.958   9.016  0.2531  0.2465  0.1343
 1728PEP     CB65415  15.921  13.025   9.376 -0.1136 -0.0042 -0.2190
 1728PEP     CB65416  15.680  13.354   9.670  0.0118 -0.1037  0.3497
 1728PEP     CB65417  15.217  13.315   9.781 -0.2616 -0.2128 -0.0003
 1728PEP     CB65418  14.834  13.494   9.928 -0.3481  0.1176  0.2425
 1728PEP     CB65419  14.408  13.449   9.766 -0.1889 -0.3201  0.0320
 1728PEP     CB65420  14.100  13.535   9.987 -0.0745  0.6814  0.1918
 1728PEP     CB65421  13.749  13.799   9.982  0.0126 -0.0211  0.1158
 1728PEP     CB65422  13.748  14.193   9.814  0.2060 -0.3030  0.0269
 1728PEP     CB65423  13.994  14.330   9.426 -0.1779  0.1438 -0.1446
 1728PEP     CB65424  14.160  14.187   9.051 -0.0341 -0.3230 -0.5685
 1728PEP     CB65425  14.299  14.058   8.712  0.3227  0.2547  0.1413
 1728PEP     CB65426  14.581  13.905   8.396 -0.1182 -0.4690 -0.0416
 1728PEP     CB65427  14.746  14.036   7.919  0.1546  0.2031  0.0687
 1728PEP     CB65428  14.921  13.828   7.507 -0.2119 -0.1326 -0.1105
 1728PEP     CB65429  15.049  13.410   7.390  0.1073 -0.4513  0.3175
 1728PEP     CB65430  15.212  12.954   7.220 -0.1079 -0.0991  0.1469
 1728PEP     CB65431  15.355  12.660   6.928 -0.3363  0.2154 -0.1008
 1728PEP     CB65432  15.383  12.280   6.908  0.4752  0.0618 -0.1091
 1728PEP     CB65433  15.486  11.850   6.889  0.1932 -0.0570  0.0296
 1728PEP     CB65434  15.268  11.453   7.006  0.1973  0.0161 -0.0635
 1728PEP     CB65435  15.024  11.432   7.354  0.0246  0.0176  0.2720
 1728PEP     CB65436  14.855  11.787   7.615  0.5485  0.2034 -0.0204
 1728PEP     CB65437  14.655  12.117   7.861 -0.4182  0.0586  0.1273
 1728PEP     CB65438  14.618  12.204   8.223 -0.0886 -0.5797 -0.2825
 1728PEP     CB65439  14.904  12.389   8.571 -0.1578  0.3703  0.0425
 1728PEP     CB65440  15.185  12.399   8.905 -0.2278  0.4177 -0.1422
 1729PEP     CB65441  18.489  21.065   4.545  0.1093 -0.0947 -0.2097
 1729PEP     CB65442  18.370  21.263   4.912 -0.0949  0.0419  0.0754
 1729PEP     CB65443  18.464  21.284   5.290  0.0843  0.0596 -0.0448
 1729PEP     CB65444  18.664  21.185   5.668  0.1136  0.3189 -0.1148
 1729PEP     CB65445  18.925  21.327   5.867  0.0558  0.3153 -0.2843
 1729PEP     CB65446  19.359  21.539   6.072  0.4753 -0.4675 -0.4319
 1729PEP     CB65447  19.780  21.671   6.390  0.0029 -0.0514  0.1073
 1729PEP     CB65448  20.237  21.896   6.234 -0.1122  0.0807 -0.1995
 1729PEP     CB65449  20.484  22.324   6.225 -0.0828 -0.3409 -0.2431
 1729PEP     CB65450  20.460  22.802   6.036 -0.1665  0.2850 -0.2863
 1729PEP     CB65451  20.621  23.191   6.053 -0.2873 -0.4657 -0.1860
 1729PEP     CB65452  20.755  23.610   5.933  0.3643  0.0244 -0.0417
 1729PEP     CB65453  21.023  23.774   5.591 -0.2318 -0.0487 -0.0462
 1729PEP     CB65454  21.351  23.674   5.353 -0.4705 -0.2230 -0.0177
 1729PEP     CB65455  21.688  23.464   5.485 -0.2604  0.2683  0.3889
 1729PEP     CB65456  21.730  22.981   5.565 -0.0806 -0.3964  0.0417
 1729PEP     CB65457  21.490  22.589   5.757 -0.1277  0.2352  0.3276
 1729PEP     CB65458  21.331  22.253   5.862  0.3362  0.1722  0.2073
 1729PEP     CB65459  21.225  21.895   5.955 -0.0855 -0.2174 -0.2798
 1729PEP     CB65460  21.200  21.574   6.194  0.1045 -0.0886 -0.0340
 1729PEP     CB65461  21.142  21.510   6.605 -0.1962  0.0217  0.1446
 1729PEP     CB65462  20.776  21.557   6.743 -0.1395 -0.0803  0.0580
 1729PEP     CB65463  20.476  21.848   6.702 -0.1763 -0.1788 -0.1234
 1729PEP     CB65464  20.144  22.146   6.652 -0.0455  0.2298 -0.1196
 1729PEP     CB65465  20.061  22.587   6.497 -0.2168  0.1140  0.0131
 1729PEP     CB65466  19.767  22.848   6.280 -0.1098 -0.0924 -0.2347
 1729PEP     CB65467  19.489  23.147   6.416 -0.4183  0.0111  0.2441
 1729PEP     CB65468  19.168  23.524   6.638 -0.0836 -0.3865  0.0930
 1729PEP     CB65469  19.004  24.022   6.647 -0.0446  0.6326 -0.0198
 1729PEP     CB65470  18.671  24.247   6.833 -0.2729  0.0443  0.0661
 1729PEP     CB65471  18.334  24.162   7.182  0.2187 -0.0624 -0.1403
 1729PEP     CB65472  18.597  24.134   7.637  0.2176 -0.0111  0.1089
 1729PEP     CB65473  18.964  24.399   7.726 -0.0156 -0.1265  0.0325
 1729PEP     CB65474  19.334  24.650   7.667  0.0700  0.0021 -0.1869
 1729PEP     CB65475  19.685  24.523   7.712 -0.1096  0.3073 -0.0466
 1729PEP     CB65476  20.121  24.539   7.705  0.2792  0.2259 -0.1618
 1729PEP     CB65477  20.447  24.757   7.529 -0.0485  0.2022 -0.0452
 1729PEP     CB65478  20.454  24.988   7.054 -0.0845 -0.0616  0.2388
 1729PEP     CB65479  20.294  25.389   6.924  0.2188  0.1757 -0.2174
 1729PEP     CB65480  20.359  25.673   6.624 -0.1392 -0.0644 -0.0077
 1730PEP     CB65481  18.790  16.819   6.778  0.1332 -0.1221  0.3651
 1730PEP     CB65482  18.495  17.125   6.698 -0.1258 -0.0038 -0.0166
 1730PEP     CB65483  18.286  17.429   6.472 -0.0836 -0.0759 -0.2462
 1730PEP     CB65484  18.117  17.520   6.036 -0.1609  0.0990  0.0395
 1730PEP     CB65485  17.983  17.428   5.524  0.3096  0.0180  0.0673
 1730PEP     CB65486  17.688  17.447   5.189 -0.3483 -0.1364  0.0890
 1730PEP     CB65487  17.511  17.614   4.808  0.0779 -0.2532  0.0112
 1730PEP     CB65488  17.069  17.450   4.700 -0.2352  0.0107  0.2284
 1730PEP     CB65489  16.886  17.172   4.572  0.1584  0.2763  0.3312
 1730PEP     CB65490  16.659  16.788   4.588 -0.2795 -0.4508 -0.1089
 1730PEP     CB65491  16.425  16.492   4.432 -0.0131 -0.3969  0.2905
 1730PEP     CB65492  16.472  16.225   4.125 -0.2441  0.1863  0.0609
 1730PEP     CB65493  16.506  15.964   3.720 -0.2572 -0.0697  0.0970
 1730PEP     CB65494  16.368  16.096   3.332 -0.1720 -0.4109 -0.1712
 1730PEP     CB65495  16.114  16.350   3.193  0.1473 -0.1511 -0.1698
 1730PEP     CB65496  15.890  16.715   3.379 -0.2366  0.1505 -0.1606
 1730PEP     CB65497  15.834  17.136   3.441 -0.0601 -0.1991 -0.5644
 1730PEP     CB65498  15.607  17.474   3.768  0.3449 -0.1381 -0.2691
 1730PEP     CB65499  15.364  17.796   3.783  0.2588  0.2699 -0.3287
 1730PEP     CB65500  15.335  18.179   3.996 -0.0665 -0.0526  0.0071
 1730PEP     CB65501  15.259  18.666   3.992 -0.0079 -0.3446  0.2017
 1730PEP     CB65502  15.450  18.995   3.682 -0.2696  0.2680  0.2355
 1730PEP     CB65503  15.828  19.192   3.555 -0.0990 -0.1124  0.1215
 1730PEP     CB65504  16.240  19.117   3.494  0.2920  0.3708  0.0639
 1730PEP     CB65505  16.537  18.886   3.525  0.0435  0.5100  0.1868
 1730PEP     CB65506  16.901  18.673   3.498 -0.4301 -0.1045  0.0517
 1730PEP     CB65507  17.248  18.728   3.220  0.2712  0.0955 -0.0644
 1730PEP     CB65508  17.312  19.126   2.907 -0.4154  0.1222  0.0076
 1730PEP     CB65509  17.180  19.489   2.949  0.0414  0.3852 -0.2654
 1730PEP     CB65510  17.305  19.841   3.088  0.1182  0.0303 -0.0813
 1730PEP     CB65511  17.751  20.078   3.015 -0.0733  0.2007 -0.2588
 1730PEP     CB65512  18.134  19.922   2.737 -0.2378  0.0954 -0.0351
 1730PEP     CB65513  18.415  19.843   2.448  0.1663 -0.2541  0.1730
 1730PEP     CB65514  18.675  19.814   2.124 -0.1967  0.2257 -0.1661
 1730PEP     CB65515  18.559  19.886   1.688  0.1609  0.0719 -0.3543
 1730PEP     CB65516  18.260  20.008   1.377  0.4635  0.3044 -0.0794
 1730PEP     CB65517  18.251  20.341   0.990  0.2110 -0.0315  0.1963
 1730PEP     CB65518  18.071  20.403   0.636 -0.3422  0.0624  0.0716
 1730PEP     CB65519  17.885  20.821   0.647 -0.1194  0.0872  0.1512
 1730PEP     CB65520  18.085  21.177   0.795 -0.0726 -0.0399 -0.5091
 1731PEP     CB65521   6.456  20.198  17.436 -0.2846 -0.2893  0.0391
 1731PEP     CB65522   6.740  19.898  17.361 -0.0873 -0.1591  0.1809
 1731PEP     CB65523   7.077  19.640  17.540 -0.1118  0.0927  0.0193
 1731PEP     CB65524   7.009  19.311  17.754 -0.0027 -0.1477  0.5032
 1731PEP     CB65525   6.714  19.051  18.045 -0.0976  0.3936 -0.2582
 1731PEP     CB65526   6.298  19.080  18.148 -0.2557  0.1187 -0.0900
 1731PEP     CB65527   5.870  19.060  18.037 -0.0234 -0.1409 -0.1813
 1731PEP     CB65528   5.464  18.783  17.967  0.1971  0.1569  0.1095
 1731PEP     CB65529   5.226  18.454  17.868  0.0181 -0.1590 -0.0191
 1731PEP     CB65530   4.907  18.206  18.299 -0.3438 -0.3378 -0.3896
 1731PEP     CB65531   4.917  18.230  18.753  0.2261 -0.1867 -0.1338
 1731PEP     CB65532   4.933  17.951  18.993  0.2374  0.1655 -0.1005
 1731PEP     CB65533   4.880  17.527  19.133  0.2772  0.0637  0.0328
 1731PEP     CB65534   4.528  17.132  19.062 -0.0414 -0.2185 -0.2084
 1731PEP     CB65535   4.071  17.178  18.869 -0.0245 -0.3151  0.0423
 1731PEP     CB65536   3.918  17.550  18.703  0.3019 -0.0256  0.1542
 1731PEP     CB65537   3.993  17.623  18.309  0.1175  0.0567 -0.0877
 1731PEP     CB65538   3.929  17.566  17.847 -0.0416  0.3781 -0.2245
 1731PEP     CB65539   3.932  17.321  17.543 -0.0189 -0.0852  0.2771
 1731PEP     CB65540   4.276  16.915  17.555  0.2193 -0.3482  0.0381
 1731PEP     CB65541   4.445  16.548  17.902 -0.1840  0.0643 -0.2630
 1731PEP     CB65542   4.773  16.389  18.127 -0.1344 -0.0504  0.0229
 1731PEP     CB65543   5.122  16.407  18.536 -0.3742  0.0308 -0.1687
 1731PEP     CB65544   5.074  16.536  18.995 -0.2660 -0.0688 -0.3999
 1731PEP     CB65545   5.011  16.878  19.295  0.1601 -0.1038  0.0190
 1731PEP     CB65546   5.042  17.229  19.565 -0.0272  0.1628  0.0849
 1731PEP     CB65547   5.324  17.575  19.560 -0.2484  0.0667 -0.1661
 1731PEP     CB65548   5.423  17.767  20.020 -0.3220 -0.7272 -0.6261
 1731PEP     CB65549   5.165  17.991  20.170  0.0034 -0.1270  0.1648
 1731PEP     CB65550   4.785  18.012  20.109 -0.0327  0.0069 -0.0218
 1731PEP     CB65551   4.431  17.935  20.372 -0.2494  0.0528 -0.0673
 1731PEP     CB65552   4.446  17.530  20.546 -0.3277 -0.0618  0.0083
 1731PEP     CB65553   4.745  17.253  20.330 -0.0428 -0.3771  0.2774
 1731PEP     CB65554   4.926  17.506  19.924  0.2081 -0.2439 -0.4880
 1731PEP     CB65555   4.688  17.720  19.703  0.2164 -0.0359  0.2761
 1731PEP     CB65556   4.546  18.129  19.605 -0.2817 -0.4359 -0.2462
 1731PEP     CB65557   4.520  18.514  19.854  0.0735  0.1242  0.0325
 1731PEP     CB65558   4.878  18.784  19.689  0.7149 -0.2723  0.1950
 1731PEP     CB65559   4.922  19.006  19.323 -0.2868  0.4346  0.0024
 1731PEP     CB65560   4.977  18.875  18.869 -0.4495 -0.0835 -0.0522
 1732PEP     CB65561   0.520  11.932   5.586  0.3217  0.0757  0.0291
 1732PEP     CB65562   0.851  11.654   5.946  0.2259 -0.1543 -0.1803
 1732PEP     CB65563   0.802  11.256   6.159 -0.2980  0.2523  0.2370
 1732PEP     CB65564   0.724  10.787   6.096 -0.0238  0.2809 -0.3607
 1732PEP     CB65565   0.629  10.471   6.404  0.3995 -0.0962 -0.2451
 1732PEP     CB65566   0.446  10.268   6.726  0.0366  0.0522 -0.0033
 1732PEP     CB65567   0.463  10.205   7.239 -0.1291 -0.1294  0.2832
 1732PEP     CB65568   0.429   9.977   7.655 -0.1278 -0.1612  0.0912
 1732PEP     CB65569   0.478  10.085   8.032 -0.0977  0.0763 -0.0816
 1732PEP     CB65570   0.800  10.298   8.202  0.5285 -0.0064  0.1407
 1732PEP     CB65571   1.104  10.196   8.516  0.2208  0.2110 -0.1081
 1732PEP     CB65572   1.460   9.994   8.577  0.3243  0.0871 -0.1047
 1732PEP     CB65573   1.622   9.644   8.716  0.0189  0.2938 -0.2408
 1732PEP     CB65574   1.809   9.635   9.107 -0.0516 -0.3873 -0.3067
 1732PEP     CB65575   1.848   9.916   9.415  0.2991  0.0971  0.0253
 1732PEP     CB65576   1.581  10.248   9.653  0.3174  0.1389 -0.2051
 1732PEP     CB65577   1.446  10.459  10.014 -0.0255  0.1408  0.0233
 1732PEP     CB65578   1.211  10.794  10.230 -0.0243 -0.1593  0.1272
 1732PEP     CB65579   1.121  10.945  10.589  0.1074 -0.0067 -0.0238
 1732PEP     CB65580   0.694  10.801  10.843 -0.4842  0.1898 -0.0188
 1732PEP     CB65581   0.304  10.829  10.538  0.1045 -0.1877 -0.2943
 1732PEP     CB65582   0.204  11.017  10.183  0.4499  0.0031  0.0753
 1732PEP     CB65583   0.351  10.968   9.794 -0.2314  0.2855 -0.4107
 1732PEP     CB65584   0.431  10.754   9.421  0.1465  0.2991  0.0453
 1732PEP     CB65585   0.375  10.451   9.096  0.0663 -0.0561  0.1582
 1732PEP     CB65586   0.305  10.151   8.768  0.1073 -0.1425 -0.0948
 1732PEP     CB65587   0.544   9.862   8.495  0.2831 -0.3203  0.2485
 1732PEP     CB65588   0.662   9.381   8.403  0.1754  0.3460 -0.1706
 1732PEP     CB65589   0.755   8.954   8.655 -0.2312  0.4501  0.3307
 1732PEP     CB65590   0.913   8.548   8.772  0.0153  0.0631  0.2029
 1732PEP     CB65591   1.311   8.466   9.008  0.1776  0.0533  0.0273
 1732PEP     CB65592   1.508   8.138   9.259  0.1534 -0.1724  0.2222
 1732PEP     CB65593   1.510   7.703   9.368 -0.1928 -0.0504 -0.2317
 1732PEP     CB65594   1.506   7.249   9.368 -0.3582  0.3304  0.1649
 1732PEP     CB65595   1.859   6.901   9.276 -0.4052 -0.0286 -0.0302
 1732PEP     CB65596   2.329   6.819   9.462 -0.1438  0.1060  0.2394
 1732PEP     CB65597   2.381   6.816   9.915  0.2566  0.2422  0.0051
 1732PEP     CB65598   2.025   6.848  10.301  0.0457 -0.1647 -0.1494
 1732PEP     CB65599   1.615   7.027  10.409 -0.5016  0.0159 -0.1690
 1732PEP     CB65600   1.329   7.295  10.326  0.0288 -0.0886  0.1089
 1733PEP     CB65601  11.690   4.139   6.462 -0.1849 -0.2374  0.2743
 1733PEP     CB65602  11.503   3.945   6.864  0.2902  0.3449  0.4272
 1733PEP     CB65603  11.453   3.712   7.169 -0.5505  0.1517  0.0118
 1733PEP     CB65604  11.430   3.828   7.622 -0.3362 -0.2669 -0.0431
 1733PEP     CB65605  11.119   3.949   7.862  0.1789  0.0865 -0.0033
 1733PEP     CB65606  10.774   4.212   7.676  0.0489  0.3123  0.0016
 1733PEP     CB65607  10.716   4.450   7.504 -0.0465 -0.0007 -0.0464
 1733PEP     CB65608  10.752   4.724   7.229  0.2447  0.1931  0.3204
 1733PEP     CB65609  10.683   4.969   6.835  0.0340  0.0025 -0.0772
 1733PEP     CB65610  10.675   4.919   6.432 -0.6391  0.1773  0.3220
 1733PEP     CB65611  10.711   4.835   6.029  0.3619  0.0763  0.0324
 1733PEP     CB65612  10.655   4.720   5.570  0.0081  0.2978 -0.1778
 1733PEP     CB65613  10.501   4.840   5.165  0.1928 -0.0660  0.3668
 1733PEP     CB65614  10.174   5.188   5.084 -0.0499 -0.0039 -0.0785
 1733PEP     CB65615   9.815   5.280   5.192  0.2933  0.1499 -0.1053
 1733PEP     CB65616   9.475   5.296   5.458 -0.2764 -0.3521  0.1833
 1733PEP     CB65617   9.249   5.575   5.619  0.0623 -0.0301 -0.0516
 1733PEP     CB65618   9.145   6.013   5.597 -0.0896  0.2299 -0.1480
 1733PEP     CB65619   9.273   6.253   5.236  0.0584  0.0689 -0.1267
 1733PEP     CB65620   9.669   6.233   5.080  0.1090  0.2155 -0.1820
 1733PEP     CB65621  10.064   6.148   5.254  0.1042 -0.0365 -0.1172
 1733PEP     CB65622  10.211   6.077   5.709  0.0038 -0.2420 -0.3879
 1733PEP     CB65623  10.062   6.194   6.043 -0.0241 -0.0147  0.4340
 1733PEP     CB65624  10.024   6.507   6.377  0.0340 -0.0198  0.3052
 1733PEP     CB65625  10.047   6.800   6.628 -0.0205  0.1810  0.1264
 1733PEP     CB65626  10.310   7.100   6.930  0.0088  0.1837  0.3266
 1733PEP     CB65627  10.551   7.362   7.216  0.0625  0.0405  0.3845
 1733PEP     CB65628  10.752   7.503   7.622  0.1333  0.3989  0.1215
 1733PEP     CB65629  10.971   7.404   7.999 -0.1463 -0.0489 -0.5169
 1733PEP     CB65630  11.225   7.683   8.344  0.1824  0.0731 -0.1944
 1733PEP     CB65631  11.329   8.160   8.247 -0.3834 -0.0941 -0.1815
 1733PEP     CB65632  11.296   8.420   7.818  0.3690  0.1384  0.3273
 1733PEP     CB65633  11.504   8.640   7.414  0.2715 -0.1421  0.4300
 1733PEP     CB65634  11.745   8.706   7.094 -0.0180  0.2604 -0.1412
 1733PEP     CB65635  11.872   8.641   6.575  0.3279 -0.2876  0.0613
 1733PEP     CB65636  12.300   8.696   6.273 -0.0588 -0.1970 -0.0529
 1733PEP     CB65637  12.456   8.993   6.058  0.5397 -0.1072 -0.4077
 1733PEP     CB65638  12.893   9.225   5.973  0.0174 -0.0831 -0.0964
 1733PEP     CB65639  13.235   8.965   6.033  0.1424  0.0159 -0.3214
 1733PEP     CB65640  13.393   8.577   5.792  0.1480 -0.0264 -0.2708
 1734PEP     CB65641  16.280   1.253  18.973  0.1292  0.1313  0.1026
 1734PEP     CB65642  16.615   0.968  19.008  0.0379 -0.0422 -0.0254
 1734PEP     CB65643  16.966   0.781  19.194  0.0938  0.2872 -0.2390
 1734PEP     CB65644  17.183   0.339  19.388  0.0550  0.0842  0.2446
 1734PEP     CB65645  17.370   0.104  19.743 -0.0006  0.1098 -0.2527
 1734PEP     CB65646  17.621  -0.135  19.955 -0.2574  0.0719  0.0346
 1734PEP     CB65647  18.042  -0.290  20.011 -0.4263 -0.1170  0.0757
 1734PEP     CB65648  18.287  -0.663  19.954 -0.0143 -0.0246 -0.1715
 1734PEP     CB65649  18.225  -1.093  20.002 -0.2048  0.4726  0.0765
 1734PEP     CB65650  18.130  -1.530  20.095  0.2557  0.0280  0.1859
 1734PEP     CB65651  17.892  -1.841  19.992 -0.1450  0.0258  0.3526
 1734PEP     CB65652  17.556  -2.121  19.946  0.0065  0.0472 -0.1267
 1734PEP     CB65653  17.555  -2.543  19.782  0.1291  0.0029 -0.0965
 1734PEP     CB65654  17.794  -2.687  19.501  0.3301 -0.1096 -0.1722
 1734PEP     CB65655  18.253  -2.651  19.594  0.0144 -0.1793  0.0010
 1734PEP     CB65656  18.386  -2.676  19.996 -0.1847  0.1101  0.1052
 1734PEP     CB65657  18.196  -2.786  20.341 -0.1005  0.4815 -0.4201
 1734PEP     CB65658  17.730  -2.841  20.386  0.2632  0.1181 -0.2705
 1734PEP     CB65659  17.414  -3.174  20.293 -0.0589  0.0813 -0.0884
 1734PEP     CB65660  17.316  -3.553  20.089 -0.0117 -0.1430  0.0277
 1734PEP     CB65661  17.025  -3.708  19.893  0.2352 -0.3703  0.2248
 1734PEP     CB65662  16.544  -3.885  19.958  0.0292  0.3641  0.4045
 1734PEP     CB65663  16.489  -4.049  20.391 -0.0096 -0.1716  0.0451
 1734PEP     CB65664  16.097  -4.019  20.599  0.0229 -0.3992  0.4232
 1734PEP     CB65665  15.739  -4.007  20.320  0.0524 -0.3729  0.0399
 1734PEP     CB65666  15.436  -3.984  20.252 -0.1337 -0.4498 -0.1218
 1734PEP     CB65667  15.048  -3.759  20.255 -0.0083 -0.1983 -0.1117
 1734PEP     CB65668  14.643  -3.733  19.984 -0.1457 -0.2041 -0.3131
 1734PEP     CB65669  14.549  -3.904  19.676 -0.1669  0.4305 -0.2874
 1734PEP     CB65670  14.591  -4.294  19.518 -0.2360  0.1657  0.2220
 1734PEP     CB65671  14.970  -4.570  19.417 -0.1390  0.0227 -0.0545
 1734PEP     CB65672  15.239  -4.782  19.319  0.0903  0.0645  0.1682
 1734PEP     CB65673  15.580  -5.119  19.174 -0.4894 -0.5031  0.1792
 1734PEP     CB65674  15.516  -5.610  19.159 -0.0954 -0.4106 -0.2484
 1734PEP     CB65675  15.315  -6.026  19.136  0.0391 -0.0530  0.0613
 1734PEP     CB65676  15.229  -6.472  19.116 -0.1779  0.4789  0.0555
 1734PEP     CB65677  15.325  -6.916  18.902  0.0459 -0.1633 -0.1326
 1734PEP     CB65678  15.378  -7.139  18.564  0.2176 -0.1749  0.0787
 1734PEP     CB65679  15.373  -7.372  18.213 -0.3824 -0.2820  0.5029
 1734PEP     CB65680  15.567  -7.526  17.861  0.0408  0.2054  0.2235
 1735PEP     CB65681  11.150  21.080  10.600 -0.0595 -0.0661  0.1351
 1735PEP     CB65682  11.333  21.231  10.296  0.0928 -0.2068 -0.0416
 1735PEP     CB65683  11.751  21.368  10.211  0.1357 -0.2204 -0.0666
 1735PEP     CB65684  11.994  21.698   9.984 -0.1129 -0.0823 -0.1682
 1735PEP     CB65685  11.882  22.104   9.856  0.1296  0.3988  0.1165
 1735PEP     CB65686  11.699  22.526   9.778  0.1351  0.2231  0.1226
 1735PEP     CB65687  11.683  22.805   9.572 -0.0465 -0.1418 -0.1180
 1735PEP     CB65688  11.632  23.195   9.652 -0.1062  0.0406 -0.1937
 1735PEP     CB65689  11.327  23.457   9.951 -0.6482  0.4455 -0.2977
 1735PEP     CB65690  11.382  23.419  10.434 -0.0659  0.2132  0.1508
 1735PEP     CB65691  11.771  23.237  10.573  0.4123  0.0454  0.0640
 1735PEP     CB65692  12.097  22.952  10.623  0.2131  0.2131 -0.0110
 1735PEP     CB65693  12.317  22.600  10.721 -0.0845 -0.1862  0.4452
 1735PEP     CB65694  12.379  22.167  10.535  0.1397 -0.0522  0.1701
 1735PEP     CB65695  12.359  21.657  10.401  0.1027  0.3446 -0.1319
 1735PEP     CB65696  12.277  21.250  10.194 -0.1239  0.1772  0.1192
 1735PEP     CB65697  12.434  21.121   9.771 -0.1123 -0.0416 -0.1118
 1735PEP     CB65698  12.959  20.910   9.551  0.6217 -0.3577 -0.0638
 1735PEP     CB65699  13.419  20.906   9.486  0.2402  0.4340  0.1427
 1735PEP     CB65700  13.791  21.108   9.705 -0.3952 -0.2431  0.1218
 1735PEP     CB65701  14.019  21.237  10.108  0.0547  0.2862 -0.1028
 1735PEP     CB65702  14.217  21.503  10.411 -0.0572 -0.2103  0.3446
 1735PEP     CB65703  14.515  21.552  10.658  0.0432 -0.0982  0.0260
 1735PEP     CB65704  14.997  21.467  10.683  0.0415 -0.1040 -0.2194
 1735PEP     CB65705  15.283  21.032  10.696 -0.3170 -0.2666 -0.1854
 1735PEP     CB65706  15.512  20.547  10.512  0.1927  0.3042  0.3068
 1735PEP     CB65707  15.760  20.185  10.565 -0.1818 -0.0202  0.5132
 1735PEP     CB65708  16.201  19.992  10.591  0.2388  0.1421 -0.1925
 1735PEP     CB65709  16.709  20.028  10.580 -0.1170 -0.1284  0.0472
 1735PEP     CB65710  16.945  20.305  10.213 -0.0717  0.0106  0.0357
 1735PEP     CB65711  16.719  20.404   9.819  0.0635 -0.0685 -0.1099
 1735PEP     CB65712  16.488  20.048   9.682 -0.0271  0.1682  0.1079
 1735PEP     CB65713  16.736  19.784   9.513  0.0100  0.0547  0.2304
 1735PEP     CB65714  17.248  19.788   9.522 -0.1377  0.2803  0.0206
 1735PEP     CB65715  17.668  19.909   9.461 -0.3176  0.3268 -0.0887
 1735PEP     CB65716  17.989  19.725   9.180 -0.3829  0.0810 -0.4257
 1735PEP     CB65717  18.254  19.551   8.847 -0.0516 -0.1643  0.2389
 1735PEP     CB65718  18.547  19.376   8.554  0.1815  0.1138  0.1747
 1735PEP     CB65719  18.735  19.280   8.310  0.0572  0.3668 -0.0605
 1735PEP     CB65720  18.590  18.849   8.127 -0.2845  0.2198 -0.0011
 1736PEP     CB65721  20.452  13.668   9.508  0.1904  0.1094  0.4152
 1736PEP     CB65722  20.887  13.503   9.603 -0.2764  0.0950  0.0157
 1736PEP     CB65723  21.238  13.270   9.550  0.4758  0.2962 -0.0339
 1736PEP     CB65724  21.583  13.355   9.749 -0.1278 -0.1736  0.0484
 1736PEP     CB65725  21.809  13.188  10.125 -0.0550  0.0951  0.0271
 1736PEP     CB65726  21.766  12.853  10.376  0.0700 -0.1377  0.0748
 1736PEP     CB65727  21.784  12.828  10.804  0.1589  0.4293 -0.0633
 1736PEP     CB65728  21.819  13.258  11.059 -0.0893  0.0045 -0.0029
 1736PEP     CB65729  22.104  13.666  11.030 -0.4449  0.3254 -0.3760
 1736PEP     CB65730  22.189  13.870  10.672 -0.2152 -0.1300  0.4217
 1736PEP     CB65731  21.924  13.919  10.273  0.0838 -0.1944 -0.0040
 1736PEP     CB65732  21.713  13.669  10.123  0.1926  0.3961  0.0695
 1736PEP     CB65733  21.384  13.343  10.342  0.2192 -0.3234  0.1827
 1736PEP     CB65734  21.062  13.091  10.599 -0.6982 -0.0016 -0.0217
 1736PEP     CB65735  20.937  12.952  10.945  0.2463 -0.0223 -0.0587
 1736PEP     CB65736  20.628  12.912  11.229 -0.3224  0.1711 -0.1124
 1736PEP     CB65737  20.557  13.173  11.625  0.0120  0.0631 -0.1599
 1736PEP     CB65738  20.806  13.252  11.973  0.1565  0.0056  0.1471
 1736PEP     CB65739  20.957  12.943  12.346  0.0468 -0.1670 -0.3514
 1736PEP     CB65740  20.666  12.595  12.459  0.1799  0.1212  0.0272
 1736PEP     CB65741  20.593  12.136  12.755 -0.1969 -0.4704 -0.3754
 1736PEP     CB65742  20.713  11.665  12.863 -0.0870 -0.2707 -0.0278
 1736PEP     CB65743  20.539  11.350  13.126 -0.1763  0.0741 -0.1966
 1736PEP     CB65744  20.437  11.439  13.585 -0.4055 -0.3239 -0.1268
 1736PEP     CB65745  20.290  11.457  13.909  0.0428  0.0751 -0.1994
 1736PEP     CB65746  20.390  11.377  14.376 -0.2020  0.1122 -0.2906
 1736PEP     CB65747  20.827  11.240  14.568  0.0726 -0.1828 -0.3192
 1736PEP     CB65748  21.054  11.308  14.840  0.3285  0.0731 -0.1074
 1736PEP     CB65749  20.989  11.532  15.236  0.3000  0.2559 -0.2716
 1736PEP     CB65750  20.728  11.933  15.380  0.3325  0.0538  0.1565
 1736PEP     CB65751  20.250  12.189  15.205  0.1371  0.1286 -0.2995
 1736PEP     CB65752  20.029  12.058  14.876  0.0258  0.0692  0.0434
 1736PEP     CB65753  20.207  11.787  14.521 -0.0792  0.1048  0.4375
 1736PEP     CB65754  20.696  11.857  14.379  0.0388  0.0658  0.2184
 1736PEP     CB65755  21.119  11.618  14.503  0.0115  0.2911 -0.2059
 1736PEP     CB65756  21.536  11.656  14.376 -0.3327 -0.1300  0.0439
 1736PEP     CB65757  21.859  11.794  14.123  0.2185 -0.0486 -0.0516
 1736PEP     CB65758  22.272  11.695  14.008  0.3036  0.0753 -0.5010
 1736PEP     CB65759  22.694  11.564  13.720  0.1727 -0.3487 -0.0410
 1736PEP     CB65760  22.938  11.234  13.437 -0.3793 -0.0240  0.0306
 1737PEP     CB65761   0.090  16.271  18.008  0.0778  0.2915  0.0185
 1737PEP     CB65762   0.177  16.110  17.618  0.1371  0.1153 -0.0487
 1737PEP     CB65763   0.339  15.847  17.320  0.1610 -0.1771 -0.1325
 1737PEP     CB65764   0.336  15.421  17.163 -0.0367 -0.1167 -0.3347
 1737PEP     CB65765   0.670  15.072  17.173 -0.4836  0.0412  0.0066
 1737PEP     CB65766   0.838  14.911  16.832 -0.1759 -0.1589 -0.3227
 1737PEP     CB65767   0.734  14.569  16.590  0.2154 -0.1810  0.3523
 1737PEP     CB65768   0.793  14.439  16.144  0.0892  0.4902 -0.3288
 1737PEP     CB65769   0.887  14.229  15.772  0.6141  0.1153 -0.3590
 1737PEP     CB65770   0.788  13.843  15.490  0.2268  0.0411 -0.0139
 1737PEP     CB65771   0.723  13.398  15.379  0.0714  0.0448  0.2089
 1737PEP     CB65772   0.598  12.982  15.537  0.0652 -0.3106 -0.3776
 1737PEP     CB65773   0.416  12.599  15.752 -0.0473  0.1032  0.1883
 1737PEP     CB65774   0.202  12.451  16.044  0.0386 -0.0781  0.0542
 1737PEP     CB65775   0.278  12.020  16.148 -0.2454 -0.2729 -0.1947
 1737PEP     CB65776   0.325  11.725  15.804 -0.1144  0.1384  0.0563
 1737PEP     CB65777   0.013  11.609  15.485  0.0286  0.3420  0.1512
 1737PEP     CB65778  -0.124  11.559  15.057 -0.0477 -0.1131 -0.1164
 1737PEP     CB65779  -0.188  11.345  14.679 -0.0274 -0.0828  0.2692
 1737PEP     CB65780  -0.281  11.143  14.261  0.4404 -0.1379  0.1036
 1737PEP     CB65781  -0.476  11.138  13.873  0.1921 -0.0052  0.3111
 1737PEP     CB65782  -0.673  10.806  13.631  0.0533 -0.5182 -0.1221
 1737PEP     CB65783  -0.816  10.689  13.308  0.0797  0.3169 -0.2886
 1737PEP     CB65784  -0.896  10.507  12.905  0.0803 -0.0748  0.3033
 1737PEP     CB65785  -1.023  10.079  12.862  0.0594 -0.2217  0.1724
 1737PEP     CB65786  -0.895   9.773  13.016 -0.0757 -0.2260 -0.2120
 1737PEP     CB65787  -0.507   9.645  13.122  0.0443  0.1480 -0.1615
 1737PEP     CB65788  -0.240   9.208  13.273  0.2142 -0.2804  0.0733
 1737PEP     CB65789  -0.219   8.766  13.258 -0.1756  0.2542 -0.0682
 1737PEP     CB65790   0.041   8.370  13.263  0.3422  0.1795 -0.4316
 1737PEP     CB65791   0.433   8.327  13.109 -0.3595 -0.0120 -0.2151
 1737PEP     CB65792   0.471   8.347  12.635  0.1065 -0.1274 -0.3310
 1737PEP     CB65793   0.466   8.710  12.401 -0.0952  0.1713  0.0031
 1737PEP     CB65794   0.614   9.126  12.364  0.0702  0.2324 -0.1118
 1737PEP     CB65795   0.802   9.430  12.632  0.6003  0.2656  0.2020
 1737PEP     CB65796   0.684   9.747  13.022 -0.1996 -0.1745  0.0604
 1737PEP     CB65797   0.327  10.023  13.132  0.2494 -0.1101  0.2683
 1737PEP     CB65798  -0.014  10.189  13.176 -0.0332  0.2697 -0.0151
 1737PEP     CB65799  -0.388  10.271  12.958  0.0318  0.4463 -0.0512
 1737PEP     CB65800  -0.479  10.607  12.687  0.0935 -0.2830 -0.0613
 1738PEP     CB65801   6.495  11.976  20.891  0.0801 -0.0237 -0.3152
 1738PEP     CB65802   6.049  11.961  20.643 -0.0015  0.8258  0.2519
 1738PEP     CB65803   5.637  12.203  20.508  0.3635  0.1531  0.0903
 1738PEP     CB65804   5.234  12.198  20.226 -0.1699 -0.2187 -0.2774
 1738PEP     CB65805   4.927  12.338  20.009  0.0389  0.1698  0.0518
 1738PEP     CB65806   4.728  12.607  19.707 -0.1765 -0.0190 -0.0264
 1738PEP     CB65807   4.344  12.826  19.731 -0.0695 -0.2154 -0.2037
 1738PEP     CB65808   4.289  13.262  19.986  0.1810  0.0540  0.3793
 1738PEP     CB65809   4.505  13.663  19.916 -0.2582 -0.1991  0.0565
 1738PEP     CB65810   4.730  14.082  19.764 -0.0557  0.1390 -0.1583
 1738PEP     CB65811   4.780  14.456  19.637 -0.2005  0.1078  0.0019
 1738PEP     CB65812   5.051  14.799  19.525 -0.4175  0.1601 -0.5482
 1738PEP     CB65813   5.098  15.130  19.201  0.1376 -0.3654  0.0778
 1738PEP     CB65814   5.422  15.535  19.228 -0.2889  0.2497  0.3093
 1738PEP     CB65815   5.545  15.797  19.526  0.1417  0.1218  0.3186
 1738PEP     CB65816   5.872  15.826  19.888  0.0063 -0.3306  0.1741
 1738PEP     CB65817   5.841  15.603  20.265  0.1799 -0.3846 -0.0739
 1738PEP     CB65818   5.625  15.683  20.683 -0.1972 -0.3309 -0.0437
 1738PEP     CB65819   5.782  15.990  21.103  0.0831 -0.1548  0.1391
 1738PEP     CB65820   5.962  16.336  21.360 -0.1108  0.0377 -0.0866
 1738PEP     CB65821   5.997  16.766  21.412 -0.3176  0.0520 -0.0100
 1738PEP     CB65822   5.864  17.195  21.478  0.2359  0.0297  0.0315
 1738PEP     CB65823   5.737  17.513  21.714  0.4080  0.2258  0.3297
 1738PEP     CB65824   5.501  17.900  21.845  0.2577  0.3822  0.1133
 1738PEP     CB65825   5.249  18.126  22.075 -0.2183 -0.3425  0.0736
 1738PEP     CB65826   4.749  18.207  22.171 -0.3168 -0.0028 -0.1300
 1738PEP     CB65827   4.429  18.269  22.272 -0.1841 -0.4243  0.2397
 1738PEP     CB65828   4.103  18.158  22.554  0.0836  0.0629  0.1849
 1738PEP     CB65829   3.976  17.758  22.636  0.2462 -0.0099  0.1911
 1738PEP     CB65830   4.135  17.418  22.535  0.6021 -0.0111  0.0696
 1738PEP     CB65831   4.033  16.987  22.350 -0.0398  0.0523  0.0211
 1738PEP     CB65832   4.178  16.666  22.228  0.1359  0.0770 -0.2456
 1738PEP     CB65833   4.500  16.398  22.144 -0.1574  0.0032  0.0830
 1738PEP     CB65834   4.613  15.935  22.152  0.2141 -0.2036  0.0493
 1738PEP     CB65835   4.329  15.653  21.994  0.3514  0.2411  0.0880
 1738PEP     CB65836   4.089  15.607  21.708  0.0564 -0.2663  0.3474
 1738PEP     CB65837   4.141  15.410  21.325  0.5231 -0.1256 -0.3699
 1738PEP     CB65838   4.431  15.295  21.093  0.0948 -0.3999  0.1118
 1738PEP     CB65839   4.730  15.487  20.970  0.0361  0.1052  0.2377
 1738PEP     CB65840   5.191  15.531  20.806 -0.2782  0.0772 -0.1390
 1739PEP     CB65841  10.010   0.818  18.076  0.0377  0.1993 -0.2184
 1739PEP     CB65842  10.178   0.986  17.637  0.0792 -0.0548 -0.0449
 1739PEP     CB65843  10.294   1.006  17.213 -0.0988  0.3056 -0.1290
 1739PEP     CB65844  10.273   0.700  16.828  0.0396  0.1054  0.0715
 1739PEP     CB65845  10.211   0.531  16.389  0.0729 -0.1518  0.1032
 1739PEP     CB65846  10.415   0.393  15.987 -0.1856  0.0904  0.0846
 1739PEP     CB65847  10.487  -0.064  15.882  0.1795  0.4836  0.4335
 1739PEP     CB65848  10.671  -0.333  16.056 -0.4341 -0.0704 -0.2584
 1739PEP     CB65849  10.471  -0.536  16.265  0.1046  0.1327  0.1012
 1739PEP     CB65850  10.267  -0.949  16.210  0.0885  0.1857  0.0471
 1739PEP     CB65851  10.119  -1.160  15.832 -0.2353  0.2825  0.2295
 1739PEP     CB65852  10.087  -1.207  15.467 -0.4787  0.1521  0.4190
 1739PEP     CB65853  10.104  -1.498  15.099  0.3565  0.4959 -0.6062
 1739PEP     CB65854  10.282  -1.725  14.759 -0.1823 -0.1381 -0.0813
 1739PEP     CB65855  10.593  -1.951  14.648  0.0356  0.1365 -0.2332
 1739PEP     CB65856  11.001  -2.071  14.711  0.0759 -0.3062  0.0943
 1739PEP     CB65857  11.041  -2.434  14.677  0.0885 -0.0768  0.2554
 1739PEP     CB65858  10.807  -2.735  14.558 -0.4019 -0.4286  0.2077
 1739PEP     CB65859  10.605  -2.894  14.283  0.5560 -0.2357  0.1256
 1739PEP     CB65860  10.525  -2.786  13.863  0.2997 -0.0233 -0.0869
 1739PEP     CB65861  10.298  -2.802  13.471  0.2917  0.3840 -0.0138
 1739PEP     CB65862  10.093  -3.069  13.147 -0.3537 -0.0633 -0.0279
 1739PEP     CB65863  10.209  -3.099  12.648  0.2002 -0.0405  0.1421
 1739PEP     CB65864  10.497  -2.984  12.322 -0.0107 -0.2293 -0.0677
 1739PEP     CB65865  10.732  -2.664  12.380  0.3259  0.2659  0.0451
 1739PEP     CB65866  10.989  -2.752  12.766 -0.3055 -0.0904 -0.1345
 1739PEP     CB65867  11.202  -3.146  12.900 -0.3467 -0.4049  0.2645
 1739PEP     CB65868  11.077  -3.568  12.721 -0.1407 -0.0509 -0.2776
 1739PEP     CB65869  10.770  -3.832  12.722  0.2550  0.2288 -0.1748
 1739PEP     CB65870  10.555  -4.100  12.477  0.3092 -0.0652  0.0338
 1739PEP     CB65871  10.479  -4.134  12.020 -0.3902 -0.2875 -0.2006
 1739PEP     CB65872  10.726  -4.094  11.599 -0.0222  0.1782 -0.4364
 1739PEP     CB65873  11.001  -4.127  11.240  0.0547 -0.4284 -0.1105
 1739PEP     CB65874  11.223  -4.475  11.111 -0.2945 -0.2121  0.1399
 1739PEP     CB65875  10.980  -4.823  11.079  0.3338  0.3335  0.5614
 1739PEP     CB65876  10.551  -5.055  11.258 -0.1747  0.0561  0.1795
 1739PEP     CB65877  10.197  -5.153  11.528  0.1502 -0.2004  0.2423
 1739PEP     CB65878   9.922  -5.060  11.853 -0.2568  0.1805  0.0837
 1739PEP     CB65879   9.793  -4.943  12.215 -0.1461  0.2387  0.0158
 1739PEP     CB65880   9.891  -4.856  12.620  0.2021  0.2518 -0.2197
 1740PEP     CB65881  10.851   6.004  15.631  0.1151 -0.1705  0.1007
 1740PEP     CB65882  10.910   5.693  15.949  0.1968  0.0890  0.0006
 1740PEP     CB65883  10.958   5.632  16.416 -0.2209 -0.0464  0.3021
 1740PEP     CB65884  10.849   5.705  16.929 -0.3490  0.0215 -0.3957
 1740PEP     CB65885  10.734   5.384  17.330 -0.2008  0.2487 -0.2161
 1740PEP     CB65886  10.963   5.163  17.630 -0.1134  0.1130  0.1220
 1740PEP     CB65887  11.243   5.364  17.887 -0.3381  0.1160  0.0839
 1740PEP     CB65888  11.583   5.431  17.780 -0.1668  0.1906  0.0853
 1740PEP     CB65889  11.678   5.812  17.618  0.0724 -0.0672 -0.0601
 1740PEP     CB65890  11.473   6.103  17.341  0.1505 -0.3380 -0.3420
 1740PEP     CB65891  11.387   6.526  17.321 -0.0130 -0.3126 -0.2025
 1740PEP     CB65892  11.655   6.824  17.229 -0.0521  0.4503 -0.1004
 1740PEP     CB65893  12.084   6.737  17.322 -0.0687  0.0275 -0.2186
 1740PEP     CB65894  12.569   6.713  17.293  0.0308  0.1457 -0.1625
 1740PEP     CB65895  12.796   6.580  16.940 -0.1198  0.2080  0.1660
 1740PEP     CB65896  12.676   6.417  16.606  0.0575 -0.0281  0.1214
 1740PEP     CB65897  12.245   6.232  16.537 -0.4019 -0.2052 -0.1255
 1740PEP     CB65898  12.048   5.848  16.569 -0.2324 -0.1300 -0.4003
 1740PEP     CB65899  11.717   5.561  16.617 -0.0721 -0.1300  0.0472
 1740PEP     CB65900  11.453   5.203  16.495  0.3732 -0.0177  0.3818
 1740PEP     CB65901  11.235   4.770  16.533 -0.1694  0.4687 -0.0345
 1740PEP     CB65902  11.033   4.389  16.397 -0.4913  0.2173  0.0738
 1740PEP     CB65903  10.605   4.302  16.349 -0.0819 -0.0652  0.0938
 1740PEP     CB65904  10.125   4.433  16.433  0.1215  0.1155  0.2899
 1740PEP     CB65905   9.831   4.444  16.553  0.1725 -0.1507 -0.1536
 1740PEP     CB65906   9.490   4.767  16.460 -0.0558 -0.3933  0.1956
 1740PEP     CB65907   9.066   5.006  16.438 -0.0678 -0.1542 -0.1938
 1740PEP     CB65908   8.620   5.165  16.159  0.1423 -0.2497 -0.3386
 1740PEP     CB65909   8.179   5.007  16.214 -0.0983 -0.1702  0.2739
 1740PEP     CB65910   7.945   4.669  16.020  0.0279 -0.0433 -0.1777
 1740PEP     CB65911   8.117   4.291  15.968  0.4067  0.0343 -0.0567
 1740PEP     CB65912   8.377   4.021  15.657  0.0570 -0.1518 -0.0613
 1740PEP     CB65913   8.394   3.825  15.282  0.1775 -0.0309  0.5821
 1740PEP     CB65914   8.357   3.654  14.846  0.2415  0.1199 -0.2486
 1740PEP     CB65915   8.468   3.693  14.509 -0.0716  0.3058 -0.0532
 1740PEP     CB65916   8.735   3.841  14.270  0.2260  0.0201 -0.2058
 1740PEP     CB65917   9.119   3.911  14.129 -0.0372  0.0516 -0.4308
 1740PEP     CB65918   9.493   3.995  13.874  0.3947  0.2744 -0.1134
 1740PEP     CB65919   9.858   4.243  13.826  0.1816  0.0505  0.2031
 1740PEP     CB65920  10.252   4.545  13.752  0.2821  0.1836 -0.2385
 1741PEP     CB65921   4.981   1.585   2.349  0.2250 -0.2287  0.0827
 1741PEP     CB65922   5.119   1.888   2.133  0.1036  0.2110 -0.0003
 1741PEP     CB65923   5.493   2.178   2.232  0.4401 -0.2052  0.2711
 1741PEP     CB65924   5.905   2.066   2.289  0.0035  0.1291  0.3714
 1741PEP     CB65925   6.389   2.139   2.276 -0.3146  0.3105  0.1092
 1741PEP     CB65926   6.697   2.344   2.614  0.0359 -0.3045  0.2229
 1741PEP     CB65927   6.688   2.362   3.056  0.0259  0.2389 -0.1541
 1741PEP     CB65928   6.631   2.019   3.372  0.0895 -0.2750 -0.1093
 1741PEP     CB65929   6.578   1.629   3.347  0.2956  0.0640 -0.1869
 1741PEP     CB65930   6.887   1.272   3.171  0.1324 -0.0383 -0.1429
 1741PEP     CB65931   6.985   0.895   2.927 -0.1621  0.3440 -0.1259
 1741PEP     CB65932   6.918   0.855   2.523  0.0092 -0.0879 -0.1074
 1741PEP     CB65933   6.600   0.660   2.289 -0.0226  0.3293 -0.0353
 1741PEP     CB65934   6.308   0.945   2.022  0.2455 -0.5121  0.1520
 1741PEP     CB65935   6.279   1.236   1.678 -0.3413  0.2200 -0.0001
 1741PEP     CB65936   6.011   1.345   1.382 -0.2348  0.0833  0.2840
 1741PEP     CB65937   5.871   1.217   1.015 -0.0559 -0.1361  0.1530
 1741PEP     CB65938   5.507   1.303   0.684 -0.4682 -0.2492 -0.2385
 1741PEP     CB65939   5.200   1.445   0.410 -0.3920  0.2610  0.3682
 1741PEP     CB65940   5.152   1.583  -0.028  0.1526  0.2045 -0.3775
 1741PEP     CB65941   5.465   1.744  -0.297 -0.1692  0.5790 -0.1398
 1741PEP     CB65942   5.682   1.588  -0.624  0.0589 -0.5688  0.0533
 1741PEP     CB65943   5.605   1.262  -0.923 -0.2270 -0.0412  0.0693
 1741PEP     CB65944   5.197   1.049  -1.045  0.0819 -0.1548 -0.0352
 1741PEP     CB65945   4.873   0.899  -0.755  0.0891 -0.2160 -0.4125
 1741PEP     CB65946   4.655   1.153  -0.446 -0.3469 -0.1751 -0.1657
 1741PEP     CB65947   4.649   1.450  -0.083  0.0449  0.0474  0.4451
 1741PEP     CB65948   4.531   1.853   0.133  0.1119  0.1275 -0.0657
 1741PEP     CB65949   4.532   2.300   0.150  0.2376 -0.2198  0.0552
 1741PEP     CB65950   4.818   2.630   0.258 -0.0211 -0.3041 -0.1640
 1741PEP     CB65951   5.245   2.826   0.180 -0.2329 -0.2745  0.1946
 1741PEP     CB65952   5.627   2.697   0.002 -0.1403 -0.0530 -0.3301
 1741PEP     CB65953   5.702   2.588  -0.458  0.3566  0.3650  0.2817
 1741PEP     CB65954   5.435   2.548  -0.901  0.0927  0.0290 -0.1570
 1741PEP     CB65955   5.268   2.440  -1.198 -0.0030  0.2066  0.2550
 1741PEP     CB65956   5.043   2.586  -1.490 -0.2056 -0.0471 -0.3005
 1741PEP     CB65957   5.170   2.709  -1.933  0.2784  0.1555  0.3308
 1741PEP     CB65958   5.420   2.565  -2.232  0.4857 -0.1268 -0.0383
 1741PEP     CB65959   5.763   2.757  -2.508 -0.1231  0.2271 -0.0634
 1741PEP     CB65960   6.016   3.051  -2.720  0.4152  0.0068 -0.1853
 1742PEP     CB65961  11.735   4.871  21.717  0.0379 -0.1921  0.3098
 1742PEP     CB65962  11.832   4.560  21.409 -0.3458  0.4714  0.0880
 1742PEP     CB65963  11.938   4.341  21.008  0.2375 -0.1549 -0.2327
 1742PEP     CB65964  11.890   4.374  20.593 -0.0677 -0.1242 -0.1595
 1742PEP     CB65965  11.700   4.201  20.246  0.0807 -0.7813  0.1543
 1742PEP     CB65966  11.367   4.350  20.111  0.2403  0.5210 -0.1903
 1742PEP     CB65967  11.156   4.714  20.285  0.3442 -0.0671  0.3712
 1742PEP     CB65968  11.120   5.180  20.184 -0.5991 -0.3398 -0.1191
 1742PEP     CB65969  11.038   5.410  19.837 -0.4650 -0.0959 -0.0031
 1742PEP     CB65970  10.686   5.416  19.464 -0.1700  0.0225 -0.2949
 1742PEP     CB65971  10.623   5.798  19.128 -0.0272 -0.0833  0.1006
 1742PEP     CB65972  10.964   5.751  18.740  0.0543  0.1679  0.3370
 1742PEP     CB65973  11.444   5.849  18.648 -0.3279  0.0112  0.2148
 1742PEP     CB65974  11.917   5.885  18.493  0.0495 -0.0156 -0.3016
 1742PEP     CB65975  12.226   6.067  18.149 -0.0541  0.3293  0.0065
 1742PEP     CB65976  12.426   6.205  17.833 -0.1682  0.1514 -0.1643
 1742PEP     CB65977  12.766   6.148  17.551  0.0139  0.1542  0.1667
 1742PEP     CB65978  13.030   5.713  17.372 -0.3185  0.2672  0.2386
 1742PEP     CB65979  13.197   5.469  17.750 -0.1823 -0.0847  0.1425
 1742PEP     CB65980  12.937   5.341  18.087 -0.0014  0.6230 -0.0110
 1742PEP     CB65981  12.927   5.029  18.399 -0.1435 -0.2317  0.0429
 1742PEP     CB65982  12.540   4.782  18.315  0.1209 -0.3412  0.0152
 1742PEP     CB65983  12.239   4.861  17.957 -0.2276 -0.0633 -0.0225
 1742PEP     CB65984  12.037   5.156  17.697  0.2111 -0.4274  0.0755
 1742PEP     CB65985  12.117   5.588  17.624  0.2074  0.0811 -0.3263
 1742PEP     CB65986  12.148   5.942  17.535 -0.1233  0.4060  0.1621
 1742PEP     CB65987  11.946   6.224  17.283 -0.2399  0.1913 -0.1315
 1742PEP     CB65988  11.781   6.308  16.881 -0.1153 -0.4107 -0.2012
 1742PEP     CB65989  11.506   6.247  16.490 -0.4279  0.2808 -0.3123
 1742PEP     CB65990  11.286   5.965  16.128  0.2422  0.2312  0.0127
 1742PEP     CB65991  11.420   5.769  15.694 -0.3464 -0.3614  0.3136
 1742PEP     CB65992  11.546   5.766  15.340 -0.0125  0.1453  0.1551
 1742PEP     CB65993  11.611   6.156  15.078  0.0411 -0.1032 -0.2881
 1742PEP     CB65994  11.733   6.647  15.289  0.0259  0.2047 -0.1774
 1742PEP     CB65995  11.804   6.686  15.763 -0.0461 -0.2299 -0.1100
 1742PEP     CB65996  12.040   6.571  16.073  0.4713  0.2004 -0.4633
 1742PEP     CB65997  11.882   6.621  16.562  0.3927 -0.0631 -0.4518
 1742PEP     CB65998  11.523   6.854  16.746  0.2127 -0.2907 -0.2977
 1742PEP     CB65999  11.263   7.125  16.579 -0.2037 -0.1481  0.2490
 1742PEP     CB66000  11.281   7.211  16.090  0.0969  0.1563  0.2467
 1743PEP     CB66001   0.604   6.171   9.835  0.0630  0.2744 -0.1998
 1743PEP     CB66002   0.829   6.049   9.507 -0.0075  0.0803 -0.4525
 1743PEP     CB66003   0.694   6.209   9.084  0.3615  0.0633  0.1491
 1743PEP     CB66004   0.456   6.279   8.753 -0.2582  0.3944 -0.1023
 1743PEP     CB66005   0.192   6.602   8.621 -0.1591  0.3518 -0.0372
 1743PEP     CB66006   0.206   7.043   8.442  0.2273  0.1369 -0.1942
 1743PEP     CB66007   0.138   7.451   8.574 -0.3656  0.3120 -0.1866
 1743PEP     CB66008   0.360   7.703   8.785  0.0885 -0.2551  0.0853
 1743PEP     CB66009   0.666   7.914   9.034  0.0966 -0.0404 -0.0882
 1743PEP     CB66010   0.810   8.268   9.230 -0.0882  0.0119 -0.1388
 1743PEP     CB66011   0.852   8.775   9.361 -0.2115 -0.0764 -0.1689
 1743PEP     CB66012   0.775   9.212   9.082  0.0802 -0.0688 -0.1060
 1743PEP     CB66013   0.707   9.548   8.946  0.0510 -0.0387 -0.1962
 1743PEP     CB66014   0.818   9.997   8.849 -0.1731 -0.1524  0.1474
 1743PEP     CB66015   0.705  10.375   8.711 -0.1705  0.4240 -0.5210
 1743PEP     CB66016   0.743  10.766   8.525  0.4086  0.0450  0.3752
 1743PEP     CB66017   0.538  11.017   8.189  0.1387  0.0349  0.0956
 1743PEP     CB66018   0.631  11.145   7.803 -0.3005 -0.1875  0.2293
 1743PEP     CB66019   0.667  11.365   7.410 -0.1168 -0.1739  0.3079
 1743PEP     CB66020   0.503  11.648   7.105 -0.1479 -0.1611  0.5312
 1743PEP     CB66021   0.147  11.659   6.933 -0.3212  0.0048  0.0349
 1743PEP     CB66022  -0.107  11.719   6.599 -0.2206 -0.3361  0.1592
 1743PEP     CB66023  -0.204  11.661   6.075  0.1207 -0.0992 -0.1110
 1743PEP     CB66024  -0.270  11.323   5.868 -0.3702  0.3476 -0.1568
 1743PEP     CB66025   0.028  11.044   5.672 -0.0019 -0.2098 -0.1932
 1743PEP     CB66026   0.270  10.668   5.574 -0.1863  0.2314  0.1172
 1743PEP     CB66027   0.249  10.154   5.501 -0.0488 -0.0093 -0.1251
 1743PEP     CB66028   0.367   9.788   5.299 -0.2110 -0.0690  0.2594
 1743PEP     CB66029   0.590   9.423   5.086 -0.3380 -0.0773 -0.0485
 1743PEP     CB66030   1.007   9.414   4.978  0.1737 -0.0050 -0.0050
 1743PEP     CB66031   1.325   9.485   5.292 -0.1854  0.1797 -0.1956
 1743PEP     CB66032   1.422   9.475   5.724  0.1919  0.1632 -0.2561
 1743PEP     CB66033   1.445   9.345   6.192 -0.3685  0.2572  0.1962
 1743PEP     CB66034   1.380   9.111   6.602 -0.1182  0.0204  0.0887
 1743PEP     CB66035   1.412   9.006   7.048 -0.0434  0.0261  0.2336
 1743PEP     CB66036   1.575   8.794   7.307  0.1516  0.0275 -0.1460
 1743PEP     CB66037   1.946   8.584   7.506 -0.1107 -0.1030  0.2242
 1743PEP     CB66038   2.368   8.393   7.320 -0.0298 -0.0420 -0.1080
 1743PEP     CB66039   2.747   8.106   7.318 -0.2140 -0.1066  0.3614
 1743PEP     CB66040   3.141   7.959   7.344 -0.1728  0.3837  0.3468
 1744PEP     CB66041   2.677   7.256  10.047  0.1993 -0.1335  0.3512
 1744PEP     CB66042   2.883   7.477   9.897  0.0731  0.5038  0.2528
 1744PEP     CB66043   3.190   7.662   9.969 -0.2370 -0.5119 -0.1087
 1744PEP     CB66044   3.539   7.513  10.032 -0.4654 -0.2140 -0.0592
 1744PEP     CB66045   3.878   7.211  10.102 -0.1443 -0.1975  0.0510
 1744PEP     CB66046   4.040   6.834   9.940  0.2614 -0.0100 -0.2599
 1744PEP     CB66047   3.828   6.446   9.668 -0.2039 -0.0120 -0.1810
 1744PEP     CB66048   3.475   6.126   9.535  0.0238  0.2213 -0.0575
 1744PEP     CB66049   3.110   6.188   9.289  0.0929  0.7792  0.3062
 1744PEP     CB66050   2.829   6.026   8.977 -0.2506  0.0969  0.0394
 1744PEP     CB66051   2.459   5.705   8.935  0.0839  0.1130 -0.2128
 1744PEP     CB66052   2.076   5.647   8.950 -0.2749  0.1310 -0.2523
 1744PEP     CB66053   1.734   5.630   9.276 -0.3857 -0.1841 -0.2999
 1744PEP     CB66054   1.463   5.914   9.548 -0.0523  0.2003  0.0903
 1744PEP     CB66055   1.222   6.280   9.595 -0.2029  0.1036 -0.0788
 1744PEP     CB66056   0.851   6.590   9.493  0.2273 -0.1767 -0.0192
 1744PEP     CB66057   0.418   6.549   9.514 -0.0537  0.1033 -0.2312
 1744PEP     CB66058   0.249   6.219   9.372 -0.2826 -0.0508 -0.1340
 1744PEP     CB66059   0.360   5.807   9.326 -0.2549  0.0136 -0.4532
 1744PEP     CB66060   0.460   5.548   9.727  0.3079  0.1471 -0.0086
 1744PEP     CB66061   0.591   5.304  10.175  0.1511  0.0158 -0.1498
 1744PEP     CB66062   0.748   5.050  10.494  0.0686 -0.3290 -0.3199
 1744PEP     CB66063   1.109   4.882  10.706 -0.0277 -0.1694 -0.1322
 1744PEP     CB66064   1.542   4.747  10.786  0.1515  0.0916  0.0236
 1744PEP     CB66065   1.897   4.562  11.079 -0.7121 -0.1351  0.0771
 1744PEP     CB66066   2.297   4.574  11.278  0.1437  0.3166  0.0657
 1744PEP     CB66067   2.511   4.252  11.440  0.1609  0.1890  0.1153
 1744PEP     CB66068   2.732   3.843  11.569 -0.1130 -0.0515  0.0230
 1744PEP     CB66069   2.623   3.422  11.634 -0.1847  0.1234 -0.2791
 1744PEP     CB66070   2.381   3.100  11.850 -0.2006  0.3517  0.3675
 1744PEP     CB66071   1.978   2.989  11.866 -0.1908  0.2594  0.0458
 1744PEP     CB66072   1.707   3.028  12.102 -0.0086 -0.2400  0.1765
 1744PEP     CB66073   1.763   3.146  12.566  0.2827  0.0884  0.1122
 1744PEP     CB66074   1.831   3.390  12.887  0.2839 -0.3698 -0.0483
 1744PEP     CB66075   2.121   3.546  13.054 -0.1876 -0.1183 -0.1208
 1744PEP     CB66076   2.511   3.749  13.196 -0.0461 -0.0603 -0.0492
 1744PEP     CB66077   2.708   4.003  13.466  0.2059 -0.0168  0.1121
 1744PEP     CB66078   3.057   4.095  13.238  0.1948 -0.0313 -0.3423
 1744PEP     CB66079   3.120   4.130  12.784 -0.0020 -0.1023  0.1443
 1744PEP     CB66080   2.871   4.325  12.445 -0.1552  0.1120  0.1437
 1745PEP     CB66081   1.228   0.650  15.221  0.1464 -0.0850 -0.1535
 1745PEP     CB66082   1.069   0.336  15.460  0.0622 -0.0396  0.0360
 1745PEP     CB66083   1.102  -0.046  15.686  0.1965 -0.2329 -0.2119
 1745PEP     CB66084   1.138  -0.238  16.081 -0.3592 -0.1165 -0.3398
 1745PEP     CB66085   1.043  -0.414  16.411  0.3946 -0.1680  0.0259
 1745PEP     CB66086   1.239  -0.635  16.646 -0.0998 -0.2911 -0.2998
 1745PEP     CB66087   1.299  -1.062  16.766  0.2161  0.0607 -0.4311
 1745PEP     CB66088   1.532  -1.445  16.804  0.0547  0.0751 -0.2257
 1745PEP     CB66089   1.831  -1.657  16.708  0.0716  0.1835  0.0439
 1745PEP     CB66090   2.225  -1.529  16.465  0.0046 -0.0095  0.2805
 1745PEP     CB66091   2.481  -1.460  16.044 -0.0167  0.0175  0.1776
 1745PEP     CB66092   2.793  -1.270  15.800 -0.0970  0.2390 -0.0265
 1745PEP     CB66093   3.039  -0.859  15.680  0.4503  0.1198 -0.1634
 1745PEP     CB66094   3.249  -0.623  15.981  0.3855 -0.4586 -0.0166
 1745PEP     CB66095   3.160  -0.774  16.373 -0.3554 -0.2595 -0.0061
 1745PEP     CB66096   3.011  -1.010  16.758  0.5477  0.0385  0.2496
 1745PEP     CB66097   2.740  -0.920  17.176  0.3209  0.3899  0.4619
 1745PEP     CB66098   2.667  -0.746  17.420 -0.1316  0.0468 -0.0804
 1745PEP     CB66099   2.838  -0.505  17.709 -0.1478 -0.1374 -0.2180
 1745PEP     CB66100   2.879  -0.648  18.164  0.2920 -0.2642 -0.1476
 1745PEP     CB66101   2.989  -0.764  18.618 -0.2067 -0.2230 -0.1635
 1745PEP     CB66102   2.870  -0.913  19.068  0.2385 -0.0351 -0.0331
 1745PEP     CB66103   2.560  -0.979  19.340  0.1722 -0.1796 -0.0285
 1745PEP     CB66104   2.255  -0.999  19.551  0.2273  0.3050 -0.2553
 1745PEP     CB66105   2.255  -1.237  19.933 -0.1700  0.1609 -0.1817
 1745PEP     CB66106   1.978  -1.431  20.261  0.2326 -0.3793 -0.0957
 1745PEP     CB66107   1.583  -1.572  20.140 -0.2008 -0.1693 -0.2988
 1745PEP     CB66108   1.292  -1.237  19.856 -0.0400  0.3039  0.0292
 1745PEP     CB66109   1.521  -0.993  19.543  0.4899  0.2336 -0.3134
 1745PEP     CB66110   1.816  -0.781  19.595  0.4468 -0.1463 -0.0855
 1745PEP     CB66111   2.052  -0.669  19.893 -0.1622  0.4254 -0.2917
 1745PEP     CB66112   2.322  -0.472  20.181 -0.0241 -0.1655  0.0912
 1745PEP     CB66113   2.811  -0.339  20.038 -0.0004 -0.1217 -0.0452
 1745PEP     CB66114   3.148  -0.414  19.793  0.0796  0.2047  0.0979
 1745PEP     CB66115   3.480  -0.471  19.451  0.3299 -0.0866  0.1936
 1745PEP     CB66116   3.859  -0.263  19.226 -0.2476 -0.2506  0.5449
 1745PEP     CB66117   4.227  -0.035  19.224 -0.0229 -0.1558  0.1882
 1745PEP     CB66118   4.583   0.057  19.008  0.0032 -0.3382 -0.4674
 1745PEP     CB66119   4.970   0.195  18.927  0.2039 -0.2934  0.1184
 1745PEP     CB66120   5.150   0.143  18.521  0.0702 -0.2890 -0.1707
 1746PEP     CB66121   1.209   6.264   9.098 -0.0177 -0.0003 -0.0437
 1746PEP     CB66122   1.504   6.570   8.943 -0.0789  0.0731 -0.1901
 1746PEP     CB66123   1.952   6.481   8.970 -0.1180  0.2915  0.1381
 1746PEP     CB66124   2.136   6.087   9.129  0.0282  0.2877 -0.1134
 1746PEP     CB66125   2.179   5.763   9.442  0.0342  0.0589  0.1072
 1746PEP     CB66126   2.100   5.291   9.513 -0.1806 -0.0373  0.1677
 1746PEP     CB66127   2.180   4.905   9.665  0.1588  0.1738  0.0807
 1746PEP     CB66128   1.998   4.573   9.811  0.0989  0.0157  0.1066
 1746PEP     CB66129   2.011   4.067   9.715 -0.0422 -0.1841  0.3414
 1746PEP     CB66130   2.023   3.661   9.603  0.3805  0.1278 -0.0579
 1746PEP     CB66131   1.949   3.214   9.435  0.1211  0.0270 -0.0936
 1746PEP     CB66132   1.763   2.967   9.197 -0.0752  0.3190 -0.4354
 1746PEP     CB66133   1.697   3.043   8.772 -0.0797 -0.2537 -0.2890
 1746PEP     CB66134   1.477   2.943   8.414  0.5693  0.5020  0.4191
 1746PEP     CB66135   1.157   2.856   8.025  0.0080  0.2145  0.1213
 1746PEP     CB66136   0.875   2.780   7.670 -0.0444 -0.0981 -0.1930
 1746PEP     CB66137   0.651   2.893   7.343 -0.1366 -0.0779 -0.2820
 1746PEP     CB66138   0.539   2.892   6.859  0.0622  0.1667 -0.0157
 1746PEP     CB66139   0.781   2.619   6.506  0.0028 -0.2034 -0.0583
 1746PEP     CB66140   1.007   2.566   6.203 -0.0823 -0.2485 -0.0413
 1746PEP     CB66141   1.278   2.244   6.210  0.2265  0.3281  0.0651
 1746PEP     CB66142   1.491   2.068   6.536 -0.0178  0.1168 -0.2115
 1746PEP     CB66143   1.744   2.278   6.972 -0.2915 -0.2526  0.2348
 1746PEP     CB66144   2.125   2.448   7.110 -0.1802 -0.0760  0.2284
 1746PEP     CB66145   2.411   2.780   6.986 -0.1623  0.3455  0.0507
 1746PEP     CB66146   2.269   3.150   7.018  0.1332  0.0246 -0.0882
 1746PEP     CB66147   1.871   3.348   7.034  0.2536 -0.0109 -0.1419
 1746PEP     CB66148   1.410   3.206   7.154  0.1380  0.1709 -0.3246
 1746PEP     CB66149   1.108   3.300   7.490 -0.1450 -0.2008 -0.0581
 1746PEP     CB66150   0.935   3.623   7.676  0.3334 -0.1096  0.0857
 1746PEP     CB66151   0.750   3.707   8.073 -0.1905  0.0137 -0.1560
 1746PEP     CB66152   0.310   3.690   8.266  0.0211 -0.1462  0.2189
 1746PEP     CB66153  -0.096   3.538   8.066  0.2184  0.1242 -0.2703
 1746PEP     CB66154  -0.476   3.259   7.989  0.2163 -0.3668 -0.0309
 1746PEP     CB66155  -0.768   3.136   7.744  0.3440  0.0921  0.0458
 1746PEP     CB66156  -1.038   3.458   7.589 -0.0495 -0.1655 -0.4036
 1746PEP     CB66157  -1.377   3.701   7.688 -0.0464  0.1176  0.2807
 1746PEP     CB66158  -1.831   3.680   7.852 -0.1766  0.4524 -0.0862
 1746PEP     CB66159  -2.005   3.526   8.233 -0.1229  0.2476  0.1630
 1746PEP     CB66160  -1.962   3.142   8.492  0.1021 -0.0214  0.2658
 1747PEP     CB66161   6.141   3.357  18.815 -0.1859  0.1278 -0.0976
 1747PEP     CB66162   6.177   3.686  18.790  0.2377 -0.2796  0.2611
 1747PEP     CB66163   6.232   4.085  18.689 -0.2033  0.1840  0.0847
 1747PEP     CB66164   6.423   4.400  18.594  0.2467 -0.3316  0.0289
 1747PEP     CB66165   6.542   4.637  18.253  0.1537  0.1416  0.1229
 1747PEP     CB66166   6.407   5.023  18.105 -0.1417 -0.1506  0.2121
 1747PEP     CB66167   6.106   5.313  18.285 -0.0138 -0.1659 -0.2242
 1747PEP     CB66168   6.018   5.791  18.300  0.2000  0.3417 -0.3279
 1747PEP     CB66169   6.074   6.254  18.297 -0.1950  0.0269 -0.2180
 1747PEP     CB66170   6.328   6.572  18.256  0.3785 -0.2023  0.0775
 1747PEP     CB66171   6.698   6.903  18.265 -0.2010 -0.2869  0.4132
 1747PEP     CB66172   6.941   7.211  18.351  0.2388 -0.1146 -0.0771
 1747PEP     CB66173   6.839   7.595  18.497 -0.1436 -0.3388 -0.4106
 1747PEP     CB66174   6.456   7.650  18.585  0.0678 -0.0657  0.0233
 1747PEP     CB66175   6.009   7.732  18.332 -0.1833 -0.1162 -0.0231
 1747PEP     CB66176   5.972   8.161  18.267 -0.3297  0.1987 -0.1335
 1747PEP     CB66177   6.272   8.525  18.426 -0.2542 -0.0785 -0.0352
 1747PEP     CB66178   6.651   8.757  18.571 -0.0126 -0.1400 -0.1549
 1747PEP     CB66179   6.853   9.139  18.569  0.1615 -0.0145 -0.0429
 1747PEP     CB66180   7.051   9.494  18.731 -0.0775 -0.3567 -0.4116
 1747PEP     CB66181   7.155   9.473  19.128  0.1098 -0.0590  0.1983
 1747PEP     CB66182   7.358   9.574  19.564  0.2504  0.1873  0.1440
 1747PEP     CB66183   7.436   9.473  19.963 -0.4973  0.1391  0.4518
 1747PEP     CB66184   7.706   9.485  20.393 -0.1016 -0.1159  0.0344
 1747PEP     CB66185   7.896   9.137  20.615  0.0617 -0.1694  0.2128
 1747PEP     CB66186   7.898   8.699  20.575  0.3720  0.3291 -0.0202
 1747PEP     CB66187   7.808   8.299  20.617 -0.0316  0.0330  0.4370
 1747PEP     CB66188   7.639   7.829  20.745  0.2168  0.0027  0.0433
 1747PEP     CB66189   7.344   7.734  20.973 -0.1448  0.0156  0.2804
 1747PEP     CB66190   6.871   7.719  20.942 -0.4169 -0.1522  0.4392
 1747PEP     CB66191   6.597   8.043  20.770 -0.2836 -0.4018 -0.0303
 1747PEP     CB66192   6.339   8.291  20.565 -0.1210  0.0701  0.3455
 1747PEP     CB66193   5.928   8.451  20.554  0.2428 -0.0417 -0.2903
 1747PEP     CB66194   5.525   8.516  20.738  0.4495  0.1724 -0.1009
 1747PEP     CB66195   5.447   8.423  21.180  0.0619 -0.0819 -0.1433
 1747PEP     CB66196   5.642   7.948  21.424  0.5533  0.1632  0.1282
 1747PEP     CB66197   5.832   7.556  21.574  0.0238  0.1473 -0.3772
 1747PEP     CB66198   6.006   7.187  21.470  0.2717 -0.0752 -0.0489
 1747PEP     CB66199   6.397   7.099  21.376  0.0778 -0.1354  0.4722
 1747PEP     CB66200   6.835   7.218  21.446  0.0756  0.0564  0.1105
 1748PEP     CB66201  18.887  10.288   5.034  0.2934  0.0107 -0.1210
 1748PEP     CB66202  19.070   9.985   5.258  0.0714 -0.1747  0.3428
 1748PEP     CB66203  18.926   9.639   5.537 -0.0600 -0.3986  0.1610
 1748PEP     CB66204  19.088   9.334   5.905  0.0292 -0.7208 -0.3736
 1748PEP     CB66205  19.515   9.128   5.881 -0.1539  0.2361 -0.3986
 1748PEP     CB66206  19.913   9.085   5.528 -0.4722  0.3779 -0.1933
 1748PEP     CB66207  20.154   9.308   5.381 -0.1328 -0.0094  0.3488
 1748PEP     CB66208  20.457   9.670   5.162  0.1319  0.0882  0.2884
 1748PEP     CB66209  20.434   9.867   4.751 -0.2311  0.0355 -0.0638
 1748PEP     CB66210  20.327   9.681   4.312 -0.0062 -0.0311 -0.0784
 1748PEP     CB66211  20.102   9.291   4.324  0.5149  0.2067  0.1022
 1748PEP     CB66212  19.951   8.890   4.451  0.3380  0.2422 -0.1009
 1748PEP     CB66213  20.122   8.515   4.656  0.1970  0.1686  0.0542
 1748PEP     CB66214  20.000   8.154   5.034 -0.3193  0.0509 -0.0901
 1748PEP     CB66215  19.655   7.823   4.889 -0.0967  0.0991  0.2375
 1748PEP     CB66216  19.515   7.974   4.530  0.1756 -0.1093 -0.1059
 1748PEP     CB66217  19.652   8.404   4.384 -0.2452  0.1638 -0.0833
 1748PEP     CB66218  20.008   8.414   4.233 -0.0348 -0.1673  0.3662
 1748PEP     CB66219  20.414   8.230   4.307  0.0504 -0.0717  0.0040
 1748PEP     CB66220  20.766   8.443   4.330 -0.3479 -0.2617 -0.1351
 1748PEP     CB66221  20.971   8.905   4.177 -0.1231 -0.2205 -0.0229
 1748PEP     CB66222  21.227   9.187   4.196 -0.0118  0.0142 -0.0216
 1748PEP     CB66223  21.496   9.522   4.138 -0.0945  0.5167 -0.0515
 1748PEP     CB66224  21.372   9.912   3.764  0.2344  0.1244 -0.0677
 1748PEP     CB66225  21.475  10.127   3.350 -0.2174 -0.6196 -0.1629
 1748PEP     CB66226  21.610  10.314   2.972 -0.2235  0.0622 -0.1522
 1748PEP     CB66227  21.363  10.632   2.741 -0.0712  0.1243  0.0925
 1748PEP     CB66228  21.334  10.959   2.402  0.2873 -0.0217  0.2337
 1748PEP     CB66229  21.155  11.425   2.416  0.0050 -0.0076 -0.2565
 1748PEP     CB66230  21.089  11.760   2.727  0.1279  0.0624  0.1175
 1748PEP     CB66231  21.017  11.622   3.198  0.1415  0.0475  0.2388
 1748PEP     CB66232  20.988  11.792   3.654 -0.4286  0.0578  0.0775
 1748PEP     CB66233  20.735  11.680   3.978 -0.1413  0.3769 -0.1636
 1748PEP     CB66234  20.397  11.324   3.894  0.1581  0.1917  0.2241
 1748PEP     CB66235  20.449  11.042   3.625  0.1550  0.0914  0.2211
 1748PEP     CB66236  20.647  10.694   3.697 -0.2742  0.1221 -0.5516
 1748PEP     CB66237  20.470  10.681   4.130  0.0478  0.0577 -0.0106
 1748PEP     CB66238  20.131  11.064   4.213 -0.1202 -0.2103  0.1673
 1748PEP     CB66239  19.906  11.337   4.488  0.5608 -0.0753  0.1583
 1748PEP     CB66240  19.916  11.570   4.804  0.0573  0.3779 -0.1036
 1749PEP     CB66241  20.987  17.436  18.032 -0.0551 -0.2678 -0.1916
 1749PEP     CB66242  20.773  17.812  17.712  0.2831  0.0043 -0.0243
 1749PEP     CB66243  20.659  18.166  17.407 -0.1471  0.0329  0.2973
 1749PEP     CB66244  20.471  18.444  17.187  0.3447 -0.2202  0.1116
 1749PEP     CB66245  20.396  18.812  16.927  0.1391  0.3262  0.1207
 1749PEP     CB66246  20.638  19.188  16.733 -0.1261  0.0522  0.0580
 1749PEP     CB66247  20.848  19.384  16.362 -0.1932  0.1287 -0.1886
 1749PEP     CB66248  21.152  19.292  16.060  0.3026 -0.2087  0.0636
 1749PEP     CB66249  21.408  19.262  15.723 -0.0259  0.5266  0.2369
 1749PEP     CB66250  21.862  19.180  15.514  0.0232 -0.1455  0.1871
 1749PEP     CB66251  22.310  19.310  15.529  0.2221 -0.1168  0.0379
 1749PEP     CB66252  22.724  19.471  15.630 -0.0173 -0.0849 -0.2614
 1749PEP     CB66253  23.106  19.438  15.917 -0.0623  0.2015 -0.2872
 1749PEP     CB66254  23.397  19.205  16.006 -0.0378 -0.0582 -0.0793
 1749PEP     CB66255  23.438  18.920  16.216 -0.1187  0.1740  0.2164
 1749PEP     CB66256  23.288  18.765  16.677 -0.0966 -0.1511 -0.2244
 1749PEP     CB66257  22.808  18.642  16.675  0.1176 -0.0597  0.0119
 1749PEP     CB66258  22.514  18.800  16.279 -0.1648 -0.4338 -0.1008
 1749PEP     CB66259  22.639  19.346  16.055 -0.2463  0.1317  0.0459
 1749PEP     CB66260  22.836  19.659  16.373 -0.1835 -0.1042  0.3311
 1749PEP     CB66261  23.213  19.490  16.577 -0.2866  0.0496  0.0767
 1749PEP     CB66262  23.490  19.199  16.699  0.1092 -0.4532  0.0457
 1749PEP     CB66263  23.926  19.151  16.587  0.0171  0.0728  0.2275
 1749PEP     CB66264  24.101  19.372  16.161 -0.2820 -0.0639  0.3101
 1749PEP     CB66265  24.274  19.296  15.762  0.1572  0.0899 -0.1404
 1749PEP     CB66266  24.512  19.158  15.280 -0.2648 -0.3444  0.3111
 1749PEP     CB66267  24.482  19.076  14.858  0.1159  0.0708  0.5173
 1749PEP     CB66268  24.286  18.907  14.393  0.1578 -0.1411 -0.1348
 1749PEP     CB66269  24.289  18.770  13.933  0.3507 -0.1116  0.2965
 1749PEP     CB66270  24.205  18.830  13.490 -0.1701 -0.0225 -0.5768
 1749PEP     CB66271  24.067  19.182  13.170 -0.0010  0.0547  0.1863
 1749PEP     CB66272  23.730  19.421  13.181 -0.2327  0.0667 -0.1588
 1749PEP     CB66273  23.238  19.307  13.185  0.0989  0.1626  0.1524
 1749PEP     CB66274  22.863  19.090  13.533  0.2687  0.3168 -0.0188
 1749PEP     CB66275  22.717  18.899  13.881 -0.3802 -0.2254 -0.5612
 1749PEP     CB66276  22.777  19.057  14.247  0.2977  0.2253 -0.1622
 1749PEP     CB66277  23.201  19.263  14.432  0.3470 -0.1357 -0.0219
 1749PEP     CB66278  23.191  19.590  14.646 -0.0430  0.2103  0.2368
 1749PEP     CB66279  22.815  19.616  14.934  0.5090  0.3950  0.1362
 1749PEP     CB66280  22.697  19.324  15.164  0.4730 -0.0026 -0.0569
 1750PEP     CB66281  17.152  15.445  12.758  0.0864  0.0655 -0.0479
 1750PEP     CB66282  17.145  15.418  12.313  0.3356  0.0107  0.0250
 1750PEP     CB66283  17.212  15.278  11.843  0.0112 -0.2637 -0.0386
 1750PEP     CB66284  17.409  15.229  11.442 -0.4541  0.1483  0.1522
 1750PEP     CB66285  17.814  14.969  11.319 -0.0898 -0.0038 -0.4843
 1750PEP     CB66286  18.024  14.600  11.589 -0.1678  0.0876  0.0407
 1750PEP     CB66287  18.149  14.646  12.040  0.4717  0.2844  0.1050
 1750PEP     CB66288  17.850  14.634  12.340 -0.1501 -0.0905 -0.1930
 1750PEP     CB66289  17.426  14.449  12.296  0.4147  0.1660  0.1141
 1750PEP     CB66290  17.249  14.266  11.993  0.2720  0.3410  0.3007
 1750PEP     CB66291  16.984  14.295  11.598  0.0172 -0.1712  0.1816
 1750PEP     CB66292  17.003  14.396  11.149  0.1876  0.0975 -0.2170
 1750PEP     CB66293  17.412  14.409  10.837 -0.0686  0.1074  0.1741
 1750PEP     CB66294  17.750  14.371  10.541  0.2587  0.3001 -0.0406
 1750PEP     CB66295  18.163  14.401  10.258  0.4502 -0.2587 -0.0126
 1750PEP     CB66296  18.380  14.393   9.920 -0.0237 -0.2696  0.1417
 1750PEP     CB66297  18.738  14.471   9.731 -0.1281 -0.1643  0.0073
 1750PEP     CB66298  18.902  14.776   9.398 -0.0123  0.1476 -0.1818
 1750PEP     CB66299  18.686  15.028   9.150 -0.0471 -0.1247 -0.1834
 1750PEP     CB66300  18.259  15.027   8.973  0.0553  0.1461  0.1848
 1750PEP     CB66301  17.838  14.945   9.224  0.1357 -0.0191  0.1662
 1750PEP     CB66302  17.832  15.085   9.635 -0.1508 -0.1728  0.0151
 1750PEP     CB66303  18.199  15.073   9.892 -0.4580  0.3376 -0.0874
 1750PEP     CB66304  18.744  15.004   9.805 -0.0255  0.4623  0.0539
 1750PEP     CB66305  18.960  15.303   9.542 -0.0532  0.5899 -0.2008
 1750PEP     CB66306  18.976  15.627   9.300  0.1727  0.3506  0.0539
 1750PEP     CB66307  19.224  15.762   8.891  0.2483  0.0095 -0.1321
 1750PEP     CB66308  19.512  15.480   8.685 -0.0161  0.1895  0.2565
 1750PEP     CB66309  19.822  15.142   8.839  0.0170 -0.1052 -0.0013
 1750PEP     CB66310  20.271  14.942   8.804  0.0457 -0.2196  0.3472
 1750PEP     CB66311  20.623  15.348   8.703  0.2903  0.0875  0.1285
 1750PEP     CB66312  20.624  15.839   8.749  0.2208  0.2054  0.1954
 1750PEP     CB66313  20.393  16.168   8.927  0.2668  0.0783  0.0258
 1750PEP     CB66314  20.282  16.324   9.333 -0.3384 -0.2065 -0.3512
 1750PEP     CB66315  20.176  16.181   9.723 -0.3345 -0.2238 -0.3484
 1750PEP     CB66316  19.933  16.280  10.071 -0.1609  0.0018  0.1494
 1750PEP     CB66317  19.944  16.388  10.500 -0.1174 -0.3025  0.3007
 1750PEP     CB66318  20.107  16.827  10.463 -0.1161  0.0621 -0.1368
 1750PEP     CB66319  20.025  17.030  10.055  0.2788  0.6574 -0.4194
 1750PEP     CB66320  19.671  17.131   9.730 -0.4694  0.3355 -0.1385
 1751PEP     CB66321   7.909  13.123   3.785  0.0405  0.3235 -0.0663
 1751PEP     CB66322   8.162  13.315   3.568  0.2712 -0.0807 -0.2295
 1751PEP     CB66323   8.445  13.618   3.702  0.0861 -0.1570  0.0363
 1751PEP     CB66324   8.345  14.023   3.829  0.2634 -0.0660 -0.3143
 1751PEP     CB66325   7.986  14.044   4.141  0.2265  0.0216  0.0020
 1751PEP     CB66326   8.004  13.861   4.480  0.3481 -0.1733  0.0275
 1751PEP     CB66327   8.346  13.503   4.625  0.0352  0.1002  0.0207
 1751PEP     CB66328   8.740  13.352   4.579  0.4372  0.1416  0.1936
 1751PEP     CB66329   8.968  13.006   4.371 -0.3516  0.2261 -0.2400
 1751PEP     CB66330   9.113  12.779   4.001  0.2071 -0.2110  0.0603
 1751PEP     CB66331   9.489  12.641   3.739 -0.2133  0.1109 -0.2385
 1751PEP     CB66332   9.529  12.490   3.310 -0.5050  0.0775 -0.2174
 1751PEP     CB66333   9.367  12.804   3.020 -0.0578 -0.3344 -0.0946
 1751PEP     CB66334   9.154  13.192   3.070  0.1871 -0.2450 -0.1585
 1751PEP     CB66335   9.174  13.546   3.260  0.2029 -0.5208 -0.1116
 1751PEP     CB66336   9.471  13.896   3.284  0.0272  0.1377 -0.1529
 1751PEP     CB66337   9.709  14.265   3.513 -0.1458  0.1573  0.0108
 1751PEP     CB66338  10.140  14.416   3.695 -0.1526 -0.2223  0.1591
 1751PEP     CB66339  10.568  14.242   3.826  0.2355 -0.0572  0.1616
 1751PEP     CB66340  10.944  14.246   3.909 -0.3129  0.2428  0.3907
 1751PEP     CB66341  11.228  14.350   4.131  0.1973  0.3667  0.1203
 1751PEP     CB66342  10.970  14.595   4.446 -0.0779 -0.3197 -0.1225
 1751PEP     CB66343  10.560  14.505   4.529  0.1723  0.1048 -0.0282
 1751PEP     CB66344  10.284  14.498   4.215 -0.1276 -0.0925 -0.0415
 1751PEP     CB66345  10.235  14.836   4.114 -0.1187 -0.1514 -0.2741
 1751PEP     CB66346  10.007  15.180   4.147  0.2175  0.1570  0.0971
 1751PEP     CB66347   9.630  15.449   4.233 -0.0853  0.4002  0.3016
 1751PEP     CB66348   9.366  15.764   4.108  0.0858  0.0826  0.1752
 1751PEP     CB66349   9.194  16.160   3.861 -0.0040  0.0049 -0.3720
 1751PEP     CB66350   9.162  16.489   3.549  0.0338  0.2622 -0.2987
 1751PEP     CB66351   9.086  16.938   3.326  0.2289  0.2840 -0.2237
 1751PEP     CB66352   9.218  16.975   2.941  0.1739  0.0051  0.2782
 1751PEP     CB66353   9.518  16.791   2.708 -0.2987 -0.0201 -0.3085
 1751PEP     CB66354   9.608  16.349   2.560 -0.1268 -0.1664 -0.0570
 1751PEP     CB66355   9.280  16.086   2.698  0.2830 -0.2600  0.3329
 1751PEP     CB66356   9.035  16.227   3.090  0.3647 -0.4115  0.0153
 1751PEP     CB66357   8.706  16.562   3.065 -0.2911  0.3278 -0.2801
 1751PEP     CB66358   8.708  16.931   2.890 -0.0304 -0.0180 -0.0818
 1751PEP     CB66359   8.499  17.337   2.818  0.5020 -0.0032 -0.1136
 1751PEP     CB66360   8.188  17.640   2.961  0.3012 -0.0038 -0.1663
 1752PEP     CB66361   7.711  19.584   4.621 -0.2152  0.2990  0.1556
 1752PEP     CB66362   7.917  19.918   4.646 -0.0896  0.1729  0.3348
 1752PEP     CB66363   8.228  20.190   4.678 -0.0065 -0.1847 -0.5795
 1752PEP     CB66364   8.597  20.415   4.630  0.0047 -0.0068  0.2354
 1752PEP     CB66365   8.952  20.678   4.810 -0.1622  0.4508  0.2349
 1752PEP     CB66366   9.178  21.067   4.891 -0.0724  0.1157 -0.5474
 1752PEP     CB66367   9.415  21.476   4.765 -0.1434 -0.4793  0.2561
 1752PEP     CB66368   9.704  21.661   4.538 -0.2228  0.3089  0.2736
 1752PEP     CB66369   9.863  21.530   4.198  0.0966  0.3818 -0.1093
 1752PEP     CB66370   9.726  21.184   4.059  0.0969 -0.0268 -0.1998
 1752PEP     CB66371   9.384  21.047   4.139  0.2441 -0.1196 -0.0465
 1752PEP     CB66372   9.150  21.400   4.349 -0.3078 -0.1099  0.0968
 1752PEP     CB66373   9.143  21.787   4.371  0.2130 -0.0525  0.0181
 1752PEP     CB66374   9.403  22.173   4.502  0.0764 -0.4508  0.4411
 1752PEP     CB66375   9.768  22.254   4.724 -0.0553  0.1281 -0.4777
 1752PEP     CB66376  10.195  22.277   4.817  0.1147  0.0417  0.1807
 1752PEP     CB66377  10.536  22.156   4.904 -0.2449  0.1279  0.1767
 1752PEP     CB66378  10.702  21.814   5.033 -0.3448 -0.2356 -0.0355
 1752PEP     CB66379  10.534  21.547   5.320 -0.2130 -0.0363  0.1223
 1752PEP     CB66380  10.220  21.646   5.734 -0.0965 -0.0151 -0.1431
 1752PEP     CB66381   9.984  21.912   5.594  0.1275  0.2054  0.2630
 1752PEP     CB66382  10.131  22.062   5.321 -0.0189  0.4911 -0.1968
 1752PEP     CB66383  10.538  22.132   5.367 -0.0748 -0.3906  0.0936
 1752PEP     CB66384  10.821  21.880   5.574  0.0831  0.0850 -0.0599
 1752PEP     CB66385  11.072  21.589   5.616  0.2336  0.1997  0.0736
 1752PEP     CB66386  10.955  21.285   5.346  0.0676 -0.0550  0.4753
 1752PEP     CB66387  10.851  21.243   4.979 -0.1601  0.1000  0.4033
 1752PEP     CB66388  10.646  21.045   4.592  0.1298  0.2598  0.0675
 1752PEP     CB66389  10.429  20.585   4.543  0.1022  0.2087 -0.2023
 1752PEP     CB66390  10.365  20.309   4.957 -0.1703 -0.2187  0.0696
 1752PEP     CB66391  10.178  20.005   5.184  0.0842  0.4000  0.0514
 1752PEP     CB66392  10.081  19.719   5.491  0.0848 -0.1414 -0.0107
 1752PEP     CB66393   9.844  19.440   5.732  0.1255 -0.2023  0.0009
 1752PEP     CB66394   9.770  19.012   5.722  0.1098 -0.0420  0.1400
 1752PEP     CB66395   9.902  18.567   5.740 -0.2142 -0.1496  0.1337
 1752PEP     CB66396   9.932  18.098   5.779  0.1812 -0.0733  0.7854
 1752PEP     CB66397   9.984  17.750   5.937 -0.4074  0.0473  0.0827
 1752PEP     CB66398  10.466  17.672   5.913  0.2859 -0.5409 -0.1704
 1752PEP     CB66399  10.735  18.066   5.914  0.3022  0.1500  0.1301
 1752PEP     CB66400  10.566  18.507   5.708  0.2297 -0.1669  0.0980
 1753PEP     CB66401   7.551  19.038  14.259  0.3086  0.1945 -0.2603
 1753PEP     CB66402   7.732  18.613  14.119  0.0073  0.0800  0.0771
 1753PEP     CB66403   8.003  18.257  14.001 -0.0155 -0.1440 -0.0105
 1753PEP     CB66404   8.374  18.232  13.881 -0.4362  0.0632  0.1529
 1753PEP     CB66405   8.703  18.438  13.682  0.0824  0.0248  0.2933
 1753PEP     CB66406   9.020  18.697  13.495  0.1880  0.0529  0.0471
 1753PEP     CB66407   9.325  18.952  13.377 -0.1965 -0.1344  0.3691
 1753PEP     CB66408   9.473  19.344  13.499 -0.0549 -0.1497 -0.5605
 1753PEP     CB66409   9.458  19.623  13.902  0.0570  0.0414  0.1149
 1753PEP     CB66410   9.593  19.897  14.202  0.2106  0.0888 -0.2277
 1753PEP     CB66411   9.673  20.282  14.371 -0.0085 -0.1017 -0.1546
 1753PEP     CB66412   9.779  20.468  14.658 -0.3064 -0.4128  0.0613
 1753PEP     CB66413   9.744  20.976  14.799  0.1974 -0.2523 -0.5875
 1753PEP     CB66414   9.540  21.354  14.825  0.0293 -0.3460 -0.4493
 1753PEP     CB66415   9.280  21.727  14.783  0.0898  0.1962 -0.2408
 1753PEP     CB66416   9.222  22.144  14.564  0.1228 -0.0293  0.0532
 1753PEP     CB66417   9.528  22.354  14.293 -0.1673 -0.4033  0.0610
 1753PEP     CB66418   9.955  22.105  14.223 -0.2086 -0.3753 -0.1326
 1753PEP     CB66419   9.900  21.730  13.932  0.1785 -0.2024 -0.2164
 1753PEP     CB66420   9.572  21.664  13.636 -0.3761  0.1794 -0.2149
 1753PEP     CB66421   9.194  21.947  13.540 -0.1519  0.1566 -0.2134
 1753PEP     CB66422   8.958  22.315  13.299 -0.1954 -0.2678 -0.2025
 1753PEP     CB66423   8.752  22.485  12.917  0.0101  0.0105  0.0777
 1753PEP     CB66424   8.491  22.230  12.635  0.1609 -0.0777 -0.4561
 1753PEP     CB66425   8.443  21.805  12.653  0.0534  0.1007 -0.1580
 1753PEP     CB66426   8.354  21.579  12.949  0.2221 -0.3439  0.3178
 1753PEP     CB66427   8.298  21.608  13.430  0.1734 -0.1410  0.0093
 1753PEP     CB66428   8.283  21.325  13.726  0.2432  0.3219 -0.0632
 1753PEP     CB66429   8.116  20.923  13.695 -0.2625  0.1336  0.3509
 1753PEP     CB66430   8.116  20.545  13.419  0.0176  0.1765 -0.0823
 1753PEP     CB66431   7.963  20.416  13.089 -0.2971 -0.5704  0.4773
 1753PEP     CB66432   7.851  20.165  12.683 -0.5121 -0.3240  0.1306
 1753PEP     CB66433   7.852  19.850  12.381 -0.1843 -0.0962 -0.0797
 1753PEP     CB66434   7.590  19.698  12.044  0.1025  0.0822  0.3214
 1753PEP     CB66435   7.527  19.322  11.772  0.1027  0.1135 -0.1541
 1753PEP     CB66436   7.559  18.898  11.942 -0.0755  0.0201 -0.2724
 1753PEP     CB66437   7.902  18.869  12.369  0.1225 -0.3293 -0.2694
 1753PEP     CB66438   8.293  19.096  12.513  0.2634  0.0638 -0.2312
 1753PEP     CB66439   8.670  19.238  12.528 -0.0153 -0.2819 -0.0063
 1753PEP     CB66440   9.006  19.082  12.724 -0.1796 -0.1523 -0.0791
 1754PEP     CB66441  10.783   7.301   2.574 -0.2109 -0.0749 -0.1191
 1754PEP     CB66442  10.691   7.036   2.287 -0.5169  0.3628 -0.2973
 1754PEP     CB66443  10.907   6.999   1.878 -0.0865 -0.7143 -0.1997
 1754PEP     CB66444  11.357   7.233   1.757 -0.0319 -0.3328  0.1338
 1754PEP     CB66445  11.460   7.522   1.414 -0.2791 -0.3978  0.4382
 1754PEP     CB66446  11.493   7.818   1.097  0.2483  0.1582  0.2959
 1754PEP     CB66447  11.329   8.170   0.991  0.0271  0.2804  0.0902
 1754PEP     CB66448  11.299   8.646   1.055  0.0008  0.5685  0.0581
 1754PEP     CB66449  11.429   8.980   1.285  0.0392 -0.2103  0.3228
 1754PEP     CB66450  11.199   9.376   1.364 -0.2617 -0.2714  0.3118
 1754PEP     CB66451  10.936   9.687   1.556  0.1672  0.0405  0.3124
 1754PEP     CB66452  10.846  10.098   1.497  0.3222  0.1646 -0.0269
 1754PEP     CB66453  10.884  10.480   1.366  0.0668  0.3349 -0.2338
 1754PEP     CB66454  11.123  10.814   1.437 -0.0516 -0.0293 -0.3263
 1754PEP     CB66455  11.240  10.991   1.853 -0.1164  0.1875  0.2721
 1754PEP     CB66456  11.088  10.867   2.350 -0.1953 -0.0511 -0.0368
 1754PEP     CB66457  10.799  10.730   2.604 -0.1383  0.1630 -0.3074
 1754PEP     CB66458  10.629  10.664   2.968  0.1488  0.3190  0.0823
 1754PEP     CB66459  10.621  11.002   3.330  0.4664 -0.0597 -0.0776
 1754PEP     CB66460  10.767  11.376   3.318 -0.1482  0.5282  0.0288
 1754PEP     CB66461  10.904  11.622   2.930  0.1549 -0.2740 -0.1129
 1754PEP     CB66462  10.664  11.681   2.631 -0.0319 -0.1150  0.0418
 1754PEP     CB66463  10.307  11.541   2.533 -0.2079  0.2463 -0.0866
 1754PEP     CB66464  10.184  11.221   2.274  0.2423  0.1763 -0.0218
 1754PEP     CB66465   9.922  10.891   2.079 -0.2382 -0.0803 -0.0101
 1754PEP     CB66466   9.439  10.858   2.095  0.3139  0.0970 -0.1233
 1754PEP     CB66467   8.966  10.847   2.202 -0.1157  0.3721  0.0914
 1754PEP     CB66468   8.751  10.743   2.589  0.1460  0.0273 -0.0037
 1754PEP     CB66469   8.588  10.584   3.001 -0.2421  0.2192 -0.4387
 1754PEP     CB66470   8.300  10.267   3.192  0.0208  0.2223 -0.0849
 1754PEP     CB66471   8.144   9.988   3.525 -0.0161  0.0059  0.6810
 1754PEP     CB66472   8.128   9.610   3.805 -0.3218 -0.1407 -0.0307
 1754PEP     CB66473   8.295   9.238   3.754  0.1257  0.0544  0.6511
 1754PEP     CB66474   8.743   9.123   3.770  0.0609 -0.1391  0.5475
 1754PEP     CB66475   9.170   9.202   3.999 -0.1292 -0.0729  0.0243
 1754PEP     CB66476   9.423   8.980   4.318  0.1415 -0.2327  0.2241
 1754PEP     CB66477   9.358   8.591   4.564 -0.0066  0.0293 -0.1332
 1754PEP     CB66478   9.165   8.355   4.886  0.1269  0.0185 -0.0640
 1754PEP     CB66479   9.272   8.146   5.206  0.3640 -0.2162  0.1846
 1754PEP     CB66480   9.482   7.918   5.567 -0.1059  0.1041  0.0919
 1755PEP     CB66481  14.301   0.264  20.130 -0.3009  0.2224  0.2107
 1755PEP     CB66482  13.882   0.365  20.340  0.2561 -0.2562  0.1139
 1755PEP     CB66483  13.461   0.517  20.300 -0.1877  0.2969 -0.0025
 1755PEP     CB66484  13.112   0.733  20.175  0.0986  0.0879  0.0329
 1755PEP     CB66485  13.119   1.161  20.075 -0.2393  0.1336  0.2225
 1755PEP     CB66486  13.455   1.360  19.931 -0.1805 -0.2123 -0.1341
 1755PEP     CB66487  13.747   1.481  19.698  0.0721 -0.1599 -0.0228
 1755PEP     CB66488  13.723   1.818  19.423 -0.0048  0.4446 -0.0312
 1755PEP     CB66489  13.365   2.045  19.377  0.3295  0.2965  0.1867
 1755PEP     CB66490  12.884   1.966  19.415  0.0847 -0.1541  0.0025
 1755PEP     CB66491  12.586   1.639  19.377 -0.1904  0.5539 -0.0180
 1755PEP     CB66492  12.276   1.559  19.116  0.0695 -0.2920 -0.3225
 1755PEP     CB66493  11.877   1.685  18.960  0.0268 -0.2629  0.1770
 1755PEP     CB66494  11.517   1.714  18.798  0.0690 -0.0569  0.0513
 1755PEP     CB66495  11.104   1.823  18.981  0.0359  0.2265  0.1047
 1755PEP     CB66496  10.823   2.020  19.312 -0.1159  0.1818 -0.3064
 1755PEP     CB66497  10.603   2.451  19.503 -0.6081 -0.1005 -0.1845
 1755PEP     CB66498  10.535   2.907  19.473 -0.0092  0.4381 -0.2106
 1755PEP     CB66499  10.615   3.364  19.154  0.1856  0.3166  0.3662
 1755PEP     CB66500  10.731   3.709  19.027 -0.0676 -0.3948 -0.1441
 1755PEP     CB66501  10.879   4.019  18.595 -0.4975 -0.2756  0.2716
 1755PEP     CB66502  10.993   4.353  18.370 -0.2577  0.2589 -0.3091
 1755PEP     CB66503  10.864   4.739  18.406  0.1453  0.3381  0.0983
 1755PEP     CB66504  10.402   4.861  18.337  0.0832  0.0291 -0.0688
 1755PEP     CB66505  10.067   5.060  18.036  0.1573 -0.2155 -0.0139
 1755PEP     CB66506   9.951   5.482  17.861  0.0222 -0.1715 -0.1208
 1755PEP     CB66507  10.104   5.728  17.595  0.2808 -0.2484 -0.0440
 1755PEP     CB66508  10.370   5.975  17.364  0.1054  0.1962  0.1171
 1755PEP     CB66509  10.737   6.239  17.193 -0.2865  0.2580 -0.2574
 1755PEP     CB66510  11.027   6.503  16.947 -0.1877  0.3871 -0.2127
 1755PEP     CB66511  11.003   6.964  16.933  0.3153 -0.3154  0.0907
 1755PEP     CB66512  11.131   7.314  17.196  0.0661 -0.2143 -0.2085
 1755PEP     CB66513  10.966   7.675  17.534  0.0168 -0.2837 -0.1597
 1755PEP     CB66514  10.752   7.532  17.936 -0.0932  0.1036  0.1230
 1755PEP     CB66515  11.025   7.233  18.240 -0.4723 -0.2829 -0.0814
 1755PEP     CB66516  11.451   7.375  18.269 -0.3322  0.0473  0.0017
 1755PEP     CB66517  11.807   7.094  17.968 -0.0859  0.1060 -0.2386
 1755PEP     CB66518  11.549   6.754  17.691  0.4447 -0.1482  0.1124
 1755PEP     CB66519  11.250   6.680  17.822  0.3113 -0.2892 -0.1902
 1755PEP     CB66520  10.939   6.736  18.114  0.1337  0.3324 -0.2024
 1756PEP     CB66521  14.754   7.645  17.298  0.1253  0.0965 -0.3080
 1756PEP     CB66522  14.837   7.456  17.750 -0.0004 -0.1156  0.0369
 1756PEP     CB66523  14.965   7.215  18.127  0.0884 -0.0059 -0.0873
 1756PEP     CB66524  15.175   6.821  18.100 -0.0800  0.1632  0.1561
 1756PEP     CB66525  15.455   6.680  17.804  0.0007 -0.1590 -0.1730
 1756PEP     CB66526  15.398   6.910  17.311 -0.0318 -0.1848 -0.2978
 1756PEP     CB66527  15.057   7.137  17.137  0.0448  0.1008  0.5042
 1756PEP     CB66528  15.188   7.679  17.084 -0.1817  0.0975 -0.5521
 1756PEP     CB66529  15.659   7.746  17.098 -0.0439 -0.3549 -0.0567
 1756PEP     CB66530  16.019   7.724  16.759 -0.1610 -0.0439  0.1498
 1756PEP     CB66531  16.111   7.453  16.387 -0.0573 -0.0399 -0.5025
 1756PEP     CB66532  16.131   7.045  16.433  0.0113  0.1543  0.3117
 1756PEP     CB66533  15.939   6.673  16.770  0.1995 -0.6215 -0.0609
 1756PEP     CB66534  15.748   6.504  17.243 -0.2279  0.0625  0.0004
 1756PEP     CB66535  15.998   6.570  17.672  0.4189  0.0011 -0.6324
 1756PEP     CB66536  16.406   6.621  17.791  0.2963  0.2177  0.0500
 1756PEP     CB66537  16.696   6.600  17.612  0.4099 -0.0358 -0.2401
 1756PEP     CB66538  17.051   6.366  17.441  0.0418 -0.1234  0.2122
 1756PEP     CB66539  17.064   6.000  17.253  0.0909  0.1079 -0.2612
 1756PEP     CB66540  16.936   5.612  17.219 -0.0532 -0.1898 -0.2034
 1756PEP     CB66541  16.786   5.296  17.457  0.0368  0.3926  0.0120
 1756PEP     CB66542  16.759   5.020  17.811 -0.6313 -0.2047  0.3392
 1756PEP     CB66543  16.775   4.584  17.710 -0.2911  0.2034  0.5910
 1756PEP     CB66544  16.533   4.377  17.335  0.2876 -0.1066 -0.0795
 1756PEP     CB66545  16.206   4.659  17.115  0.0439 -0.0681  0.0277
 1756PEP     CB66546  15.836   4.859  17.343  0.1639  0.1464  0.0245
 1756PEP     CB66547  15.798   4.939  17.795 -0.1821 -0.3161  0.1629
 1756PEP     CB66548  15.925   4.831  18.196 -0.0519 -0.0714  0.5248
 1756PEP     CB66549  16.197   4.976  18.522 -0.4114 -0.2320 -0.2812
 1756PEP     CB66550  16.198   5.380  18.666 -0.0462  0.0582  0.0608
 1756PEP     CB66551  15.910   5.683  18.708 -0.1506 -0.0337  0.3939
 1756PEP     CB66552  15.892   6.081  18.461 -0.3502  0.2435  0.3181
 1756PEP     CB66553  16.199   6.369  18.343  0.0414 -0.1501  0.3230
 1756PEP     CB66554  16.628   6.317  18.124 -0.1380 -0.0977 -0.0207
 1756PEP     CB66555  17.069   6.473  17.967  0.4484  0.1059 -0.1051
 1756PEP     CB66556  17.335   6.760  17.836  0.4226  0.1048 -0.1137
 1756PEP     CB66557  17.112   7.206  17.728 -0.4873  0.1218  0.1287
 1756PEP     CB66558  16.834   7.449  17.891  0.0590 -0.0239  0.3351
 1756PEP     CB66559  16.593   7.713  18.012  0.1359 -0.2392 -0.3969
 1756PEP     CB66560  16.346   7.727  18.365  0.0531  0.0838 -0.1214
 1757PEP     CB66561   4.311  20.267  17.707 -0.1898 -0.0779  0.1907
 1757PEP     CB66562   4.248  20.200  17.298  0.0246  0.1038  0.3521
 1757PEP     CB66563   3.998  20.219  16.962 -0.1237  0.2675  0.1677
 1757PEP     CB66564   3.719  20.053  16.779  0.3821 -0.0807  0.0463
 1757PEP     CB66565   3.305  19.983  16.675  0.0261  0.1944 -0.4799
 1757PEP     CB66566   2.877  19.932  16.687  0.2031  0.3804  0.0681
 1757PEP     CB66567   2.473  20.013  16.459 -0.3401  0.2362 -0.0186
 1757PEP     CB66568   2.097  19.875  16.571 -0.1650  0.0282 -0.1386
 1757PEP     CB66569   1.783  19.600  16.539  0.1109  0.2360 -0.0597
 1757PEP     CB66570   1.459  19.671  16.217 -0.2313  0.2666  0.2626
 1757PEP     CB66571   1.109  19.967  16.077 -0.1118  0.0000 -0.5588
 1757PEP     CB66572   0.826  20.184  16.384 -0.1461  0.2431 -0.5931
 1757PEP     CB66573   0.548  20.421  16.640 -0.0856  0.0127 -0.2391
 1757PEP     CB66574   0.283  20.356  16.962  0.2797  0.1071 -0.1760
 1757PEP     CB66575  -0.091  20.288  17.240  0.0322  0.0351  0.0628
 1757PEP     CB66576  -0.443  20.171  17.277  0.2487  0.1413 -0.0867
 1757PEP     CB66577  -0.739  19.830  17.350 -0.0326 -0.1574 -0.2009
 1757PEP     CB66578  -0.690  19.487  17.456 -0.0395  0.1000 -0.4118
 1757PEP     CB66579  -0.459  19.047  17.433 -0.4022  0.1863 -0.0666
 1757PEP     CB66580  -0.685  18.677  17.576  0.4455 -0.0681  0.5136
 1757PEP     CB66581  -1.206  18.644  17.589  0.1843 -0.2965 -0.2393
 1757PEP     CB66582  -1.537  18.892  17.564  0.1311  0.0669  0.2293
 1757PEP     CB66583  -1.888  18.954  17.472 -0.0318 -0.3137 -0.1719
 1757PEP     CB66584  -2.275  19.036  17.386  0.4001 -0.0641 -0.2325
 1757PEP     CB66585  -2.632  19.066  17.537 -0.1609  0.0703 -0.1796
 1757PEP     CB66586  -2.891  18.797  17.790  0.5309  0.0103 -0.1511
 1757PEP     CB66587  -3.334  18.723  17.802  0.1191 -0.0906  0.3182
 1757PEP     CB66588  -3.712  18.468  17.523 -0.1162 -0.0619  0.2833
 1757PEP     CB66589  -4.094  18.375  17.405  0.1758 -0.1306 -0.1796
 1757PEP     CB66590  -4.463  18.299  17.579  0.0133 -0.3727 -0.0374
 1757PEP     CB66591  -4.607  17.935  17.850 -0.0645  0.3424  0.0358
 1757PEP     CB66592  -4.534  17.578  18.166  0.2001 -0.1361 -0.3016
 1757PEP     CB66593  -4.309  17.363  18.337 -0.0046 -0.0393 -0.0010
 1757PEP     CB66594  -4.060  17.119  18.559 -0.0160 -0.2620  0.0001
 1757PEP     CB66595  -3.899  16.672  18.532  0.0323  0.7343 -0.0417
 1757PEP     CB66596  -3.540  16.421  18.775  0.1610  0.0463 -0.0605
 1757PEP     CB66597  -3.199  16.666  19.020 -0.4016  0.1556  0.4493
 1757PEP     CB66598  -3.138  17.104  19.304 -0.4183  0.0079 -0.2508
 1757PEP     CB66599  -3.305  17.484  19.248 -0.3640 -0.1982  0.5385
 1757PEP     CB66600  -3.487  17.748  18.906 -0.1359 -0.2348  0.0797
 1758PEP     CB66601   6.021   9.931  16.678  0.0846 -0.3716  0.5077
 1758PEP     CB66602   5.823  10.241  16.985 -0.1867 -0.2065  0.3457
 1758PEP     CB66603   5.414  10.338  17.355  0.2671  0.0675  0.0811
 1758PEP     CB66604   5.014  10.603  17.409  0.0020  0.0077 -0.2858
 1758PEP     CB66605   4.718  10.774  17.655  0.2470  0.0497 -0.2400
 1758PEP     CB66606   4.291  11.019  17.810  0.0655 -0.1932 -0.1721
 1758PEP     CB66607   4.006  11.364  17.775  0.2146  0.4474  0.2721
 1758PEP     CB66608   3.920  11.789  17.678  0.4451 -0.0021 -0.0685
 1758PEP     CB66609   3.949  12.129  17.430  0.1545 -0.3278 -0.0516
 1758PEP     CB66610   4.086  12.316  17.030  0.2620 -0.1834 -0.0839
 1758PEP     CB66611   4.474  12.347  16.878 -0.3343  0.1083 -0.1834
 1758PEP     CB66612   4.901  12.650  16.860 -0.3389 -0.0049 -0.1007
 1758PEP     CB66613   5.352  12.704  16.794  0.2172 -0.3866  0.3988
 1758PEP     CB66614   5.845  12.705  16.681  0.2217  0.2363 -0.2520
 1758PEP     CB66615   6.175  12.733  16.935  0.2039 -0.0302 -0.0137
 1758PEP     CB66616   6.374  12.376  17.170  0.2302  0.0140  0.5001
 1758PEP     CB66617   6.130  11.989  17.227 -0.1717  0.2134 -0.0530
 1758PEP     CB66618   5.995  11.826  17.693 -0.3265  0.0146  0.0073
 1758PEP     CB66619   6.109  12.095  18.026  0.2624  0.3265  0.1480
 1758PEP     CB66620   6.441  12.417  18.133 -0.1926  0.2992 -0.2023
 1758PEP     CB66621   6.829  12.478  17.954  0.0196 -0.0788  0.0975
 1758PEP     CB66622   6.830  12.591  17.543 -0.0570 -0.2688  0.0605
 1758PEP     CB66623   6.930  12.428  17.144  0.0311  0.1880 -0.0648
 1758PEP     CB66624   7.158  12.478  16.840 -0.1038 -0.1228 -0.1999
 1758PEP     CB66625   7.361  12.730  16.527 -0.1921 -0.1728  0.1105
 1758PEP     CB66626   7.678  12.985  16.549  0.3738  0.0449  0.3531
 1758PEP     CB66627   7.949  13.286  16.475 -0.0406  0.0694  0.2520
 1758PEP     CB66628   8.073  13.611  16.204 -0.0854  0.0474 -0.0682
 1758PEP     CB66629   7.854  13.928  15.981 -0.1001  0.0500  0.3719
 1758PEP     CB66630   7.474  13.786  15.827 -0.0639  0.0236 -0.0071
 1758PEP     CB66631   7.523  13.360  15.787 -0.3561 -0.0346 -0.1101
 1758PEP     CB66632   7.892  13.251  15.807  0.1129  0.2494 -0.3069
 1758PEP     CB66633   8.215  13.637  15.783 -0.1730 -0.0440 -0.2848
 1758PEP     CB66634   8.531  13.757  16.100  0.1226 -0.1501 -0.2166
 1758PEP     CB66635   8.494  14.050  16.354  0.2797  0.1792 -0.4545
 1758PEP     CB66636   8.428  14.208  16.743  0.1357  0.0596  0.0998
 1758PEP     CB66637   8.634  13.956  17.139  0.2505 -0.0820 -0.0419
 1758PEP     CB66638   8.832  13.536  17.103 -0.1216 -0.3845 -0.1338
 1758PEP     CB66639   9.055  13.388  16.811  0.0502  0.4514 -0.2448
 1758PEP     CB66640   9.211  13.197  16.469 -0.2626  0.0019  0.0439
 1759PEP     CB66641  20.146   5.620  14.313 -0.1702 -0.0229  0.0326
 1759PEP     CB66642  20.481   5.816  14.446  0.3997  0.1618  0.1262
 1759PEP     CB66643  20.568   6.099  14.738  0.1094 -0.0970 -0.1914
 1759PEP     CB66644  20.850   6.286  15.035  0.1151 -0.2699  0.0599
 1759PEP     CB66645  20.866   6.534  15.460  0.1557 -0.0357  0.1169
 1759PEP     CB66646  20.701   6.654  15.848 -0.0320 -0.2010  0.3078
 1759PEP     CB66647  20.489   6.608  16.251 -0.1545 -0.1354 -0.1605
 1759PEP     CB66648  20.222   6.405  16.655  0.1922 -0.0163  0.1682
 1759PEP     CB66649  19.936   6.680  16.787 -0.0371 -0.2036  0.1545
 1759PEP     CB66650  19.716   7.163  16.749 -0.0990 -0.3101 -0.3686
 1759PEP     CB66651  19.508   7.487  16.507 -0.1027 -0.3276 -0.0519
 1759PEP     CB66652  19.494   7.872  16.404  0.0105  0.1495 -0.2534
 1759PEP     CB66653  19.115   8.068  16.239  0.1264  0.2686 -0.4395
 1759PEP     CB66654  18.861   8.053  15.877 -0.1941 -0.3389 -0.0757
 1759PEP     CB66655  18.859   8.389  15.552  0.1208 -0.1848  0.1551
 1759PEP     CB66656  18.599   8.803  15.449 -0.0117  0.3374 -0.0890
 1759PEP     CB66657  18.176   8.771  15.442  0.0505  0.1525 -0.0940
 1759PEP     CB66658  17.973   8.358  15.634 -0.2021  0.3747  0.0102
 1759PEP     CB66659  18.096   8.198  16.025  0.0423 -0.2717  0.3459
 1759PEP     CB66660  18.469   8.315  16.361  0.0119  0.0707 -0.2736
 1759PEP     CB66661  18.706   8.595  16.480 -0.0352  0.1960  0.1498
 1759PEP     CB66662  18.725   9.059  16.599 -0.2502  0.0225 -0.2567
 1759PEP     CB66663  18.708   9.438  16.755 -0.2215 -0.0746 -0.2556
 1759PEP     CB66664  18.682   9.788  17.033 -0.2383 -0.0145  0.1087
 1759PEP     CB66665  18.472   9.800  17.373 -0.2511 -0.2845  0.3697
 1759PEP     CB66666  18.279   9.495  17.661 -0.3787  0.4724  0.2329
 1759PEP     CB66667  18.549   9.165  17.827 -0.6061 -0.1132  0.0237
 1759PEP     CB66668  18.832   8.863  18.071 -0.2231  0.0344 -0.2762
 1759PEP     CB66669  19.096   8.695  18.523  0.4413 -0.3206 -0.1651
 1759PEP     CB66670  19.436   8.548  18.908  0.0431 -0.0255 -0.1576
 1759PEP     CB66671  19.444   8.301  19.408 -0.4254 -0.0307  0.1741
 1759PEP     CB66672  19.534   8.111  19.806  0.2216 -0.2519 -0.2252
 1759PEP     CB66673  19.910   8.033  19.962  0.3112  0.1870 -0.0671
 1759PEP     CB66674  20.291   7.969  19.876 -0.0323 -0.1080 -0.2381
 1759PEP     CB66675  20.645   7.896  19.664 -0.3975  0.2853 -0.0865
 1759PEP     CB66676  20.648   7.634  19.311 -0.0095 -0.2326  0.0233
 1759PEP     CB66677  20.469   7.620  18.961 -0.2536  0.0917 -0.0432
 1759PEP     CB66678  20.387   7.586  18.537 -0.4675 -0.4352  0.0078
 1759PEP     CB66679  20.287   7.498  18.049 -0.1860 -0.1521  0.3361
 1759PEP     CB66680  20.137   7.464  17.595 -0.1387  0.3949 -0.3561
 1760PEP     CB66681  17.304  20.196   7.249 -0.2326 -0.0189  0.0566
 1760PEP     CB66682  17.287  19.968   6.913  0.2672  0.2729  0.1824
 1760PEP     CB66683  17.509  19.716   6.569 -0.1497  0.0295 -0.2131
 1760PEP     CB66684  17.920  19.604   6.554 -0.1894 -0.1072 -0.1297
 1760PEP     CB66685  18.169  19.745   6.808 -0.2606  0.3156  0.1461
 1760PEP     CB66686  18.382  19.690   7.229 -0.0738  0.2597  0.0590
 1760PEP     CB66687  18.713  19.764   7.514  0.0522  0.1508  0.0783
 1760PEP     CB66688  18.842  20.145   7.811 -0.1569 -0.0579  0.3363
 1760PEP     CB66689  18.995  20.242   8.177 -0.1374 -0.4755  0.0106
 1760PEP     CB66690  18.945  19.925   8.569 -0.3701  0.1965  0.0294
 1760PEP     CB66691  19.009  19.440   8.720  0.0418 -0.3080 -0.0738
 1760PEP     CB66692  19.302  19.113   8.581  0.2721 -0.3314  0.3326
 1760PEP     CB66693  19.493  19.101   8.171 -0.0020  0.0698  0.2398
 1760PEP     CB66694  19.326  19.399   7.819 -0.2560 -0.0849  0.1356
 1760PEP     CB66695  18.900  19.466   7.873  0.0829  0.0085 -0.3166
 1760PEP     CB66696  18.583  19.675   8.100 -0.0340  0.1974 -0.0551
 1760PEP     CB66697  18.402  19.927   8.482 -0.1935 -0.0343  0.3294
 1760PEP     CB66698  18.379  20.035   8.844  0.3291  0.1138  0.1687
 1760PEP     CB66699  18.576  20.079   9.237 -0.0108  0.0766  0.2425
 1760PEP     CB66700  18.398  20.310   9.573 -0.2784 -0.2309 -0.2931
 1760PEP     CB66701  18.174  20.602   9.755  0.1172  0.0120 -0.4649
 1760PEP     CB66702  18.190  21.017   9.582 -0.0503 -0.1461  0.1528
 1760PEP     CB66703  18.064  21.306   9.321  0.2640  0.1826 -0.2934
 1760PEP     CB66704  17.731  21.640   9.224 -0.1103 -0.2476 -0.2800
 1760PEP     CB66705  17.505  21.982   9.341  0.0608 -0.0415  0.2550
 1760PEP     CB66706  17.160  22.156   9.560 -0.3006  0.1950  0.1257
 1760PEP     CB66707  17.148  22.206  10.000  0.1854  0.4381 -0.2156
 1760PEP     CB66708  17.161  21.853  10.321 -0.1140 -0.2296  0.0675
 1760PEP     CB66709  17.240  21.441  10.435  0.0912 -0.3729  0.2680
 1760PEP     CB66710  17.267  21.040  10.468 -0.0692  0.2589  0.3998
 1760PEP     CB66711  17.086  20.665  10.611 -0.1501 -0.2667  0.3757
 1760PEP     CB66712  16.690  20.556  10.863 -0.0360  0.1711 -0.2232
 1760PEP     CB66713  16.386  20.622  11.189 -0.0171 -0.0704 -0.1403
 1760PEP     CB66714  15.996  20.689  11.496  0.0577 -0.0591  0.0410
 1760PEP     CB66715  15.529  20.791  11.510  0.3986 -0.4205 -0.2161
 1760PEP     CB66716  15.252  21.137  11.464  0.2257 -0.0487 -0.4522
 1760PEP     CB66717  14.989  21.267  11.739  0.1570 -0.0472 -0.2727
 1760PEP     CB66718  14.793  21.479  12.120  0.1086 -0.3059  0.5324
 1760PEP     CB66719  14.491  21.504  12.443  0.1233  0.2094 -0.1748
 1760PEP     CB66720  14.112  21.343  12.592 -0.2151 -0.2808  0.2380
 1761PEP     CB66721  10.723  16.778  14.407 -0.0706 -0.1512 -0.3650
 1761PEP     CB66722  10.932  17.140  14.573  0.2195  0.0667 -0.0148
 1761PEP     CB66723  11.250  17.432  14.532 -0.0393 -0.1805 -0.0526
 1761PEP     CB66724  11.339  17.850  14.604 -0.1569 -0.1389  0.1159
 1761PEP     CB66725  11.234  18.238  14.691  0.4370 -0.0614 -0.0963
 1761PEP     CB66726  11.278  18.649  14.939  0.0860 -0.3364 -0.0850
 1761PEP     CB66727  11.161  19.101  15.313 -0.2809  0.0053  0.3331
 1761PEP     CB66728  10.867  19.276  15.533  0.2420 -0.1402 -0.0531
 1761PEP     CB66729  10.686  19.576  15.751 -0.0066 -0.3061 -0.0089
 1761PEP     CB66730  10.292  19.956  15.887 -0.2638 -0.3375  0.0351
 1761PEP     CB66731   9.986  20.143  15.711  0.0790 -0.3069  0.0923
 1761PEP     CB66732   9.717  20.407  15.448  0.1070  0.2354 -0.1317
 1761PEP     CB66733   9.414  20.639  15.350 -0.2304  0.0099 -0.2750
 1761PEP     CB66734   9.238  20.943  15.055  0.1797  0.1289  0.1727
 1761PEP     CB66735   9.085  21.319  15.083  0.2234  0.0198  0.1407
 1761PEP     CB66736   8.830  21.684  15.074  0.0264 -0.4154 -0.2961
 1761PEP     CB66737   8.792  22.072  15.243 -0.0486  0.2637  0.1501
 1761PEP     CB66738   8.922  22.504  15.231 -0.0413 -0.1148  0.0703
 1761PEP     CB66739   9.281  22.698  15.258 -0.0008  0.0640 -0.1848
 1761PEP     CB66740   9.645  22.570  15.317 -0.1703 -0.2366 -0.1886
 1761PEP     CB66741   9.978  22.627  15.646 -0.2766  0.0812 -0.1938
 1761PEP     CB66742  10.207  22.929  16.005  0.5094  0.3464  0.4271
 1761PEP     CB66743  10.082  23.034  16.449 -0.1318 -0.0180  0.4351
 1761PEP     CB66744   9.846  23.004  16.797  0.1175 -0.3808  0.0138
 1761PEP     CB66745   9.735  22.996  17.261 -0.1664 -0.2320 -0.0419
 1761PEP     CB66746   9.692  23.191  17.698  0.0750 -0.2840  0.5988
 1761PEP     CB66747   9.855  23.320  18.094  0.0950 -0.0556  0.0905
 1761PEP     CB66748   9.778  23.472  18.592 -0.2020  0.2999 -0.2219
 1761PEP     CB66749   9.597  23.550  19.043  0.2877  0.1150 -0.1943
 1761PEP     CB66750   9.246  23.874  19.276  0.1016 -0.2151 -0.1563
 1761PEP     CB66751   8.834  23.955  19.170  0.0668  0.1348 -0.1278
 1761PEP     CB66752   8.525  23.897  19.522 -0.0651 -0.0220  0.0413
 1761PEP     CB66753   8.489  23.920  19.983 -0.0211  0.0140 -0.1113
 1761PEP     CB66754   8.412  23.620  20.323  0.3567 -0.0169 -0.0214
 1761PEP     CB66755   8.068  23.239  20.417  0.1415  0.6582 -0.1322
 1761PEP     CB66756   8.168  22.853  20.210  0.0545 -0.1694  0.0146
 1761PEP     CB66757   8.404  22.437  20.265  0.1846 -0.0462 -0.1701
 1761PEP     CB66758   8.386  21.969  20.268  0.0983  0.0336 -0.1293
 1761PEP     CB66759   8.136  21.491  20.440 -0.1258 -0.1802 -0.1013
 1761PEP     CB66760   7.773  21.459  20.602  0.0546 -0.4967 -0.2288
 1762PEP     CB66761   2.398   6.925   8.216 -0.2518 -0.0535  0.1621
 1762PEP     CB66762   2.097   6.596   8.425  0.1094  0.2294 -0.0524
 1762PEP     CB66763   1.897   6.272   8.223  0.0594 -0.1478  0.0477
 1762PEP     CB66764   1.875   6.201   7.787 -0.2083 -0.0384  0.2690
 1762PEP     CB66765   2.122   6.296   7.515  0.1934 -0.0123  0.0388
 1762PEP     CB66766   2.362   6.422   7.126  0.0956 -0.4332 -0.3267
 1762PEP     CB66767   2.583   6.326   6.746  0.0086 -0.4028  0.2689
 1762PEP     CB66768   2.811   6.171   6.466  0.0334 -0.3757  0.1805
 1762PEP     CB66769   3.119   5.923   6.271 -0.1262 -0.2409 -0.0386
 1762PEP     CB66770   3.397   5.671   6.035  0.1964  0.4339  0.0825
 1762PEP     CB66771   3.752   5.528   5.692 -0.1091 -0.2959 -0.1763
 1762PEP     CB66772   3.976   5.848   5.454  0.5130 -0.2890 -0.0578
 1762PEP     CB66773   3.930   6.150   5.210 -0.0899 -0.3488  0.3113
 1762PEP     CB66774   3.735   6.577   5.452  0.1545  0.4804 -0.2089
 1762PEP     CB66775   3.377   6.597   5.645  0.0050  0.1815 -0.3701
 1762PEP     CB66776   3.099   6.237   5.601  0.0370  0.1050 -0.2310
 1762PEP     CB66777   3.059   5.814   5.720 -0.3304  0.1875 -0.2263
 1762PEP     CB66778   2.918   5.400   5.772 -0.3234  0.1027 -0.0709
 1762PEP     CB66779   2.811   4.956   5.803 -0.0823  0.5368  0.1756
 1762PEP     CB66780   2.453   4.719   5.957  0.1433 -0.0344 -0.0254
 1762PEP     CB66781   2.069   4.710   5.731 -0.3383 -0.1036  0.1551
 1762PEP     CB66782   1.972   4.975   5.251 -0.0610 -0.3773  0.0782
 1762PEP     CB66783   1.998   4.890   4.865  0.0795  0.3287 -0.1914
 1762PEP     CB66784   1.917   4.622   4.563  0.3381  0.0960  0.4322
 1762PEP     CB66785   1.645   4.238   4.686 -0.2634 -0.3810 -0.1090
 1762PEP     CB66786   1.588   3.919   5.134  0.4092 -0.1444  0.4191
 1762PEP     CB66787   1.775   4.018   5.522 -0.1224  0.1949  0.0917
 1762PEP     CB66788   2.210   4.259   5.753 -0.1122 -0.0776  0.0789
 1762PEP     CB66789   2.484   4.451   5.477 -0.2152  0.1642 -0.0886
 1762PEP     CB66790   2.701   4.341   5.099  0.5426  0.2542 -0.0722
 1762PEP     CB66791   2.919   4.322   4.745  0.3032 -0.1745 -0.2312
 1762PEP     CB66792   3.281   4.248   4.548  0.1684  0.2535  0.2451
 1762PEP     CB66793   3.562   3.838   4.532  0.0429 -0.1472  0.3002
 1762PEP     CB66794   3.536   3.448   4.785  0.1514  0.0037  0.2666
 1762PEP     CB66795   3.230   3.205   5.029  0.0525  0.0788 -0.1812
 1762PEP     CB66796   2.959   2.945   5.309  0.2456 -0.0118 -0.2606
 1762PEP     CB66797   2.536   2.856   5.534 -0.1732 -0.0779 -0.0130
 1762PEP     CB66798   2.264   2.467   5.486 -0.1241 -0.0630 -0.3341
 1762PEP     CB66799   2.053   2.214   5.615  0.3564  0.0347 -0.2273
 1762PEP     CB66800   1.956   1.794   5.679  0.0919 -0.1847 -0.0598
 1763PEP     CB66801   1.878  10.857   2.926  0.5895  0.1431 -0.0145
 1763PEP     CB66802   1.769  10.464   2.661  0.1933  0.4397  0.0133
 1763PEP     CB66803   1.492  10.097   2.508 -0.1302  0.2083 -0.2647
 1763PEP     CB66804   1.282   9.764   2.298  0.3835  0.0158 -0.0071
 1763PEP     CB66805   1.304   9.602   1.845 -0.4650 -0.1020  0.0459
 1763PEP     CB66806   1.268   9.633   1.425 -0.0757 -0.4266 -0.2896
 1763PEP     CB66807   1.218   9.818   1.068  0.2758 -0.4080 -0.1011
 1763PEP     CB66808   1.052   9.780   0.574 -0.2184  0.3214 -0.2509
 1763PEP     CB66809   1.177   9.844   0.220 -0.1827 -0.1253 -0.3948
 1763PEP     CB66810   1.403   9.670  -0.152 -0.3310 -0.0721 -0.1061
 1763PEP     CB66811   1.681   9.309  -0.483  0.2334  0.0929 -0.0459
 1763PEP     CB66812   2.072   9.221  -0.545  0.1521  0.1481  0.1791
 1763PEP     CB66813   2.405   9.335  -0.327  0.3742  0.0004 -0.3550
 1763PEP     CB66814   2.480   9.706  -0.166  0.3627 -0.1211  0.1576
 1763PEP     CB66815   2.248  10.026   0.114 -0.2755  0.1321 -0.2741
 1763PEP     CB66816   2.204  10.206   0.517  0.1925  0.0716  0.0957
 1763PEP     CB66817   2.398  10.566   0.739 -0.0391 -0.2383 -0.0178
 1763PEP     CB66818   2.657  10.763   0.884 -0.3069 -0.2010  0.1729
 1763PEP     CB66819   2.958  10.942   1.161  0.2626  0.5394 -0.0651
 1763PEP     CB66820   3.162  11.377   1.248  0.1127  0.0682 -0.2794
 1763PEP     CB66821   2.970  11.784   1.283  0.0692 -0.2211  0.0925
 1763PEP     CB66822   2.513  11.836   1.221 -0.1621  0.0642 -0.1543
 1763PEP     CB66823   2.073  11.771   1.392 -0.4333  0.1214 -0.4521
 1763PEP     CB66824   1.765  11.789   1.695 -0.1557  0.3271  0.0935
 1763PEP     CB66825   1.792  11.722   2.159  0.0107 -0.0960  0.0757
 1763PEP     CB66826   2.023  11.510   2.401  0.3191  0.0053  0.1371
 1763PEP     CB66827   2.325  11.240   2.288 -0.1604 -0.2303 -0.0726
 1763PEP     CB66828   2.502  11.054   2.128 -0.1142  0.1720 -0.0483
 1763PEP     CB66829   2.992  11.079   2.224 -0.3457 -0.2192  0.3655
 1763PEP     CB66830   3.235  11.488   2.213 -0.0541  0.4202  0.0442
 1763PEP     CB66831   3.315  11.821   2.216  0.0599 -0.2289  0.3495
 1763PEP     CB66832   3.324  12.220   2.111 -0.3993  0.1609  0.1866
 1763PEP     CB66833   3.591  12.486   1.855 -0.0269  0.2950 -0.0743
 1763PEP     CB66834   3.751  12.475   1.456 -0.1292  0.1524  0.1023
 1763PEP     CB66835   3.755  12.266   1.022  0.2111 -0.3072  0.4139
 1763PEP     CB66836   3.762  11.946   0.748 -0.0670  0.2004 -0.3234
 1763PEP     CB66837   3.573  11.571   0.627  0.1749 -0.1045 -0.0782
 1763PEP     CB66838   3.358  11.232   0.659 -0.5351  0.1722  0.2170
 1763PEP     CB66839   2.932  11.050   0.599  0.0137  0.0322 -0.3835
 1763PEP     CB66840   2.524  11.127   0.496 -0.1018  0.2232 -0.1213
 1764PEP     CB66841  13.545  16.906  21.919 -0.2282 -0.4708  0.0061
 1764PEP     CB66842  14.046  16.963  21.939  0.2463  0.0090  0.0739
 1764PEP     CB66843  14.381  16.599  21.901 -0.0822 -0.1396 -0.0148
 1764PEP     CB66844  14.800  16.358  22.125 -0.3899  0.1439 -0.3340
 1764PEP     CB66845  15.153  16.118  22.096  0.2244 -0.4344 -0.2018
 1764PEP     CB66846  15.400  15.830  21.832 -0.3689  0.1167 -0.1029
 1764PEP     CB66847  15.312  15.765  21.350 -0.0673  0.2795  0.0511
 1764PEP     CB66848  15.547  15.952  21.027 -0.0143 -0.2780 -0.0359
 1764PEP     CB66849  15.807  16.293  20.932  0.0882 -0.2736 -0.1040
 1764PEP     CB66850  16.073  16.673  20.967 -0.1333 -0.3545 -0.1716
 1764PEP     CB66851  16.375  17.033  20.930  0.1120  0.3673 -0.3981
 1764PEP     CB66852  16.367  17.487  20.691  0.3399  0.3431 -0.0251
 1764PEP     CB66853  16.144  17.590  20.321 -0.3733  0.3017 -0.2965
 1764PEP     CB66854  15.968  17.323  20.007  0.3091  0.0234  0.0471
 1764PEP     CB66855  15.886  16.945  20.074 -0.2320  0.0482  0.2044
 1764PEP     CB66856  16.105  16.596  20.139 -0.0177 -0.1307 -0.0256
 1764PEP     CB66857  16.192  16.056  20.157  0.1434  0.2700  0.4521
 1764PEP     CB66858  16.156  15.574  19.916 -0.3765  0.3033 -0.0020
 1764PEP     CB66859  16.041  15.476  19.419  0.3617  0.1132  0.2223
 1764PEP     CB66860  15.777  15.447  19.016  0.0245  0.4011 -0.2998
 1764PEP     CB66861  15.737  15.190  18.669 -0.0805  0.4838 -0.2797
 1764PEP     CB66862  15.686  15.190  18.264 -0.1639  0.4863 -0.0121
 1764PEP     CB66863  15.805  14.970  17.876 -0.3584  0.0386  0.0694
 1764PEP     CB66864  16.014  14.674  17.555  0.0750  0.0122 -0.1131
 1764PEP     CB66865  15.727  14.608  17.117 -0.0480  0.0793  0.0115
 1764PEP     CB66866  15.304  14.831  16.979 -0.1122  0.1830 -0.2029
 1764PEP     CB66867  14.954  14.811  17.201 -0.0427 -0.0115 -0.1998
 1764PEP     CB66868  14.830  14.741  17.708 -0.3439  0.2016 -0.0223
 1764PEP     CB66869  14.743  14.329  17.856 -0.1871  0.0045 -0.1353
 1764PEP     CB66870  14.780  13.876  17.722  0.2762 -0.1000  0.0924
 1764PEP     CB66871  14.749  13.615  17.281  0.2670 -0.2058 -0.6091
 1764PEP     CB66872  14.479  13.340  17.020  0.0892  0.3671  0.1036
 1764PEP     CB66873  14.023  13.066  17.030 -0.2120  0.3566  0.0232
 1764PEP     CB66874  13.849  12.877  16.739  0.1390 -0.2150 -0.1809
 1764PEP     CB66875  13.985  12.602  16.467 -0.0082 -0.1143 -0.4077
 1764PEP     CB66876  14.084  12.727  16.024 -0.6351  0.2406  0.4894
 1764PEP     CB66877  14.114  13.188  15.881 -0.2259 -0.1441 -0.2156
 1764PEP     CB66878  14.268  13.551  16.113 -0.1739 -0.0763 -0.2311
 1764PEP     CB66879  14.034  13.888  16.376  0.0332 -0.0909 -0.0677
 1764PEP     CB66880  13.746  14.182  16.594 -0.1718  0.0062 -0.2009
 1765PEP     CB66881  20.549   7.625  10.301 -0.3561 -0.1953 -0.1711
 1765PEP     CB66882  20.357   7.557  10.702  0.3756  0.0884 -0.0113
 1765PEP     CB66883  20.276   7.715  11.113  0.2025 -0.1900 -0.3744
 1765PEP     CB66884  20.434   7.841  11.524 -0.0541 -0.3675  0.1544
 1765PEP     CB66885  20.615   8.170  11.765 -0.1323 -0.1141 -0.2131
 1765PEP     CB66886  20.878   8.556  11.885  0.1025 -0.1846  0.1199
 1765PEP     CB66887  20.925   8.948  12.023 -0.1834  0.0601 -0.0103
 1765PEP     CB66888  21.249   9.006  12.379 -0.0578 -0.2862  0.3862
 1765PEP     CB66889  21.656   8.785  12.330 -0.2583 -0.0534 -0.1375
 1765PEP     CB66890  21.799   8.904  11.950  0.1713  0.2031 -0.2518
 1765PEP     CB66891  22.001   9.267  11.719  0.3586  0.0513  0.1783
 1765PEP     CB66892  22.160   9.669  11.605  0.0343 -0.1703 -0.4315
 1765PEP     CB66893  22.351   9.998  11.384 -0.0053 -0.4856 -0.3557
 1765PEP     CB66894  22.719  10.260  11.441 -0.4778 -0.4136 -0.0060
 1765PEP     CB66895  23.098  10.060  11.423 -0.1830  0.0624  0.1701
 1765PEP     CB66896  23.217   9.650  11.742  0.2454  0.0316  0.2150
 1765PEP     CB66897  22.999   9.612  12.137 -0.2022  0.0384 -0.0797
 1765PEP     CB66898  22.792   9.876  12.448  0.0227 -0.1668  0.0650
 1765PEP     CB66899  22.776  10.159  12.717  0.0137 -0.3641  0.0834
 1765PEP     CB66900  22.852  10.221  13.153 -0.1916 -0.1263 -0.3109
 1765PEP     CB66901  23.093  10.188  13.565 -0.2364 -0.1025  0.2042
 1765PEP     CB66902  23.457  10.250  13.724  0.0937 -0.2332 -0.0403
 1765PEP     CB66903  23.736  10.321  14.057 -0.1230  0.1715 -0.2550
 1765PEP     CB66904  23.797  10.243  14.498  0.1654 -0.3076 -0.1499
 1765PEP     CB66905  23.432  10.055  14.781  0.1490 -0.0472  0.2774
 1765PEP     CB66906  23.123  10.069  15.043 -0.2192 -0.0494  0.1185
 1765PEP     CB66907  22.690   9.910  14.897  0.3184 -0.1017 -0.1609
 1765PEP     CB66908  22.571  10.019  14.492 -0.1619 -0.3494  0.0943
 1765PEP     CB66909  22.519  10.363  14.278  0.0789 -0.1925 -0.0160
 1765PEP     CB66910  22.805  10.700  14.254  0.0387  0.2031 -0.0450
 1765PEP     CB66911  23.037  10.797  14.634  0.2649 -0.1477  0.2187
 1765PEP     CB66912  22.952  10.592  15.049  0.2755  0.2877  0.0889
 1765PEP     CB66913  22.831  10.301  15.403 -0.0888 -0.1086  0.0187
 1765PEP     CB66914  23.100  10.093  15.738 -0.1766  0.0364 -0.2014
 1765PEP     CB66915  23.287   9.772  15.707  0.4912 -0.1881 -0.0771
 1765PEP     CB66916  23.239   9.509  15.331  0.0420 -0.1063  0.0905
 1765PEP     CB66917  23.081   9.197  15.003 -0.5499  0.4387  0.2614
 1765PEP     CB66918  22.762   8.945  14.687  0.0984  0.2654 -0.1375
 1765PEP     CB66919  22.695   8.696  14.478 -0.0424 -0.1334 -0.4080
 1765PEP     CB66920  22.554   8.329  14.191 -0.0077  0.1698 -0.0061
 1766PEP     CB66921  16.841  13.340  16.600  0.1276 -0.1962 -0.0074
 1766PEP     CB66922  17.019  13.450  16.141  0.1280 -0.1508  0.1587
 1766PEP     CB66923  16.878  13.696  15.811 -0.3031  0.2549 -0.2006
 1766PEP     CB66924  16.539  14.086  15.814 -0.1326  0.1399 -0.0730
 1766PEP     CB66925  16.449  14.478  16.009  0.1698  0.6385 -0.1569
 1766PEP     CB66926  16.322  14.729  16.329  0.4674 -0.0709  0.6813
 1766PEP     CB66927  15.983  15.061  16.253  0.0872  0.2282 -0.5136
 1766PEP     CB66928  15.871  15.129  15.870 -0.2274 -0.3269 -0.0472
 1766PEP     CB66929  16.194  15.321  15.629 -0.0265  0.5275 -0.2661
 1766PEP     CB66930  16.530  15.304  15.888  0.1491 -0.4502  0.1005
 1766PEP     CB66931  16.669  15.012  16.222  0.0396 -0.1031 -0.0692
 1766PEP     CB66932  16.909  14.561  16.239 -0.1650 -0.1713 -0.1701
 1766PEP     CB66933  16.763  14.156  16.279  0.0276 -0.0194  0.0533
 1766PEP     CB66934  16.669  13.778  16.332 -0.3669 -0.0434 -0.2152
 1766PEP     CB66935  16.300  13.647  16.493  0.3253 -0.0748 -0.4258
 1766PEP     CB66936  15.951  13.829  16.594 -0.0749 -0.1388  0.0593
 1766PEP     CB66937  15.615  13.964  16.875  0.3399 -0.2191 -0.1569
 1766PEP     CB66938  15.425  14.156  17.231  0.3149  0.1709 -0.0255
 1766PEP     CB66939  15.315  14.579  17.420  0.1918 -0.4038  0.2155
 1766PEP     CB66940  15.431  15.033  17.451 -0.2293 -0.3822  0.3818
 1766PEP     CB66941  15.672  15.426  17.403  0.3773 -0.2440  0.1330
 1766PEP     CB66942  15.632  15.862  17.546  0.0400  0.2400 -0.1276
 1766PEP     CB66943  15.417  16.080  17.812 -0.0163 -0.2631  0.2736
 1766PEP     CB66944  15.489  16.233  18.238 -0.0180  0.0596 -0.0845
 1766PEP     CB66945  15.623  16.208  18.680 -0.3180 -0.1495 -0.4085
 1766PEP     CB66946  15.860  16.068  19.022  0.1978 -0.1383 -0.1202
 1766PEP     CB66947  16.354  15.830  19.182  0.0716  0.0459  0.1219
 1766PEP     CB66948  16.678  15.729  18.898 -0.2152  0.3216  0.2362
 1766PEP     CB66949  16.760  15.991  18.531 -0.2032 -0.4332 -0.0815
 1766PEP     CB66950  16.804  16.419  18.536 -0.1540  0.3049 -0.1223
 1766PEP     CB66951  16.861  16.532  18.924  0.0067 -0.0698  0.1244
 1766PEP     CB66952  16.675  16.347  19.270  0.2074  0.1240 -0.0801
 1766PEP     CB66953  16.784  15.911  19.392  0.0285  0.0424 -0.3562
 1766PEP     CB66954  16.692  15.421  19.379 -0.0707 -0.2761 -0.1509
 1766PEP     CB66955  16.506  15.058  19.238  0.1223  0.3736  0.6658
 1766PEP     CB66956  16.202  14.822  18.951  0.1037 -0.3111  0.0502
 1766PEP     CB66957  15.904  14.669  18.625  0.0768  0.0879  0.1985
 1766PEP     CB66958  15.920  14.601  18.242  0.1051  0.2146  0.4649
 1766PEP     CB66959  16.061  14.257  17.974 -0.1534  0.1323  0.0527
 1766PEP     CB66960  16.260  14.194  17.657 -0.3698 -0.1285 -0.0849
 1767PEP     CB66961  15.904   7.733   7.856 -0.1256  0.2191  0.1907
 1767PEP     CB66962  16.111   7.430   7.557 -0.0510  0.0148  0.1207
 1767PEP     CB66963  16.201   7.296   7.139  0.1322 -0.1718  0.1758
 1767PEP     CB66964  15.977   7.017   6.802 -0.0204 -0.2440  0.2514
 1767PEP     CB66965  15.475   6.952   6.889 -0.2673 -0.3301  0.0886
 1767PEP     CB66966  15.132   7.170   7.190 -0.0771  0.0932  0.1803
 1767PEP     CB66967  15.120   7.640   7.269  0.0046  0.1403 -0.1678
 1767PEP     CB66968  15.072   7.972   7.063 -0.1168 -0.2418  0.1778
 1767PEP     CB66969  15.196   8.190   6.702 -0.0422 -0.3888  0.0662
 1767PEP     CB66970  15.241   8.354   6.249  0.0688 -0.2711 -0.3812
 1767PEP     CB66971  15.248   8.463   5.749 -0.1431 -0.3837 -0.0067
 1767PEP     CB66972  15.547   8.419   5.423  0.1485  0.1866  0.4668
 1767PEP     CB66973  15.881   8.202   5.196 -0.1497 -0.2983 -0.0455
 1767PEP     CB66974  16.333   8.041   5.001 -0.1249 -0.3108 -0.2234
 1767PEP     CB66975  16.639   7.818   4.834 -0.1085 -0.2434 -0.2955
 1767PEP     CB66976  16.883   7.421   4.902  0.2291  0.0589 -0.1480
 1767PEP     CB66977  17.128   7.005   5.051  0.4405  0.0940 -0.0810
 1767PEP     CB66978  17.296   6.783   5.250  0.0570 -0.2243  0.2293
 1767PEP     CB66979  17.395   6.421   5.219 -0.0208  0.1181  0.1985
 1767PEP     CB66980  17.470   5.990   5.351 -0.0380 -0.0289 -0.1381
 1767PEP     CB66981  17.445   5.819   5.776 -0.1171 -0.0642 -0.1183
 1767PEP     CB66982  17.766   5.790   6.001  0.1073  0.2109 -0.0295
 1767PEP     CB66983  18.114   5.993   6.137  0.3545  0.2526 -0.2084
 1767PEP     CB66984  18.220   6.370   5.911  0.2115 -0.0496 -0.1133
 1767PEP     CB66985  18.229   6.790   5.671 -0.2483  0.2527  0.4552
 1767PEP     CB66986  18.229   7.154   5.377  0.5697  0.2275  0.1690
 1767PEP     CB66987  18.480   7.396   5.281  0.2747  0.2305 -0.0777
 1767PEP     CB66988  18.594   7.780   5.091  0.4016 -0.3916  0.3704
 1767PEP     CB66989  18.989   7.972   5.110  0.0315  0.1152 -0.2817
 1767PEP     CB66990  19.403   7.746   5.288  0.1259  0.2297 -0.0898
 1767PEP     CB66991  19.522   7.451   5.592 -0.1532  0.2941  0.1063
 1767PEP     CB66992  19.546   7.411   6.069  0.1169  0.1173 -0.7015
 1767PEP     CB66993  19.740   7.213   6.474  0.0718 -0.0330  0.0690
 1767PEP     CB66994  19.567   7.294   6.953  0.1537 -0.0759  0.4598
 1767PEP     CB66995  19.243   7.356   7.143  0.2511  0.1161 -0.0213
 1767PEP     CB66996  18.883   7.149   7.367 -0.1676  0.1714  0.0657
 1767PEP     CB66997  18.607   7.014   7.645 -0.1130  0.4972 -0.0805
 1767PEP     CB66998  18.246   7.079   7.865 -0.0567  0.0211 -0.3550
 1767PEP     CB66999  17.770   6.892   7.912 -0.2754 -0.1362  0.1703
 1767PEP     CB67000  17.431   7.053   7.995 -0.1240  0.4639  0.0959
 1768PEP     CB67001   1.837  21.711  13.520  0.0063 -0.1924 -0.0054
 1768PEP     CB67002   1.571  21.412  13.456  0.7046  0.1293  0.3349
 1768PEP     CB67003   1.282  21.085  13.531 -0.0562 -0.0684 -0.1794
 1768PEP     CB67004   1.029  20.590  13.534  0.1755 -0.2008  0.0933
 1768PEP     CB67005   1.070  20.189  13.312  0.1382 -0.0235 -0.2530
 1768PEP     CB67006   1.318  20.109  12.820  0.0659 -0.0008 -0.1877
 1768PEP     CB67007   1.295  20.477  12.475 -0.1058 -0.1797  0.0157
 1768PEP     CB67008   1.220  20.877  12.306  0.2545  0.1717  0.2161
 1768PEP     CB67009   1.206  21.186  12.071  0.3085 -0.0901 -0.1947
 1768PEP     CB67010   1.116  21.641  12.101 -0.3459 -0.3772 -0.3198
 1768PEP     CB67011   1.142  22.127  12.027 -0.0786 -0.1097  0.0909
 1768PEP     CB67012   1.120  22.599  11.824  0.1255 -0.1163  0.1834
 1768PEP     CB67013   1.253  22.802  11.425  0.3024  0.0954 -0.0460
 1768PEP     CB67014   1.171  23.000  10.983  0.0726  0.0651 -0.0002
 1768PEP     CB67015   1.099  23.265  10.701 -0.1457 -0.1101 -0.3760
 1768PEP     CB67016   1.182  23.342  10.245 -0.2812  0.7010 -0.2696
 1768PEP     CB67017   1.254  23.670   9.965  0.5290 -0.0718 -0.0018
 1768PEP     CB67018   1.273  24.100   9.925 -0.2657  0.6044  0.0071
 1768PEP     CB67019   1.336  24.460  10.115 -0.1333 -0.3126 -0.5438
 1768PEP     CB67020   1.659  24.667  10.253 -0.1423 -0.3715 -0.0319
 1768PEP     CB67021   1.753  24.920  10.630 -0.1367 -0.2408  0.0876
 1768PEP     CB67022   1.463  25.221  10.652 -0.2296  0.1810 -0.0853
 1768PEP     CB67023   1.166  25.513  10.484  0.1049 -0.2462 -0.1994
 1768PEP     CB67024   1.133  25.890  10.196 -0.1585  0.5721 -0.0218
 1768PEP     CB67025   1.103  26.309  10.104 -0.0324 -0.1219  0.1429
 1768PEP     CB67026   1.124  26.745  10.208  0.1160  0.2604  0.0658
 1768PEP     CB67027   1.491  27.062  10.346  0.3943  0.2358  0.1550
 1768PEP     CB67028   1.886  27.035  10.541  0.0488 -0.1429 -0.0811
 1768PEP     CB67029   2.097  26.586  10.526  0.1850  0.3322  0.1854
 1768PEP     CB67030   2.113  26.212  10.248  0.0356  0.0246  0.0122
 1768PEP     CB67031   2.063  25.730  10.121  0.0693 -0.2361 -0.2101
 1768PEP     CB67032   2.286  25.356  10.238  0.0300  0.0394  0.1388
 1768PEP     CB67033   2.288  25.129  10.585 -0.1692  0.1096  0.3943
 1768PEP     CB67034   2.365  25.285  10.974  0.4071 -0.4293 -0.2517
 1768PEP     CB67035   2.734  25.475  11.008  0.4428  0.0666 -0.1253
 1768PEP     CB67036   3.071  25.646  11.242 -0.1671  0.0371 -0.0728
 1768PEP     CB67037   3.327  25.595  11.603  0.0314 -0.4695 -0.4240
 1768PEP     CB67038   3.662  25.732  11.857 -0.4726  0.2342  0.0427
 1768PEP     CB67039   3.991  25.810  12.226 -0.5232 -0.1758  0.0065
 1768PEP     CB67040   3.850  25.754  12.651 -0.4234 -0.0661 -0.2420
 1769PEP     CB67041   3.656  20.610   6.260  0.0437  0.0741 -0.2917
 1769PEP     CB67042   3.596  20.961   6.628 -0.1406  0.2968 -0.2209
 1769PEP     CB67043   3.482  21.101   7.049 -0.1310  0.0854  0.4429
 1769PEP     CB67044   3.013  21.071   7.247 -0.0407  0.1058  0.3438
 1769PEP     CB67045   2.652  20.928   7.030  0.3945 -0.2978 -0.2133
 1769PEP     CB67046   2.317  20.684   6.934  0.1356 -0.0612  0.3027
 1769PEP     CB67047   1.946  20.450   6.803  0.2514 -0.1964  0.2049
 1769PEP     CB67048   1.548  20.392   6.788  0.4021  0.2582 -0.2210
 1769PEP     CB67049   1.133  20.451   6.899 -0.1987 -0.1552  0.3828
 1769PEP     CB67050   0.772  20.711   6.872  0.3797 -0.1355 -0.2816
 1769PEP     CB67051   0.439  20.945   7.055  0.3450  0.0926 -0.1693
 1769PEP     CB67052  -0.022  21.051   6.971 -0.1169 -0.3035 -0.1078
 1769PEP     CB67053  -0.348  21.307   6.750  0.1181  0.3825 -0.0035
 1769PEP     CB67054  -0.485  21.736   6.615  0.0297 -0.0138  0.1172
 1769PEP     CB67055  -0.757  22.078   6.504  0.1430 -0.0686  0.6553
 1769PEP     CB67056  -1.019  22.403   6.235 -0.0189 -0.0385 -0.0240
 1769PEP     CB67057  -0.990  22.810   5.989  0.4005 -0.2821 -0.3609
 1769PEP     CB67058  -0.582  22.974   6.034  0.0427  0.1419 -0.6393
 1769PEP     CB67059  -0.096  22.771   6.211  0.2570  0.5039 -0.6201
 1769PEP     CB67060   0.199  22.541   6.462  0.3964 -0.1746  0.4263
 1769PEP     CB67061   0.316  22.506   6.834  0.2140 -0.1442 -0.0813
 1769PEP     CB67062   0.647  22.712   7.081 -0.1799 -0.3262 -0.1337
 1769PEP     CB67063   0.919  22.748   7.384 -0.2115  0.1946 -0.0121
 1769PEP     CB67064   1.230  23.085   7.490 -0.0241  0.0367  0.0077
 1769PEP     CB67065   1.238  23.484   7.726 -0.2677 -0.4998 -0.0148
 1769PEP     CB67066   1.475  23.803   7.939 -0.3100  0.3526 -0.2438
 1769PEP     CB67067   1.766  24.173   7.806 -0.1886  0.3290  0.2013
 1769PEP     CB67068   2.161  24.467   7.734  0.0646 -0.2161 -0.3267
 1769PEP     CB67069   2.452  24.825   7.968 -0.0399  0.0780 -0.2494
 1769PEP     CB67070   2.532  25.062   8.275  0.0077  0.1155  0.1477
 1769PEP     CB67071   2.432  25.343   8.516  0.0159  0.0314  0.0102
 1769PEP     CB67072   2.179  25.433   8.855  0.3152 -0.2925 -0.1667
 1769PEP     CB67073   1.724  25.518   8.969  0.0312  0.1998 -0.2294
 1769PEP     CB67074   1.419  25.891   8.885  0.0995  0.2163 -0.1424
 1769PEP     CB67075   1.362  26.296   8.592 -0.3495 -0.0744 -0.1059
 1769PEP     CB67076   1.598  26.527   8.349 -0.0241  0.3242 -0.0563
 1769PEP     CB67077   2.040  26.546   8.207 -0.2124  0.0072  0.1934
 1769PEP     CB67078   2.115  26.071   7.990 -0.1243 -0.0286  0.4179
 1769PEP     CB67079   1.879  25.867   7.822 -0.2790 -0.0368 -0.0555
 1769PEP     CB67080   1.853  25.538   7.489 -0.0330  0.1202  0.5189
 1770PEP     CB67081   3.180   5.860   2.691  0.3432  0.0320  0.1623
 1770PEP     CB67082   2.956   5.637   2.436 -0.1740  0.0130 -0.0903
 1770PEP     CB67083   2.557   5.605   2.194  0.0468 -0.2079  0.4353
 1770PEP     CB67084   2.476   5.915   1.820  0.1649  0.0789 -0.3386
 1770PEP     CB67085   2.637   6.237   1.704  0.0575 -0.2450  0.1604
 1770PEP     CB67086   2.714   6.642   1.513 -0.1807  0.4719 -0.1811
 1770PEP     CB67087   2.455   6.804   1.227 -0.1321  0.4244 -0.0149
 1770PEP     CB67088   2.407   6.982   0.728  0.2740  0.1329  0.0007
 1770PEP     CB67089   2.664   7.094   0.551  0.0995  0.1519  0.7264
 1770PEP     CB67090   2.873   7.531   0.484 -0.0865 -0.0987 -0.2594
 1770PEP     CB67091   3.020   7.899   0.697  0.0198 -0.1152 -0.0554
 1770PEP     CB67092   3.193   8.237   0.658  0.0934 -0.2017  0.1385
 1770PEP     CB67093   3.368   8.649   0.799  0.4246 -0.0020 -0.1759
 1770PEP     CB67094   3.622   8.960   0.686  0.1954  0.3115  0.1098
 1770PEP     CB67095   4.056   8.960   0.498 -0.2127  0.4524  0.0783
 1770PEP     CB67096   4.342   9.157   0.456  0.0118 -0.0769  0.1264
 1770PEP     CB67097   4.754   9.384   0.357  0.2297 -0.0482 -0.4745
 1770PEP     CB67098   5.149   9.476   0.301 -0.3351 -0.0660 -0.1265
 1770PEP     CB67099   5.547   9.568  -0.036 -0.0781 -0.3037  0.3389
 1770PEP     CB67100   5.535   9.554  -0.456  0.0539 -0.1207  0.0838
 1770PEP     CB67101   5.386   9.451  -0.897 -0.1377  0.0620  0.0798
 1770PEP     CB67102   5.131   9.465  -1.272 -0.1421 -0.1314  0.0353
 1770PEP     CB67103   4.969   9.619  -1.683  0.2213  0.0440 -0.2195
 1770PEP     CB67104   4.850  10.010  -1.901 -0.1228 -0.2812  0.0303
 1770PEP     CB67105   4.688  10.148  -2.296  0.4627  0.0945 -0.0605
 1770PEP     CB67106   4.245  10.244  -2.480  0.1762 -0.4817  0.3039
 1770PEP     CB67107   3.860  10.573  -2.520 -0.5607  0.2175 -0.0502
 1770PEP     CB67108   3.652  10.960  -2.401 -0.1670  0.0973 -0.0236
 1770PEP     CB67109   3.266  11.189  -2.281  0.2867 -0.4752  0.1583
 1770PEP     CB67110   3.114  11.143  -1.842 -0.1246 -0.1005  0.1771
 1770PEP     CB67111   3.290  10.921  -1.540  0.1014  0.2275  0.2574
 1770PEP     CB67112   3.449  10.461  -1.535  0.1023 -0.1812  0.0594
 1770PEP     CB67113   3.594  10.101  -1.373 -0.0458 -0.2134 -0.2594
 1770PEP     CB67114   3.254   9.834  -1.201  0.2218  0.1169 -0.0596
 1770PEP     CB67115   2.858   9.665  -1.437 -0.2202 -0.1678  0.3044
 1770PEP     CB67116   2.625   9.881  -1.790 -0.2429  0.0261  0.1776
 1770PEP     CB67117   2.605  10.286  -1.947 -0.1380 -0.3041 -0.2217
 1770PEP     CB67118   2.860  10.618  -1.769  0.3119  0.0626 -0.1839
 1770PEP     CB67119   2.874  10.704  -1.373  0.3762  0.4031  0.2033
 1770PEP     CB67120   2.669  10.552  -0.937  0.1788 -0.1554 -0.0223
 1771PEP     CB67121  17.496   1.316   7.239  0.0136  0.1541  0.3136
 1771PEP     CB67122  17.904   1.105   7.197  0.3050 -0.4336 -0.0420
 1771PEP     CB67123  18.300   1.251   6.902  0.0127  0.0942 -0.4659
 1771PEP     CB67124  18.503   1.679   6.877 -0.2498 -0.3175 -0.2230
 1771PEP     CB67125  18.358   1.947   6.478 -0.0645 -0.0042  0.2165
 1771PEP     CB67126  18.029   1.916   6.181  0.2008 -0.2463 -0.2369
 1771PEP     CB67127  17.980   1.581   5.843 -0.1318  0.4575 -0.4800
 1771PEP     CB67128  17.741   1.260   5.916 -0.3714 -0.5125  0.2165
 1771PEP     CB67129  17.575   1.279   6.204  0.2792 -0.2667 -0.3192
 1771PEP     CB67130  17.251   1.457   6.482  0.0304  0.1586  0.3273
 1771PEP     CB67131  16.790   1.529   6.578 -0.4136  0.0181  0.0126
 1771PEP     CB67132  16.392   1.542   6.513  0.1163  0.2076 -0.2279
 1771PEP     CB67133  15.962   1.875   6.553 -0.1643 -0.0029 -0.0843
 1771PEP     CB67134  15.581   2.055   6.634 -0.3210  0.1113  0.1558
 1771PEP     CB67135  15.184   2.245   6.589  0.3472  0.1376 -0.1528
 1771PEP     CB67136  14.822   2.451   6.440  0.3076  0.1140 -0.0982
 1771PEP     CB67137  14.544   2.591   6.174  0.1900 -0.1452 -0.2717
 1771PEP     CB67138  14.331   2.951   6.059  0.0666 -0.0192 -0.0411
 1771PEP     CB67139  14.223   3.323   5.964 -0.2043 -0.3089 -0.0375
 1771PEP     CB67140  14.380   3.761   5.744  0.1657  0.2212 -0.4128
 1771PEP     CB67141  14.615   4.138   5.584 -0.3906  0.1754  0.0007
 1771PEP     CB67142  14.595   4.466   5.716  0.1884 -0.2546  0.1211
 1771PEP     CB67143  14.600   4.637   6.108 -0.3775 -0.0377 -0.0058
 1771PEP     CB67144  14.290   4.662   6.407 -0.0520 -0.2499 -0.5514
 1771PEP     CB67145  13.977   4.854   6.594  0.6951 -0.2067 -0.2273
 1771PEP     CB67146  13.705   5.195   6.905 -0.1328  0.2945  0.1414
 1771PEP     CB67147  13.924   5.392   7.282  0.1956  0.0387  0.1589
 1771PEP     CB67148  14.378   5.478   7.302  0.3108  0.0402  0.1312
 1771PEP     CB67149  14.608   5.132   7.127  0.3349 -0.1721 -0.1667
 1771PEP     CB67150  14.569   4.786   6.866  0.1854 -0.1203  0.0699
 1771PEP     CB67151  14.607   4.337   6.624 -0.1474 -0.0977 -0.0791
 1771PEP     CB67152  14.852   4.009   6.663  0.4631 -0.2126 -0.0623
 1771PEP     CB67153  15.001   3.498   6.718 -0.0907 -0.1540 -0.0453
 1771PEP     CB67154  15.274   3.093   6.683 -0.3299 -0.0930 -0.3949
 1771PEP     CB67155  15.474   2.711   6.551 -0.6127 -0.2049 -0.2059
 1771PEP     CB67156  15.580   2.455   6.220 -0.0632  0.2173 -0.1848
 1771PEP     CB67157  15.493   2.574   5.802 -0.1184 -0.0356  0.1467
 1771PEP     CB67158  15.540   2.935   5.542  0.1139 -0.2445 -0.0965
 1771PEP     CB67159  15.824   3.243   5.515  0.2399 -0.2497  0.4486
 1771PEP     CB67160  16.197   3.210   5.721  0.3882  0.0307  0.0732
 1772PEP     CB67161  18.688  12.464  16.534  0.4438 -0.1874  0.3612
 1772PEP     CB67162  18.525  12.073  16.426  0.0719  0.1313 -0.0071
 1772PEP     CB67163  18.558  11.640  16.498  0.0029  0.3156  0.3494
 1772PEP     CB67164  18.658  11.415  16.881 -0.1607 -0.3014 -0.0324
 1772PEP     CB67165  18.506  11.058  17.046  0.2503 -0.1188  0.2006
 1772PEP     CB67166  18.366  10.599  17.134 -0.2620 -0.0924 -0.1312
 1772PEP     CB67167  18.070  10.346  17.391  0.3173 -0.3632 -0.2561
 1772PEP     CB67168  17.641  10.319  17.482 -0.2246 -0.0286 -0.1820
 1772PEP     CB67169  17.288  10.386  17.796  0.2463  0.1940  0.3233
 1772PEP     CB67170  17.058  10.157  18.188  0.0004  0.0607 -0.1252
 1772PEP     CB67171  16.825   9.756  18.411  0.0121  0.2788  0.1791
 1772PEP     CB67172  16.688   9.477  18.702 -0.3198  0.3177 -0.0140
 1772PEP     CB67173  16.620   9.049  18.815  0.1755  0.1007 -0.0108
 1772PEP     CB67174  16.327   8.852  19.047 -0.1509 -0.0933 -0.0759
 1772PEP     CB67175  16.064   8.679  19.369  0.3589  0.0080  0.3389
 1772PEP     CB67176  15.929   8.290  19.396 -0.1208  0.0036 -0.4364
 1772PEP     CB67177  15.913   8.012  18.957 -0.4137 -0.0395  0.6469
 1772PEP     CB67178  15.943   8.103  18.484 -0.0213 -0.0122  0.1834
 1772PEP     CB67179  15.984   8.462  18.218  0.2435  0.1823  0.1783
 1772PEP     CB67180  16.179   8.725  17.964  0.3768 -0.1633 -0.2501
 1772PEP     CB67181  16.119   8.952  17.546  0.0520  0.1059 -0.0083
 1772PEP     CB67182  15.948   9.244  17.250  0.3601  0.1535  0.1158
 1772PEP     CB67183  15.981   9.682  16.938 -0.3153 -0.1319 -0.1509
 1772PEP     CB67184  15.800   9.683  16.570  0.1016 -0.4577  0.0972
 1772PEP     CB67185  15.445   9.503  16.363 -0.3266  0.0592  0.4897
 1772PEP     CB67186  15.367   9.260  16.131 -0.0237 -0.0810 -0.0772
 1772PEP     CB67187  15.515   8.835  16.033  0.3502  0.0553  0.2254
 1772PEP     CB67188  15.878   8.585  15.934  0.2038 -0.0418  0.0748
 1772PEP     CB67189  16.272   8.393  15.982  0.3028  0.2637  0.0280
 1772PEP     CB67190  16.551   7.954  15.970  0.1212 -0.0635  0.0180
 1772PEP     CB67191  16.708   7.518  16.128 -0.2508 -0.0966  0.2208
 1772PEP     CB67192  16.535   7.129  16.191 -0.1447 -0.3536  0.0229
 1772PEP     CB67193  16.069   7.127  15.988  0.0817  0.0121  0.1437
 1772PEP     CB67194  15.653   6.998  16.054 -0.0038 -0.0141 -0.3094
 1772PEP     CB67195  15.511   6.701  16.389 -0.2757  0.3335 -0.0218
 1772PEP     CB67196  15.454   6.496  16.754 -0.0051  0.0899 -0.1396
 1772PEP     CB67197  15.197   6.420  17.109  0.3002  0.1410 -0.0544
 1772PEP     CB67198  14.790   6.528  17.253  0.0608 -0.1692  0.0035
 1772PEP     CB67199  14.415   6.488  17.283  0.1417 -0.1490 -0.4953
 1772PEP     CB67200  14.084   6.804  17.491  0.2243  0.1821 -0.1135
 1773PEP     CB67201  10.788  16.417   1.487 -0.0941 -0.1700 -0.3285
 1773PEP     CB67202  10.413  16.474   1.613  0.1113  0.4250 -0.3101
 1773PEP     CB67203  10.102  16.697   1.796  0.0148 -0.0995 -0.0085
 1773PEP     CB67204   9.764  16.822   1.927 -0.1328 -0.2923  0.1564
 1773PEP     CB67205   9.333  16.819   1.751 -0.0605 -0.1379 -0.0467
 1773PEP     CB67206   9.145  16.498   1.530  0.0558  0.0114 -0.2153
 1773PEP     CB67207   8.890  16.278   1.217 -0.2016  0.1201 -0.0297
 1773PEP     CB67208   8.834  16.010   0.870  0.0345 -0.2713 -0.2470
 1773PEP     CB67209   8.518  16.060   0.428 -0.0122 -0.3357 -0.2954
 1773PEP     CB67210   8.408  15.854   0.044 -0.4978 -0.1165  0.1612
 1773PEP     CB67211   8.212  15.741  -0.254  0.0793  0.3461  0.1070
 1773PEP     CB67212   8.055  15.479  -0.505  0.1137 -0.0160  0.0028
 1773PEP     CB67213   7.754  15.556  -0.862 -0.2480  0.2233  0.0081
 1773PEP     CB67214   7.712  15.881  -1.116 -0.0419 -0.3787  0.0888
 1773PEP     CB67215   7.767  16.182  -1.487  0.1426 -0.0099  0.0067
 1773PEP     CB67216   7.955  16.413  -1.705 -0.0136 -0.0009  0.2251
 1773PEP     CB67217   7.996  16.904  -1.775  0.1101  0.0826 -0.5780
 1773PEP     CB67218   7.697  17.279  -1.689 -0.1597  0.3281 -0.0147
 1773PEP     CB67219   7.255  17.237  -1.422  0.2697 -0.2623  0.0904
 1773PEP     CB67220   6.992  17.448  -1.098 -0.1135  0.2965  0.1348
 1773PEP     CB67221   6.911  17.564  -0.622 -0.0175 -0.0258 -0.0649
 1773PEP     CB67222   6.874  17.426  -0.167  0.1705  0.2188 -0.2799
 1773PEP     CB67223   6.720  17.109   0.129  0.2865 -0.2493 -0.1013
 1773PEP     CB67224   6.749  16.858   0.536 -0.2807 -0.2689 -0.2994
 1773PEP     CB67225   6.676  16.984   0.988 -0.2095 -0.2031  0.2412
 1773PEP     CB67226   6.418  16.795   1.269 -0.2707  0.1444 -0.0083
 1773PEP     CB67227   6.160  16.394   1.190 -0.0428  0.3571 -0.0316
 1773PEP     CB67228   6.142  16.199   0.746  0.1846 -0.0975 -0.0029
 1773PEP     CB67229   6.270  16.351   0.342  0.1194  0.3623 -0.4198
 1773PEP     CB67230   6.615  16.542   0.147 -0.2393  0.2968  0.1500
 1773PEP     CB67231   6.958  16.613   0.156 -0.3427 -0.0418 -0.3544
 1773PEP     CB67232   7.365  16.564   0.067  0.1598  0.1477 -0.3216
 1773PEP     CB67233   7.747  16.670   0.351  0.0918  0.1950  0.0623
 1773PEP     CB67234   8.199  16.570   0.561  0.2170  0.0302 -0.4441
 1773PEP     CB67235   8.562  16.536   0.606 -0.0025 -0.1691  0.0255
 1773PEP     CB67236   8.999  16.484   0.556  0.0772  0.2540  0.2112
 1773PEP     CB67237   9.336  16.251   0.517 -0.0658 -0.2893  0.0996
 1773PEP     CB67238   9.688  16.084   0.279 -0.5018 -0.0304 -0.2484
 1773PEP     CB67239  10.127  16.118   0.274  0.4899  0.1936  0.0052
 1773PEP     CB67240  10.500  16.065   0.531 -0.4046 -0.0582  0.2818
 1774PEP     CB67241   1.668  16.661  20.412 -0.0106 -0.2596 -0.1142
 1774PEP     CB67242   1.324  16.508  20.683 -0.1360  0.1967  0.2502
 1774PEP     CB67243   0.983  16.170  20.874 -0.5629 -0.0601 -0.1325
 1774PEP     CB67244   0.851  15.910  21.153 -0.1898  0.1919 -0.0416
 1774PEP     CB67245   0.887  15.465  21.365  0.0659  0.0536  0.2738
 1774PEP     CB67246   1.192  15.108  21.305 -0.0657  0.2019 -0.0877
 1774PEP     CB67247   1.344  14.897  20.931  0.1964  0.0597  0.3331
 1774PEP     CB67248   1.745  14.707  20.598 -0.0969 -0.1794 -0.2198
 1774PEP     CB67249   1.912  14.718  20.175  0.0659  0.1154 -0.3834
 1774PEP     CB67250   1.643  14.709  19.757 -0.5508  0.0356 -0.1350
 1774PEP     CB67251   1.287  14.762  19.682 -0.3531  0.3150 -0.0485
 1774PEP     CB67252   1.051  14.954  19.404  0.0647 -0.1085  0.2063
 1774PEP     CB67253   0.759  15.148  19.142  0.1784 -0.1192  0.1054
 1774PEP     CB67254   0.527  15.473  19.102  0.2641  0.0286 -0.1774
 1774PEP     CB67255   0.124  15.648  19.284 -0.1888 -0.3162 -0.3340
 1774PEP     CB67256  -0.249  15.381  19.329 -0.0302 -0.1525 -0.1416
 1774PEP     CB67257  -0.379  15.144  18.991 -0.2577  0.0465 -0.5001
 1774PEP     CB67258  -0.221  15.021  18.604  0.0892 -0.2644  0.0062
 1774PEP     CB67259   0.052  15.157  18.383 -0.4052  0.4478 -0.4015
 1774PEP     CB67260   0.288  15.487  18.317 -0.0595  0.2799  0.1968
 1774PEP     CB67261   0.400  15.930  18.211 -0.1064  0.2205 -0.2845
 1774PEP     CB67262   0.543  16.234  18.459  0.0088 -0.0427  0.1999
 1774PEP     CB67263   0.342  16.500  18.616  0.1251  0.0793 -0.3103
 1774PEP     CB67264  -0.038  16.623  18.621 -0.2182  0.1631 -0.3249
 1774PEP     CB67265  -0.339  17.052  18.793  0.3022  0.1875  0.4603
 1774PEP     CB67266  -0.287  17.434  19.039  0.2565 -0.0744 -0.2025
 1774PEP     CB67267   0.127  17.571  19.059 -0.0121 -0.1852  0.1518
 1774PEP     CB67268   0.548  17.272  18.905  0.1464 -0.2726  0.2054
 1774PEP     CB67269   0.715  16.819  18.802 -0.1065  0.2002  0.1647
 1774PEP     CB67270   0.918  16.649  18.559  0.1274 -0.0242  0.2622
 1774PEP     CB67271   1.210  16.536  18.255 -0.2783 -0.0146 -0.0630
 1774PEP     CB67272   1.575  16.210  18.158 -0.2371  0.2844 -0.4874
 1774PEP     CB67273   1.820  15.732  18.115  0.0407 -0.0759 -0.0529
 1774PEP     CB67274   2.043  15.425  17.982 -0.1035  0.2321  0.0797
 1774PEP     CB67275   2.087  15.203  17.643 -0.1093 -0.0238 -0.1927
 1774PEP     CB67276   1.880  15.337  17.308  0.2778  0.1013 -0.2549
 1774PEP     CB67277   1.844  15.641  17.092 -0.0961 -0.2810 -0.1708
 1774PEP     CB67278   1.824  15.801  16.680 -0.1968 -0.0647  0.0679
 1774PEP     CB67279   1.836  15.633  16.284 -0.3901 -0.1140 -0.0612
 1774PEP     CB67280   2.075  15.376  15.914 -0.2586  0.0660 -0.3025
 1775PEP     CB67281  11.629  11.056   3.048  0.1517 -0.2966 -0.2263
 1775PEP     CB67282  11.508  10.886   2.716 -0.0985 -0.1673 -0.2332
 1775PEP     CB67283  11.379  10.430   2.644  0.4583  0.2041  0.0691
 1775PEP     CB67284  11.210  10.147   2.944 -0.1516 -0.4038 -0.0244
 1775PEP     CB67285  11.264  10.178   3.371  0.0501  0.2792  0.0218
 1775PEP     CB67286  11.506  10.351   3.661  0.3432 -0.0808  0.3107
 1775PEP     CB67287  11.850  10.572   3.884 -0.1553  0.0049 -0.0997
 1775PEP     CB67288  12.319  10.456   4.069  0.1094  0.0840  0.3828
 1775PEP     CB67289  12.646  10.588   4.315  0.1678  0.1952  0.0158
 1775PEP     CB67290  12.752  10.781   4.621 -0.1711  0.0769 -0.1319
 1775PEP     CB67291  12.711  11.163   4.729  0.4879 -0.1127  0.1389
 1775PEP     CB67292  12.643  11.626   4.579 -0.4017  0.0622  0.2091
 1775PEP     CB67293  12.913  11.911   4.391 -0.3602  0.2237 -0.2069
 1775PEP     CB67294  13.341  12.048   4.505 -0.1891 -0.1884 -0.1953
 1775PEP     CB67295  13.717  11.964   4.828  0.0919  0.2152 -0.0011
 1775PEP     CB67296  14.145  11.942   4.743  0.0113 -0.3682  0.2799
 1775PEP     CB67297  14.283  11.813   4.317  0.1792  0.0889  0.0256
 1775PEP     CB67298  14.101  11.546   3.975  0.5117  0.1103  0.0321
 1775PEP     CB67299  13.874  11.578   3.514  0.1362 -0.0348  0.1694
 1775PEP     CB67300  13.523  11.489   3.186  0.3607  0.1163 -0.6652
 1775PEP     CB67301  13.266  11.356   2.909  0.0393 -0.0835 -0.2970
 1775PEP     CB67302  13.090  11.353   2.521 -0.1615 -0.0057  0.1177
 1775PEP     CB67303  12.878  11.208   2.142  0.0070 -0.3859  0.0318
 1775PEP     CB67304  12.803  11.113   1.662  0.4278  0.1299  0.0470
 1775PEP     CB67305  12.519  10.918   1.343  0.0681  0.0535  0.2147
 1775PEP     CB67306  12.085  10.939   1.216  0.1933  0.1390  0.3133
 1775PEP     CB67307  11.796  11.258   1.200  0.1848 -0.0025  0.1498
 1775PEP     CB67308  11.436  11.421   1.060 -0.0128 -0.0993 -0.2313
 1775PEP     CB67309  11.081  11.677   1.110  0.1051 -0.0832  0.1702
 1775PEP     CB67310  10.903  12.174   1.291 -0.1421 -0.0872 -0.3071
 1775PEP     CB67311  10.478  12.393   1.326 -0.1193 -0.5101  0.0533
 1775PEP     CB67312  10.159  12.182   1.191 -0.4950  0.0543  0.1824
 1775PEP     CB67313  10.209  11.762   1.099 -0.0409  0.0376 -0.1213
 1775PEP     CB67314   9.945  11.456   0.855 -0.0684  0.1796 -0.0165
 1775PEP     CB67315   9.740  11.215   0.492 -0.0337  0.2700  0.1413
 1775PEP     CB67316   9.507  11.195   0.059 -0.0722  0.1108 -0.2356
 1775PEP     CB67317   9.503  11.056  -0.347  0.1716  0.3948 -0.4877
 1775PEP     CB67318   9.446  11.129  -0.816 -0.4330  0.0539  0.2049
 1775PEP     CB67319   9.128  11.043  -1.104  0.0205 -0.3815  0.1591
 1775PEP     CB67320   8.749  11.059  -1.124  0.1058  0.0203 -0.0028
 1776PEP     CB67321   0.631  12.415   5.635 -0.2770  0.1065  0.1306
 1776PEP     CB67322   0.962  12.582   5.724 -0.0597 -0.0529  0.1350
 1776PEP     CB67323   1.295  12.822   5.650 -0.1037  0.1902  0.3092
 1776PEP     CB67324   1.559  13.228   5.611  0.2861  0.2177  0.0907
 1776PEP     CB67325   1.748  13.620   5.838  0.2031 -0.2083  0.2709
 1776PEP     CB67326   1.575  14.020   6.052  0.1555  0.0407  0.4164
 1776PEP     CB67327   1.444  14.273   6.448 -0.0043 -0.0625  0.1161
 1776PEP     CB67328   1.085  14.396   6.742 -0.0826 -0.2107  0.0170
 1776PEP     CB67329   0.798  14.306   7.056  0.0198  0.0989 -0.0647
 1776PEP     CB67330   0.404  14.334   7.131 -0.0845 -0.2171 -0.4248
 1776PEP     CB67331   0.141  14.378   7.449 -0.3513 -0.0214  0.1031
 1776PEP     CB67332   0.123  14.098   7.804 -0.3903 -0.1354  0.0968
 1776PEP     CB67333   0.029  13.732   7.905  0.3741 -0.0134 -0.1274
 1776PEP     CB67334   0.116  13.328   7.762 -0.0188  0.1563  0.4084
 1776PEP     CB67335   0.060  13.027   7.467  0.1709  0.0750 -0.2207
 1776PEP     CB67336   0.122  12.600   7.334  0.4680  0.0716  0.0283
 1776PEP     CB67337   0.345  12.231   7.463 -0.0643  0.0522 -0.0863
 1776PEP     CB67338   0.368  11.862   7.496 -0.0620  0.2850  0.0266
 1776PEP     CB67339   0.253  11.544   7.854 -0.5174  0.0252  0.2763
 1776PEP     CB67340   0.298  11.548   8.221 -0.0914 -0.1221 -0.0611
 1776PEP     CB67341   0.226  11.911   8.540 -0.2581 -0.2596 -0.1632
 1776PEP     CB67342  -0.030  12.284   8.406  0.2579  0.0410 -0.0049
 1776PEP     CB67343  -0.373  12.346   8.099  0.0746  0.3547  0.3944
 1776PEP     CB67344  -0.889  12.335   7.831 -0.1411 -0.4036 -0.1837
 1776PEP     CB67345  -1.197  12.208   7.515 -0.0846  0.0767  0.0667
 1776PEP     CB67346  -1.599  12.078   7.433 -0.0478 -0.0180  0.3106
 1776PEP     CB67347  -2.094  11.966   7.254 -0.2537  0.4206  0.3651
 1776PEP     CB67348  -2.382  11.801   6.985 -0.0829  0.0506  0.2934
 1776PEP     CB67349  -2.468  12.062   6.641  0.0072  0.1087  0.5760
 1776PEP     CB67350  -2.130  12.358   6.475  0.1128 -0.1222  0.2641
 1776PEP     CB67351  -1.740  12.269   6.320 -0.1395 -0.2689  0.2040
 1776PEP     CB67352  -1.411  12.058   6.500 -0.0576 -0.0520 -0.2406
 1776PEP     CB67353  -1.442  12.046   6.936  0.0452 -0.3587 -0.5101
 1776PEP     CB67354  -1.507  12.508   7.147 -0.0306  0.3114 -0.1433
 1776PEP     CB67355  -1.500  12.848   6.859  0.1111  0.1685  0.1506
 1776PEP     CB67356  -1.422  12.667   6.511 -0.0192 -0.1137  0.0044
 1776PEP     CB67357  -1.425  12.549   6.118 -0.3326  0.0070 -0.4630
 1776PEP     CB67358  -1.731  12.340   5.823 -0.0383 -0.1028  0.2510
 1776PEP     CB67359  -2.001  12.035   5.887 -0.1749  0.2488  0.2438
 1776PEP     CB67360  -1.958  11.575   5.955 -0.5662 -0.1933  0.0703
 1777PEP     CB67361  19.093   6.156   7.308  0.0856  0.0703  0.0649
 1777PEP     CB67362  19.504   6.200   7.492  0.0246  0.3673  0.0978
 1777PEP     CB67363  19.846   6.141   7.675  0.2128  0.1044  0.0484
 1777PEP     CB67364  20.145   5.923   7.876 -0.0755 -0.1700  0.0629
 1777PEP     CB67365  20.202   5.459   8.044  0.0997  0.3707 -0.3171
 1777PEP     CB67366  20.369   5.081   8.068  0.1039  0.1734  0.3480
 1777PEP     CB67367  20.216   4.652   8.036 -0.1703 -0.3263  0.0549
 1777PEP     CB67368  19.808   4.495   8.144  0.1064  0.2346  0.2736
 1777PEP     CB67369  19.492   4.690   8.419 -0.1042  0.3000 -0.3977
 1777PEP     CB67370  19.244   5.068   8.510 -0.0849  0.1119 -0.0605
 1777PEP     CB67371  18.941   5.479   8.585 -0.0639 -0.2236  0.0355
 1777PEP     CB67372  18.608   5.712   8.642 -0.1061 -0.2364  0.0181
 1777PEP     CB67373  18.458   6.077   8.786  0.2051 -0.1521 -0.6543
 1777PEP     CB67374  18.445   6.443   9.082  0.1413 -0.2986 -0.0326
 1777PEP     CB67375  18.324   6.822   9.390  0.1749 -0.1533 -0.0745
 1777PEP     CB67376  18.392   7.319   9.491  0.2251 -0.0989 -0.1140
 1777PEP     CB67377  18.210   7.748   9.407 -0.0152  0.1131  0.2878
 1777PEP     CB67378  18.087   8.239   9.564 -0.2642 -0.1699  0.1219
 1777PEP     CB67379  18.071   8.549   9.869 -0.2020  0.2240 -0.0502
 1777PEP     CB67380  18.228   8.925  10.022  0.0437 -0.3689  0.3448
 1777PEP     CB67381  18.558   9.327   9.873 -0.1552  0.2760  0.1047
 1777PEP     CB67382  18.592   9.763   9.764  0.2822 -0.4665  0.0765
 1777PEP     CB67383  18.549  10.171   9.520 -0.1870  0.0353  0.1100
 1777PEP     CB67384  18.608  10.598   9.474 -0.3406  0.0769 -0.1914
 1777PEP     CB67385  18.809  11.000   9.469 -0.0280 -0.1562  0.0897
 1777PEP     CB67386  18.874  11.413   9.371  0.1390  0.2521  0.0241
 1777PEP     CB67387  18.897  11.838   9.400 -0.2041  0.0423  0.0102
 1777PEP     CB67388  18.974  12.196   9.666 -0.2964 -0.4064  0.4347
 1777PEP     CB67389  18.680  12.528   9.823  0.4690  0.1360  0.1997
 1777PEP     CB67390  18.306  12.602   9.601  0.3247 -0.4619 -0.0580
 1777PEP     CB67391  18.100  12.390   9.346 -0.1599  0.4797  0.1515
 1777PEP     CB67392  18.019  11.880   9.344  0.1395  0.1353  0.1195
 1777PEP     CB67393  17.614  11.582   9.484 -0.0707  0.1699  0.1189
 1777PEP     CB67394  17.239  11.464   9.771 -0.4379  0.0238  0.0971
 1777PEP     CB67395  16.889  11.552   9.833  0.2758 -0.3358  0.1698
 1777PEP     CB67396  16.454  11.525   9.766 -0.1322 -0.1122 -0.2694
 1777PEP     CB67397  15.963  11.549   9.610 -0.0324  0.1286 -0.1002
 1777PEP     CB67398  15.606  11.364   9.462  0.0630  0.2320  0.2157
 1777PEP     CB67399  15.301  11.022   9.293  0.0284 -0.4211 -0.3760
 1777PEP     CB67400  15.130  10.684   9.078 -0.0636 -0.1297  0.0660
 1778PEP     CB67401  19.900  17.516  13.159 -0.1406  0.0625 -0.1280
 1778PEP     CB67402  19.779  17.724  12.683  0.7643  0.3929  0.1143
 1778PEP     CB67403  19.840  17.735  12.315 -0.1231 -0.3073 -0.0456
 1778PEP     CB67404  19.954  17.427  12.001  0.2157 -0.2112  0.1958
 1778PEP     CB67405  19.777  17.040  11.851 -0.1932 -0.0670 -0.0517
 1778PEP     CB67406  19.835  16.565  12.003 -0.2876 -0.0335 -0.2402
 1778PEP     CB67407  20.186  16.427  11.891  0.0739  0.1858  0.1085
 1778PEP     CB67408  20.394  16.727  11.998  0.0556  0.2373 -0.4523
 1778PEP     CB67409  20.261  17.066  12.177  0.3191 -0.1767 -0.1098
 1778PEP     CB67410  20.267  17.458  12.388 -0.1083 -0.0094  0.0055
 1778PEP     CB67411  20.319  17.667  12.785 -0.1823  0.0911 -0.3577
 1778PEP     CB67412  20.414  17.981  13.096  0.0403  0.1673 -0.3559
 1778PEP     CB67413  20.210  18.208  13.366  0.1749  0.0060  0.1356
 1778PEP     CB67414  20.063  18.546  13.672  0.3142  0.0074 -0.1277
 1778PEP     CB67415  19.925  18.821  13.920 -0.3092  0.0563  0.0558
 1778PEP     CB67416  19.671  18.821  14.292 -0.0474 -0.1145  0.0694
 1778PEP     CB67417  19.314  18.537  14.438 -0.3022 -0.1125  0.1013
 1778PEP     CB67418  19.252  18.107  14.242 -0.0777  0.3975  0.1835
 1778PEP     CB67419  19.040  17.747  14.237 -0.0023 -0.2709  0.1094
 1778PEP     CB67420  18.615  17.613  14.344  0.1650  0.0950 -0.2228
 1778PEP     CB67421  18.238  17.477  14.231  0.1225  0.0719 -0.2139
 1778PEP     CB67422  18.094  17.132  13.904  0.0427  0.3459  0.2813
 1778PEP     CB67423  18.227  16.705  13.741  0.0977 -0.1949 -0.0667
 1778PEP     CB67424  18.284  16.165  13.970 -0.0513  0.2607 -0.0890
 1778PEP     CB67425  18.092  15.823  13.800 -0.2637 -0.0154 -0.1551
 1778PEP     CB67426  17.705  15.843  13.471 -0.0421  0.1466  0.3308
 1778PEP     CB67427  17.784  15.929  12.970  0.2753 -0.0788 -0.1959
 1778PEP     CB67428  18.071  15.714  12.713 -0.0320 -0.1438 -0.1301
 1778PEP     CB67429  18.226  15.396  12.446 -0.2183  0.0022 -0.3666
 1778PEP     CB67430  18.215  15.219  12.036 -0.0645  0.0422 -0.1074
 1778PEP     CB67431  18.280  15.125  11.583  0.0986 -0.0720 -0.0697
 1778PEP     CB67432  18.268  14.898  11.167  0.0436  0.1240 -0.1407
 1778PEP     CB67433  18.267  14.670  10.754 -0.0022  0.1617 -0.2384
 1778PEP     CB67434  18.575  14.561  10.551  0.0964  0.1304  0.0080
 1778PEP     CB67435  18.660  14.174  10.245  0.1310  0.0773  0.0674
 1778PEP     CB67436  18.417  13.781  10.289 -0.2973 -0.1814 -0.2572
 1778PEP     CB67437  18.363  13.628  10.647  0.1867  0.6158 -0.1204
 1778PEP     CB67438  18.061  13.642  10.986  0.1750  0.2530  0.1091
 1778PEP     CB67439  17.798  13.923  11.161  0.0547 -0.0676  0.0516
 1778PEP     CB67440  17.403  14.068  11.202  0.2331 -0.0499 -0.3237
 1779PEP     CB67441   4.390  13.487  21.024 -0.2301 -0.1606 -0.1253
 1779PEP     CB67442   4.540  13.310  21.458  0.1737 -0.1669  0.0037
 1779PEP     CB67443   4.451  13.096  21.819 -0.2400  0.2269 -0.2581
 1779PEP     CB67444   3.981  13.067  21.932 -0.2136 -0.2064 -0.0985
 1779PEP     CB67445   3.662  13.261  21.685  0.1680  0.5727  0.0141
 1779PEP     CB67446   3.719  13.603  21.399  0.0543 -0.2215  0.0244
 1779PEP     CB67447   4.060  13.907  21.506 -0.2076 -0.0523  0.5987
 1779PEP     CB67448   4.002  14.351  21.789 -0.2012  0.2495 -0.0398
 1779PEP     CB67449   3.895  14.397  22.104 -0.0056  0.1101  0.4583
 1779PEP     CB67450   4.131  14.225  22.451 -0.4154  0.2711  0.0188
 1779PEP     CB67451   4.382  13.891  22.621  0.0523  0.0038  0.0449
 1779PEP     CB67452   4.624  13.532  22.839  0.1483  0.2240  0.2342
 1779PEP     CB67453   4.806  13.092  22.677 -0.2076 -0.1261 -0.0308
 1779PEP     CB67454   5.163  12.900  22.408 -0.1461 -0.0433 -0.0799
 1779PEP     CB67455   5.354  12.705  22.139  0.0756  0.4699  0.0989
 1779PEP     CB67456   5.771  12.504  22.076  0.0383  0.0256  0.1039
 1779PEP     CB67457   6.179  12.365  22.130  0.5885 -0.2334  0.1737
 1779PEP     CB67458   6.405  11.910  21.901  0.1821  0.0223  0.1337
 1779PEP     CB67459   6.215  11.622  21.695 -0.1925  0.0300  0.1994
 1779PEP     CB67460   6.270  11.149  21.706  0.1602  0.0538 -0.0432
 1779PEP     CB67461   6.369  10.715  21.747 -0.0539 -0.2294 -0.3360
 1779PEP     CB67462   6.430  10.427  22.078 -0.2124 -0.2371 -0.8022
 1779PEP     CB67463   6.795  10.221  22.194 -0.0773 -0.4132 -0.0368
 1779PEP     CB67464   7.120   9.932  22.065  0.0402  0.7457  0.1208
 1779PEP     CB67465   7.098   9.851  21.606  0.0555  0.1584 -0.0424
 1779PEP     CB67466   6.941  10.100  21.305 -0.1722 -0.1289 -0.0642
 1779PEP     CB67467   6.543  10.293  21.222  0.0433 -0.0325 -0.1458
 1779PEP     CB67468   6.370  10.520  20.941  0.1675  0.0892 -0.0408
 1779PEP     CB67469   6.303  10.578  20.474 -0.1635  0.2531 -0.1098
 1779PEP     CB67470   6.451  10.563  20.059  0.5755  0.3056 -0.0799
 1779PEP     CB67471   6.852  10.455  19.863 -0.1951 -0.1841  0.1338
 1779PEP     CB67472   7.149  10.477  20.182  0.2310 -0.3359 -0.0752
 1779PEP     CB67473   7.653  10.440  20.271  0.1654  0.1661  0.0776
 1779PEP     CB67474   8.145  10.329  20.222 -0.3657 -0.0851 -0.1867
 1779PEP     CB67475   8.491  10.363  20.130 -0.2754 -0.2949  0.2205
 1779PEP     CB67476   8.753  10.577  19.764  0.2330 -0.0214 -0.0602
 1779PEP     CB67477   8.937  10.482  19.393 -0.3761  0.2072  0.1301
 1779PEP     CB67478   9.264  10.271  19.277 -0.0005 -0.2321 -0.0389
 1779PEP     CB67479   9.543   9.972  19.530 -0.5059  0.0143  0.2242
 1779PEP     CB67480   9.889   9.770  19.514 -0.1022  0.0400 -0.2053
 1780PEP     CB67481   6.554  21.380  12.627  0.2332  0.4592  0.0502
 1780PEP     CB67482   6.450  21.642  13.062 -0.1675  0.1231  0.2717
 1780PEP     CB67483   6.233  21.880  13.265  0.1487 -0.1637 -0.0452
 1780PEP     CB67484   6.103  21.895  13.605 -0.1476  0.2580 -0.1115
 1780PEP     CB67485   5.935  21.655  13.988  0.1965  0.1234 -0.1289
 1780PEP     CB67486   5.863  21.408  14.401  0.3703  0.1419 -0.2178
 1780PEP     CB67487   5.514  21.146  14.637  0.4984 -0.0556 -0.2302
 1780PEP     CB67488   5.123  20.954  14.704  0.4564  0.0012  0.1111
 1780PEP     CB67489   4.693  20.747  14.576  0.0337 -0.0711  0.3637
 1780PEP     CB67490   4.338  20.782  14.299 -0.4253 -0.3134 -0.2534
 1780PEP     CB67491   4.133  20.798  13.961 -0.2079 -0.0350  0.4459
 1780PEP     CB67492   4.248  20.610  13.503  0.0069 -0.0827  0.4524
 1780PEP     CB67493   4.425  20.527  13.125 -0.1537 -0.2718 -0.1851
 1780PEP     CB67494   4.745  20.361  12.878  0.0864 -0.0264 -0.3667
 1780PEP     CB67495   5.053  20.179  12.668 -0.3088  0.3402 -0.1935
 1780PEP     CB67496   5.339  19.936  12.820 -0.1371 -0.4099 -0.2275
 1780PEP     CB67497   5.318  19.701  13.153 -0.2070  0.0599 -0.1523
 1780PEP     CB67498   4.976  19.621  13.558  0.6222 -0.0677  0.2039
 1780PEP     CB67499   4.772  19.249  13.817 -0.1838  0.2687 -0.0863
 1780PEP     CB67500   4.836  18.900  13.967 -0.2431 -0.0546  0.0903
 1780PEP     CB67501   4.795  18.739  14.369 -0.0852  0.2862 -0.2664
 1780PEP     CB67502   4.944  18.560  14.821 -0.5943 -0.1734  0.0413
 1780PEP     CB67503   5.275  18.465  15.198 -0.1560 -0.0240  0.1673
 1780PEP     CB67504   5.630  18.751  15.396 -0.3712  0.0700  0.3047
 1780PEP     CB67505   5.994  18.734  15.223 -0.1295  0.4917  0.0160
 1780PEP     CB67506   6.203  18.641  14.795 -0.1960 -0.1878  0.1150
 1780PEP     CB67507   6.262  18.867  14.404 -0.1420  0.2793 -0.2224
 1780PEP     CB67508   6.287  19.200  14.292  0.0619 -0.1034  0.2307
 1780PEP     CB67509   6.399  19.654  14.209 -0.0861 -0.2056 -0.1367
 1780PEP     CB67510   6.595  20.017  14.454  0.5480  0.0400 -0.1613
 1780PEP     CB67511   6.884  20.350  14.340 -0.0450  0.2347 -0.2774
 1780PEP     CB67512   7.166  20.643  14.504 -0.0517 -0.1418  0.4766
 1780PEP     CB67513   7.330  21.053  14.441  0.2385  0.1706  0.1086
 1780PEP     CB67514   7.212  21.388  14.273 -0.3881 -0.3508 -0.1278
 1780PEP     CB67515   6.909  21.765  14.309 -0.0064 -0.3270 -0.0698
 1780PEP     CB67516   6.949  22.139  14.235  0.1569  0.3680  0.1480
 1780PEP     CB67517   7.273  22.273  14.011  0.0788 -0.1218  0.1409
 1780PEP     CB67518   7.643  22.117  13.854  0.1864 -0.3976 -0.1039
 1780PEP     CB67519   8.011  22.025  13.791 -0.0438  0.1376  0.1346
 1780PEP     CB67520   8.394  21.790  13.934 -0.2567  0.2924 -0.2557
 1781PEP     CB67521   3.726   0.627  12.461 -0.2242 -0.2824 -0.2631
 1781PEP     CB67522   3.666   1.123  12.385  0.3343 -0.0993 -0.1433
 1781PEP     CB67523   3.923   1.479  12.315 -0.0285  0.1027  0.4875
 1781PEP     CB67524   4.313   1.464  12.179 -0.1566 -0.1209 -0.3357
 1781PEP     CB67525   4.474   1.523  11.814  0.1304 -0.2058 -0.0151
 1781PEP     CB67526   4.764   1.453  11.534 -0.5019 -0.4211  0.0284
 1781PEP     CB67527   5.162   1.419  11.310  0.3497 -0.0638  0.2342
 1781PEP     CB67528   5.490   1.318  11.074  0.2628  0.4290  0.1282
 1781PEP     CB67529   5.914   1.261  10.833 -0.1326  0.4277 -0.2094
 1781PEP     CB67530   6.020   1.317  10.405  0.0794 -0.0739 -0.3031
 1781PEP     CB67531   5.735   1.470  10.099 -0.0841  0.1386 -0.1724
 1781PEP     CB67532   5.312   1.461  10.089 -0.2216  0.1185  0.2695
 1781PEP     CB67533   4.943   1.327  10.336  0.0638 -0.2096 -0.0653
 1781PEP     CB67534   4.992   1.233  10.803  0.3638 -0.3078  0.0762
 1781PEP     CB67535   4.978   0.950  11.215  0.4248  0.2041 -0.2962
 1781PEP     CB67536   4.734   0.730  11.562  0.0688  0.0704 -0.0264
 1781PEP     CB67537   4.302   0.496  11.614  0.2646  0.3615  0.0276
 1781PEP     CB67538   3.941   0.400  11.682 -0.0527 -0.1332 -0.1067
 1781PEP     CB67539   3.560   0.587  11.935  0.0428  0.0995 -0.3078
 1781PEP     CB67540   3.311   0.766  12.310  0.0876  0.1427  0.0882
 1781PEP     CB67541   3.368   0.875  12.745 -0.1640  0.1230 -0.0904
 1781PEP     CB67542   3.321   1.178  13.193  0.0999  0.1849  0.6422
 1781PEP     CB67543   3.143   1.455  13.537  0.0422 -0.2234  0.1700
 1781PEP     CB67544   3.097   1.786  13.699 -0.0278 -0.3559  0.2177
 1781PEP     CB67545   3.416   2.120  13.722  0.0852  0.0734  0.3689
 1781PEP     CB67546   3.644   2.356  13.409 -0.0680  0.0015 -0.0104
 1781PEP     CB67547   3.806   2.269  12.956 -0.3436  0.0697 -0.0100
 1781PEP     CB67548   4.013   1.910  12.831 -0.0763  0.4201 -0.0362
 1781PEP     CB67549   4.146   1.665  13.202 -0.0700  0.1521  0.4928
 1781PEP     CB67550   3.996   1.828  13.629 -0.2153  0.2962  0.0576
 1781PEP     CB67551   3.622   1.666  13.827  0.1383 -0.0633  0.1456
 1781PEP     CB67552   3.380   1.359  13.907 -0.1979 -0.0033  0.1533
 1781PEP     CB67553   3.046   1.140  14.015  0.0676 -0.0891 -0.2252
 1781PEP     CB67554   2.823   0.787  14.195  0.0323  0.0356 -0.2612
 1781PEP     CB67555   2.911   0.520  14.518 -0.2621  0.0420  0.1159
 1781PEP     CB67556   2.990   0.238  14.901 -0.5253  0.1919 -0.2774
 1781PEP     CB67557   2.959  -0.271  14.987  0.0204  0.0859  0.4854
 1781PEP     CB67558   3.172  -0.750  14.949  0.3225 -0.0430 -0.3003
 1781PEP     CB67559   3.068  -1.192  14.957  0.0948 -0.5214  0.1255
 1781PEP     CB67560   3.011  -1.690  14.963  0.1984  0.4124 -0.4158
 1782PEP     CB67561  16.537   2.683  15.245  0.1574  0.2048 -0.1712
 1782PEP     CB67562  16.777   3.075  15.101  0.0738 -0.1680 -0.0026
 1782PEP     CB67563  16.545   3.378  14.894 -0.0052 -0.2091 -0.1257
 1782PEP     CB67564  16.164   3.585  15.062  0.2644 -0.3470 -0.2645
 1782PEP     CB67565  15.975   3.431  15.420  0.3403 -0.0729 -0.1418
 1782PEP     CB67566  16.103   3.009  15.603  0.0871 -0.4891  0.0871
 1782PEP     CB67567  16.081   2.577  15.633 -0.2191 -0.0614 -0.2700
 1782PEP     CB67568  15.956   2.145  15.738 -0.1817  0.4631 -0.1470
 1782PEP     CB67569  15.878   1.688  15.551 -0.0500 -0.1825  0.3118
 1782PEP     CB67570  15.649   1.420  15.289  0.0269 -0.0663 -0.0738
 1782PEP     CB67571  15.337   1.471  14.994  0.1824  0.0223  0.3060
 1782PEP     CB67572  15.208   1.338  14.591  0.1011 -0.3880 -0.0036
 1782PEP     CB67573  15.061   1.326  14.166  0.0133 -0.3281 -0.0588
 1782PEP     CB67574  14.987   1.322  13.758  0.0311  0.0235  0.2708
 1782PEP     CB67575  15.296   1.383  13.382 -0.0563  0.3682  0.1134
 1782PEP     CB67576  15.679   1.490  13.168  0.2936  0.4189 -0.0428
 1782PEP     CB67577  15.985   1.204  12.958  0.0161 -0.2768  0.1983
 1782PEP     CB67578  16.169   0.837  13.041  0.4264  0.0042 -0.3564
 1782PEP     CB67579  16.606   0.851  13.213 -0.1865 -0.0078 -0.2053
 1782PEP     CB67580  16.810   1.092  13.104  0.0446 -0.0187  0.0713
 1782PEP     CB67581  17.224   1.219  12.891 -0.0106 -0.1980 -0.0821
 1782PEP     CB67582  17.551   0.962  12.775 -0.0089 -0.2221  0.5336
 1782PEP     CB67583  17.582   0.552  12.702 -0.2609 -0.0179 -0.2510
 1782PEP     CB67584  17.813   0.096  12.456  0.0794  0.0239 -0.2667
 1782PEP     CB67585  17.986  -0.268  12.262  0.0050  0.0038  0.2208
 1782PEP     CB67586  18.020  -0.452  11.873  0.2851  0.2277  0.2927
 1782PEP     CB67587  18.080  -0.492  11.355 -0.2035 -0.5045  0.0091
 1782PEP     CB67588  18.353  -0.433  10.927  0.1425  0.1680 -0.2920
 1782PEP     CB67589  18.478  -0.822  10.700  0.2839  0.2124 -0.3147
 1782PEP     CB67590  18.335  -1.268  10.856 -0.2027 -0.1799  0.1935
 1782PEP     CB67591  17.995  -1.423  11.141 -0.2093 -0.3431  0.1474
 1782PEP     CB67592  17.905  -1.097  11.446  0.2313 -0.0460 -0.0832
 1782PEP     CB67593  18.171  -0.911  11.684 -0.2200  0.3903  0.4247
 1782PEP     CB67594  18.682  -0.866  11.580  0.1306  0.1477 -0.0112
 1782PEP     CB67595  18.838  -0.912  11.115 -0.0372  0.0662  0.0762
 1782PEP     CB67596  18.857  -1.208  10.805  0.0018 -0.1102  0.0394
 1782PEP     CB67597  18.641  -1.328  10.399  0.1842  0.0728 -0.4116
 1782PEP     CB67598  18.359  -1.079  10.105  0.1808  0.2733  0.0553
 1782PEP     CB67599  18.377  -0.717  10.021 -0.0414  0.4014 -0.1529
 1782PEP     CB67600  18.763  -0.424  10.018 -0.0141  0.4994 -0.1867
 1783PEP     CB67601  14.488  16.330  21.127  0.2308 -0.0456 -0.3288
 1783PEP     CB67602  14.578  16.401  21.484 -0.6603 -0.2613 -0.3328
 1783PEP     CB67603  14.430  16.136  21.776  0.1784  0.0647 -0.2393
 1783PEP     CB67604  14.165  15.742  22.022  0.1353  0.0153  0.1431
 1783PEP     CB67605  14.153  15.346  21.984  0.1454  0.1770  0.1443
 1783PEP     CB67606  14.313  15.004  22.224  0.0035 -0.0807  0.3104
 1783PEP     CB67607  14.694  15.037  22.482 -0.1383  0.2900 -0.0085
 1783PEP     CB67608  14.918  15.433  22.748  0.0536 -0.1206 -0.1481
 1783PEP     CB67609  15.327  15.550  22.734 -0.0145 -0.1624  0.3392
 1783PEP     CB67610  15.664  15.329  22.946  0.2477  0.0701  0.0827
 1783PEP     CB67611  15.536  14.978  23.313 -0.1741  0.1934 -0.5479
 1783PEP     CB67612  15.083  15.014  23.522  0.1870  0.1302  0.3883
 1783PEP     CB67613  14.866  15.358  23.716  0.0568  0.7323  0.6018
 1783PEP     CB67614  14.479  15.460  23.980  0.4720 -0.4970 -0.0203
 1783PEP     CB67615  14.122  15.593  23.772  0.2430  0.5227 -0.2175
 1783PEP     CB67616  13.752  15.810  23.787  0.0774 -0.0602 -0.1009
 1783PEP     CB67617  13.454  16.104  23.817 -0.2061  0.2642 -0.1459
 1783PEP     CB67618  13.233  16.375  24.054 -0.1069 -0.1425  0.1801
 1783PEP     CB67619  12.854  16.421  24.161 -0.0918  0.0895 -0.6291
 1783PEP     CB67620  12.524  16.128  24.332  0.1458 -0.1227  0.0413
 1783PEP     CB67621  12.610  15.774  24.446  0.1310  0.1791 -0.1670
 1783PEP     CB67622  12.820  15.477  24.315 -0.0556 -0.0890  0.0213
 1783PEP     CB67623  13.282  15.386  24.369  0.0170  0.2904 -0.1542
 1783PEP     CB67624  13.487  15.499  24.666  0.0921  0.1514 -0.5941
 1783PEP     CB67625  13.271  15.793  24.984  0.0747  0.0756 -0.1109
 1783PEP     CB67626  12.943  16.082  24.773  0.2832 -0.2585 -0.5105
 1783PEP     CB67627  13.087  15.992  24.309 -0.6332 -0.5347 -0.1823
 1783PEP     CB67628  13.532  15.839  24.225  0.1926 -0.3162  0.1172
 1783PEP     CB67629  13.962  15.678  24.336  0.0666 -0.0061  0.0485
 1783PEP     CB67630  14.082  15.396  24.582  0.2620 -0.2569 -0.0750
 1783PEP     CB67631  13.833  15.241  24.923 -0.0222  0.2524  0.0326
 1783PEP     CB67632  13.349  15.192  25.085  0.1894 -0.1085 -0.0113
 1783PEP     CB67633  12.901  15.199  25.189 -0.1277  0.0125  0.0912
 1783PEP     CB67634  12.526  15.361  25.387 -0.2717 -0.0646  0.2490
 1783PEP     CB67635  12.187  15.401  25.753  0.3283  0.2200  0.2312
 1783PEP     CB67636  11.803  15.397  25.992 -0.1964 -0.0521 -0.0292
 1783PEP     CB67637  11.414  15.336  26.038  0.0739  0.3075  0.1682
 1783PEP     CB67638  11.003  15.385  26.074 -0.2538  0.1332  0.2524
 1783PEP     CB67639  10.714  15.053  26.167  0.6504  0.5214  0.1225
 1783PEP     CB67640  10.736  14.651  26.069 -0.0473  0.1860  0.1255
 1784PEP     CB67641  13.783  21.056   5.180  0.2747 -0.1412  0.2374
 1784PEP     CB67642  13.546  21.340   4.954 -0.2139 -0.2758 -0.1904
 1784PEP     CB67643  13.121  21.491   5.009 -0.4328 -0.3885 -0.3276
 1784PEP     CB67644  12.968  21.675   5.367 -0.1600  0.0254  0.0886
 1784PEP     CB67645  12.806  22.107   5.482 -0.3433  0.1654  0.1390
 1784PEP     CB67646  12.889  22.441   5.246 -0.1715 -0.0869 -0.1087
 1784PEP     CB67647  13.272  22.656   5.111 -0.4849  0.0786 -0.1457
 1784PEP     CB67648  13.644  22.759   5.324 -0.2529  0.0996  0.0646
 1784PEP     CB67649  14.042  23.001   5.228 -0.3750 -0.1605  0.2987
 1784PEP     CB67650  14.452  23.263   5.107 -0.1406 -0.2003  0.3816
 1784PEP     CB67651  14.617  23.716   4.875 -0.0040  0.1443  0.3120
 1784PEP     CB67652  14.986  23.794   4.697 -0.0762 -0.0648  0.1658
 1784PEP     CB67653  15.355  23.589   4.795  0.2798  0.0980 -0.2967
 1784PEP     CB67654  15.711  23.616   5.046 -0.2800 -0.0145 -0.3768
 1784PEP     CB67655  15.952  23.746   5.338 -0.0750  0.2206 -0.2043
 1784PEP     CB67656  16.134  24.139   5.530 -0.0688  0.0836  0.1632
 1784PEP     CB67657  16.612  24.261   5.575 -0.0062  0.1111 -0.0441
 1784PEP     CB67658  16.893  23.937   5.474 -0.2632 -0.1540  0.0895
 1784PEP     CB67659  16.821  23.511   5.390 -0.0831 -0.2119 -0.1216
 1784PEP     CB67660  16.431  23.241   5.310 -0.3865  0.0167 -0.0522
 1784PEP     CB67661  16.140  23.329   5.050 -0.0686  0.0363 -0.0943
 1784PEP     CB67662  16.149  23.392   4.603 -0.0370 -0.2723  0.1409
 1784PEP     CB67663  15.968  23.271   4.186 -0.1106 -0.2719 -0.3896
 1784PEP     CB67664  15.893  22.896   4.023  0.3629 -0.1462 -0.0958
 1784PEP     CB67665  15.752  22.839   3.569  0.2207 -0.0751  0.3882
 1784PEP     CB67666  15.864  23.171   3.229  0.0356 -0.0333 -0.0055
 1784PEP     CB67667  16.189  23.503   3.318  0.0485 -0.0273 -0.3019
 1784PEP     CB67668  16.588  23.530   3.551 -0.3154 -0.1162  0.1903
 1784PEP     CB67669  16.762  23.079   3.794 -0.1938  0.7326  0.3554
 1784PEP     CB67670  16.611  22.725   3.616  0.0776  0.2904 -0.3820
 1784PEP     CB67671  16.553  22.337   3.800 -0.0299 -0.2224 -0.2009
 1784PEP     CB67672  16.234  22.178   4.062 -0.0098  0.0925 -0.1738
 1784PEP     CB67673  16.072  22.316   4.449  0.0292 -0.1170 -0.4668
 1784PEP     CB67674  16.178  22.312   4.841  0.0956  0.1678  0.2228
 1784PEP     CB67675  16.016  22.360   5.273  0.2607 -0.0350  0.1840
 1784PEP     CB67676  15.716  22.309   5.535  0.1651 -0.2087 -0.2810
 1784PEP     CB67677  15.295  22.390   5.474 -0.0381  0.1474  0.4086
 1784PEP     CB67678  15.133  22.264   5.090  0.2116  0.0563 -0.3112
 1784PEP     CB67679  14.861  21.967   4.981  0.0262  0.0930  0.0591
 1784PEP     CB67680  14.670  21.704   4.700  0.3636 -0.0794  0.1203
 1785PEP     CB67681  18.070   9.217  21.303  0.1669 -0.0137  0.3658
 1785PEP     CB67682  17.660   9.439  21.320  0.3588  0.0238  0.2516
 1785PEP     CB67683  17.390   9.839  21.248  0.0063  0.0358 -0.1950
 1785PEP     CB67684  17.466  10.121  20.946  0.2395  0.0579  0.1084
 1785PEP     CB67685  17.624  10.261  20.710 -0.0704  0.0843  0.0754
 1785PEP     CB67686  17.951  10.458  20.490  0.4900 -0.2680  0.0760
 1785PEP     CB67687  18.160  10.861  20.493 -0.0276 -0.4367 -0.0569
 1785PEP     CB67688  18.226  11.253  20.509  0.0473  0.1658  0.3993
 1785PEP     CB67689  18.329  11.690  20.493 -0.0135  0.0389  0.3821
 1785PEP     CB67690  18.630  12.067  20.578  0.1433 -0.2782  0.2591
 1785PEP     CB67691  19.056  12.230  20.507 -0.3430  0.2473  0.1456
 1785PEP     CB67692  19.172  12.392  20.112  0.1916 -0.1809 -0.0080
 1785PEP     CB67693  18.810  12.529  19.795 -0.0202  0.2126 -0.2186
 1785PEP     CB67694  18.510  12.855  19.911  0.2460 -0.2317  0.1313
 1785PEP     CB67695  18.571  13.234  20.133 -0.1782 -0.0185 -0.0693
 1785PEP     CB67696  18.585  13.602  20.427  0.0480  0.0959 -0.3590
 1785PEP     CB67697  18.556  13.958  20.791 -0.0407  0.2387  0.2857
 1785PEP     CB67698  18.552  14.006  21.232  0.1762 -0.0814  0.0839
 1785PEP     CB67699  18.717  14.025  21.667  0.1544  0.2633 -0.0897
 1785PEP     CB67700  18.956  14.186  22.077 -0.0618 -0.0548 -0.3909
 1785PEP     CB67701  19.240  14.183  22.503  0.1844  0.2075  0.4992
 1785PEP     CB67702  19.664  14.222  22.812  0.0385  0.3620  0.2132
 1785PEP     CB67703  20.061  14.134  22.698  0.1954 -0.0418 -0.3187
 1785PEP     CB67704  20.213  13.962  22.290 -0.0717 -0.2815 -0.3401
 1785PEP     CB67705  20.071  14.061  21.856  0.5261  0.0525 -0.1214
 1785PEP     CB67706  19.726  14.326  21.796 -0.2745 -0.2112  0.1740
 1785PEP     CB67707  19.524  14.557  21.513  0.1731 -0.0607  0.0447
 1785PEP     CB67708  19.571  14.867  21.225 -0.3381 -0.0167 -0.0877
 1785PEP     CB67709  19.874  15.117  21.034  0.2858 -0.0134 -0.0690
 1785PEP     CB67710  20.271  14.958  20.991 -0.0119  0.1462 -0.1207
 1785PEP     CB67711  20.491  14.653  21.173  0.2542 -0.1518 -0.0823
 1785PEP     CB67712  20.472  14.243  21.450 -0.0100 -0.4746  0.1545
 1785PEP     CB67713  20.580  14.092  21.771 -0.0094  0.0996 -0.1476
 1785PEP     CB67714  20.665  14.124  22.194 -0.0128 -0.0819  0.1081
 1785PEP     CB67715  20.657  13.816  22.517  0.0374 -0.1035 -0.2938
 1785PEP     CB67716  20.832  13.451  22.583 -0.0043 -0.1673 -0.0506
 1785PEP     CB67717  21.164  13.280  22.314 -0.4947 -0.1606 -0.0621
 1785PEP     CB67718  21.592  13.072  22.036  0.0463 -0.1127 -0.1034
 1785PEP     CB67719  21.562  12.818  21.645 -0.1657 -0.1396 -0.2849
 1785PEP     CB67720  21.629  12.840  21.143 -0.1009  0.1533 -0.2095
 1786PEP     CB67721  10.161  10.917   0.266  0.6925 -0.0285 -0.5869
 1786PEP     CB67722   9.705  10.740   0.275  0.0937  0.5429 -0.0938
 1786PEP     CB67723   9.495  10.370   0.491 -0.2014 -0.2942  0.1884
 1786PEP     CB67724   9.543  10.167   0.921 -0.1930  0.0103  0.2885
 1786PEP     CB67725   9.409  10.241   1.317 -0.2458 -0.1518  0.0273
 1786PEP     CB67726   9.519  10.456   1.716 -0.0692  0.0784 -0.2288
 1786PEP     CB67727   9.562  10.909   1.628 -0.2508  0.0068  0.1223
 1786PEP     CB67728   9.323  11.023   1.229 -0.1783 -0.0216 -0.0304
 1786PEP     CB67729   8.988  10.878   1.127  0.2175 -0.0400  0.0032
 1786PEP     CB67730   8.963  10.411   0.910 -0.0228  0.2123 -0.0514
 1786PEP     CB67731   9.140   9.990   0.614  0.2103 -0.0671 -0.1330
 1786PEP     CB67732   9.519   9.811   0.455 -0.0400 -0.1207 -0.0689
 1786PEP     CB67733   9.958   9.633   0.537  0.0381 -0.3015  0.1669
 1786PEP     CB67734  10.094   9.213   0.768 -0.0133 -0.3485  0.2376
 1786PEP     CB67735   9.707   8.929   0.857 -0.1316  0.2630  0.1568
 1786PEP     CB67736   9.362   8.774   0.979  0.0969  0.0134 -0.1272
 1786PEP     CB67737   9.253   8.686   1.360  0.3363 -0.2670  0.0633
 1786PEP     CB67738   9.460   8.508   1.610 -0.1107 -0.0760  0.0874
 1786PEP     CB67739   9.720   8.240   1.748  0.3870  0.2640  0.3999
 1786PEP     CB67740   9.909   8.033   2.067 -0.1412 -0.1281  0.3068
 1786PEP     CB67741   9.981   7.891   2.502  0.5405  0.0555 -0.2126
 1786PEP     CB67742   9.747   7.856   2.808  0.2573 -0.0387  0.1267
 1786PEP     CB67743   9.620   8.026   3.161 -0.1308  0.1251  0.1320
 1786PEP     CB67744   9.608   7.962   3.483 -0.1979 -0.0560  0.1371
 1786PEP     CB67745   9.303   7.894   3.770  0.2296  0.1069 -0.2813
 1786PEP     CB67746   8.795   8.075   3.896 -0.0776 -0.2718  0.3446
 1786PEP     CB67747   8.504   8.076   4.268 -0.1171 -0.0039 -0.1007
 1786PEP     CB67748   8.058   7.943   4.544  0.0111  0.3695  0.0690
 1786PEP     CB67749   7.557   7.799   4.748 -0.0429  0.0796  0.1800
 1786PEP     CB67750   7.331   7.751   5.137  0.3645 -0.1532  0.1409
 1786PEP     CB67751   7.088   7.738   5.443  0.3408 -0.2559  0.3134
 1786PEP     CB67752   7.101   7.610   5.853  0.0812 -0.0249 -0.1332
 1786PEP     CB67753   7.361   7.406   6.090 -0.0809 -0.3528 -0.2102
 1786PEP     CB67754   7.531   7.261   6.461  0.0865  0.1998  0.2802
 1786PEP     CB67755   7.698   7.346   6.799  0.3310  0.1816  0.1816
 1786PEP     CB67756   7.868   7.611   7.074  0.3763  0.3862 -0.0132
 1786PEP     CB67757   7.709   8.072   7.278  0.1794 -0.0603 -0.1434
 1786PEP     CB67758   7.686   8.474   7.594  0.3315 -0.2189 -0.1183
 1786PEP     CB67759   7.447   8.851   7.674  0.5441  0.2252  0.0063
 1786PEP     CB67760   7.149   9.103   7.508  0.2244 -0.1417 -0.2347
 1787PEP     CB67761   3.851   8.010   7.039 -0.1190 -0.1381 -0.2634
 1787PEP     CB67762   3.617   7.655   7.179 -0.1980  0.1988  0.0059
 1787PEP     CB67763   3.207   7.417   7.271  0.1803  0.0214  0.1145
 1787PEP     CB67764   2.888   7.159   7.539  0.2087 -0.0173 -0.1360
 1787PEP     CB67765   2.849   7.085   7.982 -0.0563  0.1037 -0.2791
 1787PEP     CB67766   2.819   7.222   8.478  0.5483 -0.4148  0.1187
 1787PEP     CB67767   2.709   7.661   8.743 -0.0194  0.1429 -0.0479
 1787PEP     CB67768   2.477   7.953   9.094 -0.0163  0.2575  0.3203
 1787PEP     CB67769   2.638   7.985   9.542 -0.1788 -0.0816  0.2074
 1787PEP     CB67770   2.559   7.956   9.999 -0.3740  0.0837  0.1083
 1787PEP     CB67771   2.287   7.740  10.172  0.3651 -0.0106  0.2574
 1787PEP     CB67772   2.345   7.524  10.589 -0.4428 -0.3402  0.5945
 1787PEP     CB67773   2.507   7.357  10.965 -0.0924 -0.4276  0.1336
 1787PEP     CB67774   2.558   7.581  11.289 -0.0099  0.3280 -0.1002
 1787PEP     CB67775   2.392   7.960  11.375  0.1952 -0.0762 -0.5029
 1787PEP     CB67776   2.348   8.348  11.174 -0.1441 -0.3593 -0.0732
 1787PEP     CB67777   2.544   8.474  10.761  0.4108 -0.2163 -0.1338
 1787PEP     CB67778   2.579   8.798  10.505  0.0776 -0.2711 -0.0922
 1787PEP     CB67779   2.446   8.994  10.080 -0.1813 -0.1462 -0.0223
 1787PEP     CB67780   2.386   8.991   9.715 -0.0528  0.0383 -0.0842
 1787PEP     CB67781   2.529   8.764   9.282 -0.1801 -0.5461  0.0711
 1787PEP     CB67782   2.754   8.393   9.208 -0.2483  0.2825  0.5168
 1787PEP     CB67783   2.918   8.138   8.999  0.2449  0.4249  0.1091
 1787PEP     CB67784   3.155   7.784   8.916  0.0366 -0.0361  0.1713
 1787PEP     CB67785   3.218   7.574   8.568  0.0766 -0.0758 -0.4970
 1787PEP     CB67786   3.293   7.310   8.105 -0.1023 -0.1924  0.1006
 1787PEP     CB67787   3.601   7.185   7.665 -0.0797  0.0785  0.2298
 1787PEP     CB67788   3.416   6.928   7.229 -0.2747 -0.1699 -0.0698
 1787PEP     CB67789   3.147   7.085   6.918  0.2356  0.2737  0.2550
 1787PEP     CB67790   3.176   7.499   6.769 -0.4388  0.3454 -0.0424
 1787PEP     CB67791   3.623   7.623   6.702 -0.1671  0.4454 -0.2259
 1787PEP     CB67792   4.000   7.387   6.531  0.0660  0.1695  0.1388
 1787PEP     CB67793   4.027   7.048   6.275  0.0340  0.2235 -0.1425
 1787PEP     CB67794   3.593   6.931   6.061 -0.1720 -0.3562  0.0251
 1787PEP     CB67795   3.186   6.854   6.095  0.1671 -0.2673  0.1487
 1787PEP     CB67796   2.804   7.150   5.977  0.2007  0.3491  0.1170
 1787PEP     CB67797   2.634   7.601   5.680 -0.0899  0.0136  0.3145
 1787PEP     CB67798   2.898   7.985   5.672  0.1538  0.0723  0.0690
 1787PEP     CB67799   3.178   8.099   6.012  0.1145  0.3174  0.1562
 1787PEP     CB67800   3.296   7.810   6.336  0.1063 -0.0763 -0.1305
 1788PEP     CB67801  12.089  18.262  21.165  0.1229  0.1150  0.0202
 1788PEP     CB67802  12.104  18.081  20.775  0.1881  0.3487  0.1094
 1788PEP     CB67803  12.165  17.687  20.484 -0.0677  0.3606  0.1995
 1788PEP     CB67804  12.114  17.360  20.288 -0.0547  0.0552  0.0141
 1788PEP     CB67805  11.822  17.107  20.369 -0.0624  0.1722 -0.0519
 1788PEP     CB67806  11.456  16.942  20.460  0.2026  0.0939  0.1268
 1788PEP     CB67807  11.231  16.485  20.624 -0.5307  0.0986 -0.0609
 1788PEP     CB67808  11.026  16.039  20.603 -0.2752  0.0107  0.2037
 1788PEP     CB67809  10.899  15.626  20.436  0.1869 -0.1783 -0.1593
 1788PEP     CB67810  10.623  15.358  20.368 -0.1543  0.2318 -0.1379
 1788PEP     CB67811  10.330  15.169  20.628  0.3770 -0.2211 -0.1986
 1788PEP     CB67812   9.996  15.445  20.821 -0.2267 -0.2175  0.1016
 1788PEP     CB67813  10.107  15.881  20.867  0.0064  0.0998  0.1771
 1788PEP     CB67814  10.184  16.335  21.069 -0.0030  0.3100 -0.3277
 1788PEP     CB67815  10.307  16.588  21.487  0.0325  0.1009  0.0862
 1788PEP     CB67816  10.448  16.927  21.777 -0.2053  0.2306 -0.2752
 1788PEP     CB67817  10.362  17.310  21.922  0.2861  0.3184  0.0850
 1788PEP     CB67818   9.881  17.491  21.935 -0.1250 -0.3334 -0.2882
 1788PEP     CB67819   9.623  17.840  21.805 -0.1371 -0.1238  0.0039
 1788PEP     CB67820   9.540  18.104  21.448  0.1785 -0.1365 -0.0721
 1788PEP     CB67821   9.651  18.176  20.996 -0.1918  0.2031  0.0068
 1788PEP     CB67822   9.902  17.932  20.661 -0.1286 -0.0540  0.2172
 1788PEP     CB67823   9.930  17.671  20.385  0.0324  0.0326 -0.3492
 1788PEP     CB67824   9.897  17.151  20.221 -0.0973  0.2457  0.5208
 1788PEP     CB67825   9.960  16.698  20.460  0.2593  0.2581  0.0836
 1788PEP     CB67826  10.196  16.356  20.525  0.0256 -0.0035 -0.1051
 1788PEP     CB67827  10.379  16.081  20.193  0.1076  0.0625 -0.1878
 1788PEP     CB67828  10.526  16.041  19.722 -0.0357  0.1196 -0.2600
 1788PEP     CB67829  10.257  16.157  19.352  0.0279 -0.4210 -0.0991
 1788PEP     CB67830   9.892  16.284  19.289 -0.2489 -0.0610 -0.1783
 1788PEP     CB67831   9.601  16.258  19.146  0.2457 -0.0351 -0.0793
 1788PEP     CB67832   9.140  16.497  19.125  0.3157 -0.1681 -0.2788
 1788PEP     CB67833   8.988  16.844  19.245 -0.0256 -0.0164 -0.0488
 1788PEP     CB67834   8.715  17.195  19.072  0.0517 -0.1578  0.1111
 1788PEP     CB67835   8.836  17.581  18.854 -0.2313 -0.0487  0.0193
 1788PEP     CB67836   8.974  18.061  18.732  0.1684  0.0128  0.0179
 1788PEP     CB67837   9.427  18.257  18.882 -0.0532 -0.1562 -0.1496
 1788PEP     CB67838   9.766  18.113  19.055  0.2452  0.3126  0.2660
 1788PEP     CB67839  10.057  17.714  19.097 -0.0667 -0.1494 -0.0389
 1788PEP     CB67840  10.084  17.211  18.919 -0.1874 -0.0814  0.0224
 1789PEP     CB67841  11.014  10.283   5.559 -0.1779 -0.1028  0.0773
 1789PEP     CB67842  10.926  10.319   5.064 -0.1827 -0.2399 -0.1863
 1789PEP     CB67843  10.967  10.690   4.742  0.2152 -0.1615  0.0128
 1789PEP     CB67844  11.189  10.791   4.467  0.0221  0.3356  0.1356
 1789PEP     CB67845  11.255  10.632   4.004  0.0648  0.0649  0.0612
 1789PEP     CB67846  10.966  10.461   3.702 -0.5293 -0.1396  0.1373
 1789PEP     CB67847  10.531  10.536   3.462  0.0476 -0.3117 -0.1051
 1789PEP     CB67848  10.172  10.866   3.537  0.0161  0.1240 -0.1061
 1789PEP     CB67849   9.948  11.149   3.794 -0.1030 -0.1842 -0.1800
 1789PEP     CB67850   9.886  11.466   4.139 -0.3782 -0.2728 -0.0818
 1789PEP     CB67851   9.594  11.749   4.255 -0.0362 -0.0095 -0.3136
 1789PEP     CB67852   9.215  11.998   4.461 -0.2234  0.1082 -0.2367
 1789PEP     CB67853   9.106  12.260   4.897 -0.3294  0.0355 -0.2010
 1789PEP     CB67854   9.109  12.680   5.042 -0.2642 -0.0273 -0.3635
 1789PEP     CB67855   9.335  13.093   4.828  0.0271 -0.4718  0.2371
 1789PEP     CB67856   9.253  13.358   4.563  0.0736  0.2689  0.2453
 1789PEP     CB67857   9.140  13.746   4.286  0.2284  0.0072  0.3023
 1789PEP     CB67858   8.933  13.996   3.929  0.2482 -0.2591 -0.1266
 1789PEP     CB67859   8.956  14.222   3.560 -0.4547  0.2422 -0.1469
 1789PEP     CB67860   9.200  14.316   3.250 -0.2350  0.4708  0.2431
 1789PEP     CB67861   9.527  14.713   3.211  0.2759 -0.1350  0.0215
 1789PEP     CB67862   9.308  15.117   3.199 -0.2731  0.3500 -0.3967
 1789PEP     CB67863   8.984  15.349   3.396  0.0617 -0.2023  0.0434
 1789PEP     CB67864   8.570  15.583   3.304  0.2826 -0.1770 -0.1576
 1789PEP     CB67865   8.247  15.583   2.985 -0.0909 -0.1522 -0.2427
 1789PEP     CB67866   8.025  15.370   2.676  0.2875 -0.0852  0.2287
 1789PEP     CB67867   7.783  15.015   2.524 -0.1126 -0.2756 -0.0426
 1789PEP     CB67868   7.888  14.591   2.426 -0.0025 -0.1269 -0.4939
 1789PEP     CB67869   8.098  14.366   2.271  0.0361 -0.2127 -0.3627
 1789PEP     CB67870   8.189  13.964   2.114  0.0569 -0.0388 -0.4602
 1789PEP     CB67871   8.310  13.483   2.213  0.5432 -0.3559  0.2608
 1789PEP     CB67872   8.302  12.989   2.122  0.1627  0.0087  0.1239
 1789PEP     CB67873   8.189  12.629   2.174 -0.0590  0.1036 -0.3552
 1789PEP     CB67874   8.096  12.359   2.619  0.5506  0.0580 -0.2638
 1789PEP     CB67875   8.153  12.424   3.095  0.2277  0.1216 -0.3789
 1789PEP     CB67876   8.495  12.408   3.268  0.2234 -0.0092  0.0662
 1789PEP     CB67877   8.839  12.067   3.202 -0.1139  0.1911 -0.3045
 1789PEP     CB67878   9.268  11.857   3.173 -0.0862  0.3071  0.0325
 1789PEP     CB67879   9.578  12.022   2.907  0.1577  0.2992  0.3280
 1789PEP     CB67880   9.515  12.073   2.536  0.0704  0.1125 -0.3212
 1790PEP     CB67881  19.241  13.658  18.716 -0.0598 -0.1127  0.2575
 1790PEP     CB67882  18.817  13.529  18.690 -0.0788 -0.0782 -0.2318
 1790PEP     CB67883  18.380  13.291  18.674  0.1453 -0.0241  0.1967
 1790PEP     CB67884  18.104  13.213  18.973  0.2387  0.2344  0.0227
 1790PEP     CB67885  18.016  13.488  19.395 -0.0881 -0.0105  0.3430
 1790PEP     CB67886  17.771  13.776  19.623  0.1828 -0.3902 -0.1122
 1790PEP     CB67887  17.610  13.995  19.975  0.0160 -0.1458  0.1202
 1790PEP     CB67888  17.671  14.268  20.305  0.0233  0.0224  0.2804
 1790PEP     CB67889  17.855  14.524  20.586  0.0977 -0.0144  0.2409
 1790PEP     CB67890  17.917  14.705  20.850 -0.0367  0.0881  0.0359
 1790PEP     CB67891  18.049  15.020  21.216 -0.3465  0.1531 -0.0823
 1790PEP     CB67892  18.229  15.364  21.473  0.3963 -0.1762  0.0326
 1790PEP     CB67893  18.146  15.841  21.665 -0.0279  0.3648 -0.1325
 1790PEP     CB67894  18.237  16.248  21.849  0.1801 -0.1584 -0.1317
 1790PEP     CB67895  17.958  16.570  21.859  0.0352  0.2019 -0.1315
 1790PEP     CB67896  17.706  16.719  21.464 -0.1069  0.9050 -0.0819
 1790PEP     CB67897  17.916  16.702  21.030 -0.2342  0.0853  0.3100
 1790PEP     CB67898  18.312  16.752  20.752  0.1767 -0.1677 -0.1970
 1790PEP     CB67899  18.540  16.324  20.697 -0.1518  0.1753 -0.1981
 1790PEP     CB67900  18.478  15.841  20.759  0.1394 -0.0463  0.3524
 1790PEP     CB67901  18.478  15.517  21.087 -0.2492 -0.1810  0.3258
 1790PEP     CB67902  18.568  15.662  21.495  0.3144 -0.1410 -0.0826
 1790PEP     CB67903  18.797  16.039  21.613  0.0623  0.2116 -0.2245
 1790PEP     CB67904  18.614  16.441  21.628 -0.1548 -0.1119  0.0716
 1790PEP     CB67905  18.514  16.664  21.928 -0.2369 -0.0387  0.0395
 1790PEP     CB67906  18.326  16.788  22.260  0.1277  0.0966  0.2801
 1790PEP     CB67907  18.262  16.731  22.701 -0.0134 -0.1257  0.2068
 1790PEP     CB67908  18.447  16.569  23.088  0.1870 -0.3551  0.2753
 1790PEP     CB67909  18.891  16.451  23.184  0.1163  0.0990  0.0473
 1790PEP     CB67910  19.201  16.550  22.845 -0.0576 -0.1234 -0.3966
 1790PEP     CB67911  19.493  16.885  22.739  0.0219 -0.0088 -0.3581
 1790PEP     CB67912  19.843  17.210  22.724 -0.0688  0.2267  0.0466
 1790PEP     CB67913  20.108  17.471  22.418 -0.1239  0.3250 -0.1646
 1790PEP     CB67914  20.125  17.558  22.081  0.1287 -0.1398  0.1388
 1790PEP     CB67915  19.995  17.408  21.720  0.0083 -0.3988  0.0186
 1790PEP     CB67916  19.962  17.560  21.286  0.0675  0.2095 -0.0123
 1790PEP     CB67917  20.149  17.695  20.856  0.1566 -0.0856 -0.2617
 1790PEP     CB67918  20.422  17.421  20.520 -0.2821  0.4054  0.1081
 1790PEP     CB67919  20.467  16.941  20.500  0.0424 -0.1354  0.0287
 1790PEP     CB67920  20.170  16.635  20.556  0.1094 -0.2832  0.0952
 1791PEP     CB67921  19.272   2.099   3.122  0.1577  0.1172  0.0111
 1791PEP     CB67922  19.035   1.713   3.295  0.2638 -0.0254 -0.1069
 1791PEP     CB67923  18.654   1.589   3.501 -0.0540 -0.2431 -0.1754
 1791PEP     CB67924  18.277   1.636   3.515  0.1015 -0.3520 -0.0095
 1791PEP     CB67925  17.839   1.858   3.575 -0.0090 -0.1934  0.2456
 1791PEP     CB67926  17.448   1.898   3.763  0.1365  0.2329 -0.1558
 1791PEP     CB67927  17.168   1.469   3.683  0.2102  0.0530 -0.1451
 1791PEP     CB67928  17.095   1.231   3.216 -0.2502 -0.2729 -0.0802
 1791PEP     CB67929  17.319   1.256   2.829 -0.2595  0.0644 -0.1027
 1791PEP     CB67930  17.796   1.335   2.691 -0.1241 -0.1109  0.0418
 1791PEP     CB67931  18.195   1.270   2.447 -0.1229  0.2168  0.1134
 1791PEP     CB67932  18.361   0.944   2.450 -0.0433  0.2821 -0.1201
 1791PEP     CB67933  18.207   0.435   2.426  0.0201  0.0265 -0.2148
 1791PEP     CB67934  18.407  -0.070   2.331  0.0063  0.0286  0.2696
 1791PEP     CB67935  18.827  -0.086   2.279  0.0162  0.1461 -0.3805
 1791PEP     CB67936  19.176   0.227   2.321 -0.4345  0.2502  0.1506
 1791PEP     CB67937  19.497   0.504   2.259  0.1577  0.0397  0.1412
 1791PEP     CB67938  19.833   0.662   2.043 -0.0792  0.0092  0.0065
 1791PEP     CB67939  20.018   0.981   1.770 -0.2455 -0.2203  0.0160
 1791PEP     CB67940  20.207   1.087   1.295  0.0033 -0.0546 -0.0793
 1791PEP     CB67941  20.281   1.401   0.875 -0.1991  0.0946  0.0411
 1791PEP     CB67942  20.021   1.359   0.498  0.1395  0.2374 -0.2071
 1791PEP     CB67943  19.576   1.196   0.511  0.1777  0.0293 -0.3044
 1791PEP     CB67944  19.283   0.849   0.344  0.2022  0.0307 -0.3595
 1791PEP     CB67945  18.886   0.628   0.426  0.1172  0.1632 -0.0886
 1791PEP     CB67946  18.611   0.333   0.556 -0.3310 -0.0743 -0.1272
 1791PEP     CB67947  18.465   0.035   0.862 -0.0859  0.0831  0.4561
 1791PEP     CB67948  18.316  -0.396   1.048 -0.0993  0.1339  0.4472
 1791PEP     CB67949  18.318  -0.579   1.467 -0.0520 -0.0340  0.2999
 1791PEP     CB67950  18.560  -0.324   1.831 -0.2712 -0.2776 -0.4621
 1791PEP     CB67951  18.937  -0.009   1.823 -0.0315  0.2934  0.3208
 1791PEP     CB67952  19.189   0.395   1.784  0.0263  0.0584  0.1039
 1791PEP     CB67953  18.943   0.725   1.895  0.0898  0.2347  0.3059
 1791PEP     CB67954  18.757   0.822   2.188  0.1796 -0.4613  0.2077
 1791PEP     CB67955  18.780   0.928   2.643  0.1055  0.3048  0.0954
 1791PEP     CB67956  18.590   0.897   3.004 -0.2091 -0.2881 -0.0726
 1791PEP     CB67957  18.295   0.663   3.284 -0.2546 -0.1942 -0.2933
 1791PEP     CB67958  18.006   0.662   3.496 -0.0162 -0.0216  0.1764
 1791PEP     CB67959  17.661   0.784   3.463  0.3156  0.0653 -0.3062
 1791PEP     CB67960  17.543   0.960   3.125 -0.2001 -0.1688 -0.0184
 1792PEP     CB67961  20.628  13.978   8.728 -0.4864 -0.1824  0.3116
 1792PEP     CB67962  20.294  13.917   8.493 -0.0162 -0.1116  0.0718
 1792PEP     CB67963  19.972  13.996   8.158  0.2124  0.4126 -0.1815
 1792PEP     CB67964  19.452  14.016   8.262 -0.0049 -0.2850 -0.0898
 1792PEP     CB67965  19.332  14.170   8.597 -0.1639 -0.0190 -0.3239
 1792PEP     CB67966  19.439  14.235   8.970 -0.3818  0.1786 -0.1296
 1792PEP     CB67967  19.711  14.101   9.357 -0.0695 -0.0378  0.2689
 1792PEP     CB67968  19.956  13.981   9.707  0.0986  0.1250 -0.0672
 1792PEP     CB67969  19.997  13.938  10.203  0.5174  0.2469 -0.2533
 1792PEP     CB67970  20.100  13.828  10.673 -0.0146  0.0078  0.0100
 1792PEP     CB67971  20.412  13.846  10.963  0.0926 -0.0682  0.0365
 1792PEP     CB67972  20.821  13.918  10.922 -0.3259  0.1343 -0.0003
 1792PEP     CB67973  21.161  13.668  10.875  0.4364  0.2413  0.3169
 1792PEP     CB67974  21.300  13.268  11.112 -0.3932  0.2447 -0.0917
 1792PEP     CB67975  21.436  12.909  11.283  0.0042 -0.1401 -0.0353
 1792PEP     CB67976  21.807  12.711  11.604 -0.3691  0.0074 -0.0773
 1792PEP     CB67977  21.950  12.662  12.002  0.1433 -0.2242  0.1088
 1792PEP     CB67978  21.972  12.512  12.458  0.1820  0.2616  0.0085
 1792PEP     CB67979  21.705  12.570  12.810  0.2323  0.3997 -0.3400
 1792PEP     CB67980  21.465  12.543  13.242  0.1623 -0.2006  0.1706
 1792PEP     CB67981  21.173  12.419  13.686  0.0940 -0.0394 -0.1599
 1792PEP     CB67982  20.954  12.617  13.988 -0.0587 -0.2072 -0.0037
 1792PEP     CB67983  20.952  12.868  14.357  0.1930 -0.4963  0.0795
 1792PEP     CB67984  20.846  12.765  14.739 -0.0205 -0.0467 -0.7232
 1792PEP     CB67985  20.514  12.792  14.961  0.1444 -0.2841 -0.0457
 1792PEP     CB67986  20.185  12.718  15.184 -0.1519 -0.0782  0.1453
 1792PEP     CB67987  19.701  12.757  15.108  0.1313 -0.0136 -0.3163
 1792PEP     CB67988  19.354  12.621  14.830  0.4367  0.1408 -0.2693
 1792PEP     CB67989  19.167  12.218  14.847  0.4247  0.1160 -0.3886
 1792PEP     CB67990  19.018  12.078  15.244  0.0593  0.3158 -0.0805
 1792PEP     CB67991  18.947  12.388  15.522  0.0547  0.0942 -0.2552
 1792PEP     CB67992  18.793  12.801  15.528  0.0032 -0.0239  0.0561
 1792PEP     CB67993  18.414  12.939  15.270  0.3548  0.0223 -0.0630
 1792PEP     CB67994  18.287  12.701  14.891  0.3454 -0.0804 -0.3351
 1792PEP     CB67995  18.266  12.349  14.623 -0.1335 -0.1688  0.2124
 1792PEP     CB67996  18.353  12.002  14.406  0.1375  0.1321  0.1029
 1792PEP     CB67997  18.137  11.529  14.263 -0.0606  0.2194  0.4851
 1792PEP     CB67998  18.278  11.044  14.295 -0.4927 -0.0355  0.0523
 1792PEP     CB67999  18.591  10.887  14.566 -0.1638 -0.0215  0.1665
 1792PEP     CB68000  18.626  11.038  14.950 -0.1273 -0.0816  0.3890
 1793PEP     CB68001  20.705  16.636  19.828  0.1658 -0.2001 -0.0656
 1793PEP     CB68002  20.309  16.510  20.092 -0.1396 -0.4617 -0.4707
 1793PEP     CB68003  19.837  16.602  20.204 -0.1979 -0.1940  0.0307
 1793PEP     CB68004  19.483  16.874  20.370  0.0320  0.1367  0.2645
 1793PEP     CB68005  19.062  17.045  20.354 -0.2048 -0.1676 -0.2592
 1793PEP     CB68006  18.964  17.391  20.524  0.4605  0.3915 -0.1995
 1793PEP     CB68007  19.143  17.576  20.789 -0.1768 -0.1731 -0.5114
 1793PEP     CB68008  19.508  17.409  21.000  0.0313 -0.2887  0.0921
 1793PEP     CB68009  19.615  17.141  21.356 -0.1993  0.3097  0.3157
 1793PEP     CB68010  19.957  16.881  21.519  0.2332 -0.3113  0.1167
 1793PEP     CB68011  20.388  16.977  21.786  0.1366 -0.3855 -0.0669
 1793PEP     CB68012  20.579  17.228  22.141 -0.1376  0.2831  0.2484
 1793PEP     CB68013  20.607  17.331  22.549  0.0538 -0.1239  0.0620
 1793PEP     CB68014  20.993  17.414  22.724 -0.1144  0.0076 -0.2365
 1793PEP     CB68015  21.306  17.708  22.631 -0.2047  0.1982  0.0170
 1793PEP     CB68016  21.708  17.788  22.642 -0.0665 -0.2486  0.1691
 1793PEP     CB68017  22.112  17.729  22.731 -0.3196  0.2855  0.1977
 1793PEP     CB68018  22.514  17.535  22.667  0.1041  0.0236  0.2689
 1793PEP     CB68019  22.971  17.491  22.794 -0.0055 -0.0426  0.1120
 1793PEP     CB68020  23.385  17.303  22.883 -0.1313  0.3636  0.2853
 1793PEP     CB68021  23.778  17.320  23.076  0.5365 -0.1577 -0.0332
 1793PEP     CB68022  24.201  17.445  22.999 -0.0299 -0.1057  0.0385
 1793PEP     CB68023  24.520  17.321  22.693  0.0763 -0.2116 -0.1224
 1793PEP     CB68024  24.440  17.196  22.279 -0.0348  0.0005  0.4017
 1793PEP     CB68025  24.020  17.120  22.093  0.0094 -0.0461 -0.3653
 1793PEP     CB68026  23.735  16.847  22.354 -0.2755  0.1304 -0.4992
 1793PEP     CB68027  23.476  16.863  22.689 -0.2161 -0.1326  0.2315
 1793PEP     CB68028  23.066  16.892  22.838 -0.1139  0.0079 -0.0098
 1793PEP     CB68029  22.714  17.163  22.985  0.0839 -0.2883  0.0535
 1793PEP     CB68030  22.239  17.354  23.090 -0.0668 -0.1188  0.0550
 1793PEP     CB68031  22.123  17.652  23.382  0.0513 -0.1235 -0.1400
 1793PEP     CB68032  21.911  17.917  23.653 -0.0798 -0.2748  0.4514
 1793PEP     CB68033  21.724  17.878  24.006 -0.3647  0.0364 -0.1081
 1793PEP     CB68034  21.557  17.816  24.403 -0.3482  0.4042  0.2086
 1793PEP     CB68035  21.616  17.888  24.833  0.4439  0.0670  0.1782
 1793PEP     CB68036  21.590  18.261  25.164 -0.1270  0.0181 -0.3727
 1793PEP     CB68037  21.601  18.687  25.299 -0.1470  0.0560 -0.1355
 1793PEP     CB68038  21.556  19.014  25.456  0.0407  0.0180 -0.2503
 1793PEP     CB68039  21.195  19.184  25.707  0.1009  0.4109 -0.1970
 1793PEP     CB68040  20.863  19.353  25.660 -0.1903 -0.0028 -0.1747
 1794PEP     CB68041   4.871  19.135  20.512  0.2298 -0.0241 -0.3876
 1794PEP     CB68042   5.125  19.172  20.146 -0.5891 -0.2650 -0.2837
 1794PEP     CB68043   5.545  19.163  20.118  0.2090 -0.2446  0.1925
 1794PEP     CB68044   5.807  19.423  20.231 -0.0106 -0.0178 -0.5341
 1794PEP     CB68045   5.956  19.777  20.148  0.2665 -0.1995  0.0441
 1794PEP     CB68046   6.319  20.170  20.074 -0.0121 -0.0637  0.2027
 1794PEP     CB68047   6.675  20.005  19.979  0.0457 -0.3655  0.0202
 1794PEP     CB68048   6.691  19.522  20.048 -0.0821 -0.1458 -0.0287
 1794PEP     CB68049   6.281  19.352  20.094 -0.0464 -0.0578 -0.0215
 1794PEP     CB68050   5.965  19.150  19.842 -0.3533 -0.2170 -0.0800
 1794PEP     CB68051   5.985  18.782  19.453  0.0666 -0.4803 -0.2512
 1794PEP     CB68052   6.149  18.387  19.389  0.1037  0.2353 -0.1125
 1794PEP     CB68053   6.150  17.942  19.674 -0.1297  0.0251 -0.0875
 1794PEP     CB68054   5.951  17.834  20.065 -0.4143  0.0346  0.1885
 1794PEP     CB68055   5.672  18.106  20.324  0.2790 -0.0336  0.0473
 1794PEP     CB68056   5.464  18.353  20.255  0.1852  0.2820  0.0823
 1794PEP     CB68057   5.464  18.620  19.942 -0.1450 -0.2097  0.0931
 1794PEP     CB68058   5.448  18.624  19.507 -0.0332  0.1539 -0.1620
 1794PEP     CB68059   5.116  18.465  19.250  0.0813  0.0584 -0.0087
 1794PEP     CB68060   4.637  18.421  19.251 -0.0266 -0.0474  0.1819
 1794PEP     CB68061   4.248  18.596  19.423 -0.2762 -0.2567  0.3912
 1794PEP     CB68062   3.944  18.628  19.695 -0.1683  0.2333  0.2258
 1794PEP     CB68063   3.500  18.690  19.793 -0.0083 -0.0623 -0.0607
 1794PEP     CB68064   3.048  18.612  19.776  0.0184 -0.0932 -0.5549
 1794PEP     CB68065   2.624  18.630  19.681  0.4520  0.2237 -0.3714
 1794PEP     CB68066   2.304  18.375  19.457  0.0657  0.0525  0.0054
 1794PEP     CB68067   2.186  18.335  19.066  0.0297 -0.3301 -0.0338
 1794PEP     CB68068   2.096  18.072  18.684  0.3036  0.1376  0.0323
 1794PEP     CB68069   1.777  17.897  18.354 -0.0524 -0.2171 -0.0904
 1794PEP     CB68070   1.675  17.557  18.056 -0.2923 -0.0660 -0.1793
 1794PEP     CB68071   1.378  17.408  17.852  0.2895 -0.1146  0.0352
 1794PEP     CB68072   0.822  17.425  17.856  0.0419  0.1967  0.2674
 1794PEP     CB68073   0.421  17.404  17.986  0.2420 -0.2954  0.3158
 1794PEP     CB68074   0.090  17.407  18.301 -0.0721 -0.0285  0.1594
 1794PEP     CB68075   0.096  17.148  18.699 -0.4295  0.3366  0.2231
 1794PEP     CB68076   0.202  16.876  19.057 -0.1276 -0.1894 -0.1036
 1794PEP     CB68077   0.166  17.036  19.412 -0.2392  0.2275 -0.1910
 1794PEP     CB68078   0.342  17.206  19.766  0.1489  0.1423  0.1014
 1794PEP     CB68079   0.677  17.210  20.058  0.0261 -0.1076  0.3896
 1794PEP     CB68080   1.007  16.964  20.248  0.2163  0.0263 -0.1606
 1795PEP     CB68081  12.790  21.007  13.647  0.0569  0.4385  0.0570
 1795PEP     CB68082  12.768  20.945  14.115 -0.1301  0.2658 -0.0248
 1795PEP     CB68083  12.837  20.659  14.468  0.1846  0.2476  0.0897
 1795PEP     CB68084  12.917  20.357  14.758 -0.6436 -0.1205  0.2418
 1795PEP     CB68085  13.332  20.232  14.790  0.3877 -0.0016 -0.1224
 1795PEP     CB68086  13.727  20.369  14.860  0.1291 -0.1063 -0.0166
 1795PEP     CB68087  14.128  20.496  14.974  0.2182  0.1901  0.2065
 1795PEP     CB68088  14.596  20.739  15.023 -0.1120 -0.1762  0.1295
 1795PEP     CB68089  14.866  21.059  14.853 -0.0196 -0.1485  0.5144
 1795PEP     CB68090  15.099  21.424  14.826  0.2254  0.0036 -0.0115
 1795PEP     CB68091  15.110  21.924  14.852  0.1650 -0.3481  0.1601
 1795PEP     CB68092  14.890  22.252  15.009 -0.0493  0.1065  0.0367
 1795PEP     CB68093  14.614  22.501  15.299  0.0107 -0.2318 -0.0740
 1795PEP     CB68094  14.241  22.777  15.498 -0.1360 -0.1217  0.3191
 1795PEP     CB68095  13.750  22.661  15.500 -0.1824 -0.2556  0.0638
 1795PEP     CB68096  13.357  22.570  15.561  0.1012 -0.3474  0.0565
 1795PEP     CB68097  12.909  22.578  15.475 -0.1302  0.0513  0.0013
 1795PEP     CB68098  12.758  22.505  15.100  0.3315  0.0799 -0.7210
 1795PEP     CB68099  12.466  22.494  14.714 -0.1328 -0.2409 -0.1535
 1795PEP     CB68100  12.169  22.221  14.665  0.1149 -0.1208  0.3092
 1795PEP     CB68101  11.854  21.819  14.877  0.1423 -0.1435  0.0246
 1795PEP     CB68102  11.524  21.674  14.845 -0.0313  0.0739 -0.0462
 1795PEP     CB68103  11.124  21.617  14.552 -0.0003 -0.2541  0.0538
 1795PEP     CB68104  11.011  21.416  14.229 -0.0222  0.1694  0.0623
 1795PEP     CB68105  10.733  21.573  13.890 -0.0255 -0.3597  0.2039
 1795PEP     CB68106  10.375  21.908  13.732  0.2694 -0.6129  0.4328
 1795PEP     CB68107  10.037  21.921  13.460  0.1822 -0.0104  0.1470
 1795PEP     CB68108   9.704  21.951  13.171  0.3258  0.0227  0.3030
 1795PEP     CB68109   9.355  22.191  12.980  0.6311 -0.0128  0.0896
 1795PEP     CB68110   9.221  22.622  12.939 -0.4894  0.4862 -0.3046
 1795PEP     CB68111   9.095  22.972  13.058 -0.3915 -0.2089 -0.0306
 1795PEP     CB68112   8.659  23.081  12.983  0.1584  0.1576  0.3126
 1795PEP     CB68113   8.276  22.851  12.851  0.2478 -0.0411 -0.1558
 1795PEP     CB68114   7.916  22.483  12.732 -0.2394  0.0417  0.2417
 1795PEP     CB68115   7.847  22.055  12.919  0.1965  0.0077  0.2458
 1795PEP     CB68116   7.829  21.723  13.209 -0.1705 -0.3765  0.4016
 1795PEP     CB68117   7.629  21.652  13.593  0.0398 -0.1019  0.0381
 1795PEP     CB68118   7.603  21.655  14.089 -0.0384  0.1444 -0.4346
 1795PEP     CB68119   7.703  22.059  14.339 -0.0052  0.0292  0.0477
 1795PEP     CB68120   7.904  22.256  14.728  0.2990 -0.0518 -0.2464
 1796PEP     CB68121  19.855   8.871   7.633  0.5220 -0.4695  0.1725
 1796PEP     CB68122  19.488   8.847   7.586 -0.0502  0.0953 -0.0449
 1796PEP     CB68123  19.043   9.008   7.361  0.5668  0.1303 -0.3971
 1796PEP     CB68124  18.752   9.291   7.107 -0.0448 -0.0784  0.1859
 1796PEP     CB68125  18.372   9.611   6.973 -0.0070 -0.3646 -0.0906
 1796PEP     CB68126  17.955   9.746   7.267 -0.2788  0.3014 -0.0338
 1796PEP     CB68127  17.583   9.968   7.218  0.0778 -0.1146 -0.2295
 1796PEP     CB68128  17.252  10.176   7.371  0.0859  0.4604 -0.1463
 1796PEP     CB68129  16.881  10.373   7.549 -0.0172  0.0812  0.0183
 1796PEP     CB68130  16.915  10.704   7.826 -0.1746  0.0578 -0.1534
 1796PEP     CB68131  17.095  11.021   8.042 -0.3742 -0.2898  0.0392
 1796PEP     CB68132  17.349  11.364   8.042  0.1334  0.2228 -0.4593
 1796PEP     CB68133  17.766  11.585   8.037 -0.1493 -0.4494  0.1974
 1796PEP     CB68134  18.032  11.847   7.728  0.3057 -0.0886 -0.1308
 1796PEP     CB68135  17.883  12.228   7.485 -0.4459 -0.4358  0.1196
 1796PEP     CB68136  17.525  12.545   7.653  0.2929  0.2533 -0.2060
 1796PEP     CB68137  17.161  12.424   7.995 -0.3497  0.2226 -0.2684
 1796PEP     CB68138  17.001  12.003   8.075 -0.3046 -0.1779 -0.0507
 1796PEP     CB68139  16.962  11.674   8.351 -0.4142  0.3957  0.0579
 1796PEP     CB68140  16.817  11.286   8.524  0.1861  0.0372  0.0043
 1796PEP     CB68141  16.726  10.884   8.606  0.3966  0.2399  0.3062
 1796PEP     CB68142  16.691  10.534   8.762  0.0533  0.0551 -0.3047
 1796PEP     CB68143  16.636   9.999   8.804  0.3655 -0.2809  0.1273
 1796PEP     CB68144  16.586   9.676   9.098 -0.1071  0.0989 -0.3238
 1796PEP     CB68145  16.456   9.468   9.508 -0.0483  0.2857  0.3299
 1796PEP     CB68146  16.755   9.221   9.712 -0.0232 -0.2416  0.0558
 1796PEP     CB68147  17.162   9.153   9.572  0.1007 -0.2355 -0.2297
 1796PEP     CB68148  17.570   9.294   9.478 -0.0546  0.0730 -0.1044
 1796PEP     CB68149  17.791   9.581   9.233  0.2465  0.0111  0.2208
 1796PEP     CB68150  18.152  10.001   9.313 -0.1329 -0.3386  0.2146
 1796PEP     CB68151  18.076  10.395   9.583 -0.1152  0.3412 -0.0677
 1796PEP     CB68152  17.913  10.551   9.938 -0.3663  0.1232 -0.4528
 1796PEP     CB68153  17.967  11.010  10.067  0.0068 -0.2097  0.5258
 1796PEP     CB68154  18.394  11.272  10.186 -0.1406 -0.2894  0.1785
 1796PEP     CB68155  18.752  11.046  10.192  0.1785  0.0337  0.3376
 1796PEP     CB68156  18.817  10.610  10.305 -0.0552 -0.1256 -0.3568
 1796PEP     CB68157  19.163  10.269  10.386  0.2264 -0.3329 -0.1223
 1796PEP     CB68158  19.350  10.013  10.722  0.4267  0.2710  0.0285
 1796PEP     CB68159  19.697   9.816  10.874  0.4066  0.1961 -0.1380
 1796PEP     CB68160  19.829   9.374  11.000 -0.1641 -0.0375  0.3944
 1797PEP     CB68161   2.484  15.936   3.314 -0.0917 -0.0587 -0.1439
 1797PEP     CB68162   2.824  15.897   3.561  0.0711  0.0549 -0.0286
 1797PEP     CB68163   3.226  15.735   3.524  0.0114 -0.2074  0.0272
 1797PEP     CB68164   3.698  15.937   3.514  0.0064  0.1969 -0.3693
 1797PEP     CB68165   3.986  16.195   3.425 -0.0142 -0.0523 -0.3706
 1797PEP     CB68166   4.100  16.720   3.326  0.0627 -0.1069  0.0352
 1797PEP     CB68167   4.108  17.099   3.551 -0.4917 -0.0807  0.4140
 1797PEP     CB68168   4.034  17.539   3.591 -0.1007  0.1151 -0.2639
 1797PEP     CB68169   3.950  17.831   3.870  0.2038 -0.1798  0.1824
 1797PEP     CB68170   3.923  17.701   4.305 -0.1653 -0.2162 -0.2981
 1797PEP     CB68171   4.191  17.399   4.336  0.0297  0.1886 -0.1533
 1797PEP     CB68172   4.425  17.251   4.013  0.0084 -0.2879  0.5636
 1797PEP     CB68173   4.479  16.846   3.831 -0.3392 -0.1078  0.2153
 1797PEP     CB68174   4.517  16.445   3.608 -0.4079  0.1091 -0.1635
 1797PEP     CB68175   4.438  16.174   3.219 -0.3588  0.1078 -0.1024
 1797PEP     CB68176   4.124  16.332   2.981  0.1534 -0.5735 -0.2921
 1797PEP     CB68177   3.741  16.538   3.001  0.1085  0.1570 -0.0635
 1797PEP     CB68178   3.320  16.637   3.134  0.2016  0.0580 -0.4507
 1797PEP     CB68179   2.879  16.724   3.287  0.1321 -0.2368 -0.7112
 1797PEP     CB68180   2.380  16.657   3.354  0.0674  0.1338  0.1691
 1797PEP     CB68181   2.025  16.422   3.486  0.0523 -0.0155  0.3758
 1797PEP     CB68182   1.576  16.541   3.489  0.0447 -0.0315  0.1383
 1797PEP     CB68183   1.286  16.871   3.523  0.2510 -0.0446  0.1343
 1797PEP     CB68184   1.093  17.059   3.949 -0.3497 -0.3330 -0.1831
 1797PEP     CB68185   1.406  17.051   4.302 -0.0961  0.1939  0.2381
 1797PEP     CB68186   1.741  17.148   4.643 -0.2189 -0.0770 -0.2772
 1797PEP     CB68187   2.132  17.316   4.884 -0.3346  0.0519 -0.0997
 1797PEP     CB68188   2.461  17.579   5.109  0.1621  0.1417  0.3239
 1797PEP     CB68189   2.818  17.718   5.338 -0.3999  0.4948 -0.2316
 1797PEP     CB68190   3.237  17.796   5.395 -0.3049 -0.0199 -0.0448
 1797PEP     CB68191   3.619  17.813   5.253 -0.0344 -0.0017 -0.0264
 1797PEP     CB68192   3.958  17.746   4.891 -0.1120  0.0580 -0.0407
 1797PEP     CB68193   4.340  17.942   4.657  0.4001  0.0637  0.1976
 1797PEP     CB68194   4.565  18.104   4.395 -0.1500  0.3244 -0.0423
 1797PEP     CB68195   4.869  18.113   4.105 -0.1346 -0.0186 -0.0487
 1797PEP     CB68196   5.231  18.031   4.075  0.2155 -0.0222 -0.1027
 1797PEP     CB68197   5.589  17.885   4.209 -0.4422 -0.2565  0.2363
 1797PEP     CB68198   5.999  17.689   4.383 -0.1210  0.1014  0.1330
 1797PEP     CB68199   6.468  17.777   4.473  0.0564 -0.3777  0.1695
 1797PEP     CB68200   6.910  17.776   4.437  0.1330 -0.0633  0.4730
 1798PEP     CB68201  11.764   9.443   4.149  0.1605 -0.4634  0.2094
 1798PEP     CB68202  11.589   9.246   3.779 -0.1634  0.2560 -0.3216
 1798PEP     CB68203  11.567   8.857   3.883  0.1980  0.0992  0.2635
 1798PEP     CB68204  11.324   8.827   4.260  0.1736 -0.0895 -0.2447
 1798PEP     CB68205  10.988   9.053   4.425  0.0618 -0.3358  0.1518
 1798PEP     CB68206  10.689   9.311   4.314  0.2573 -0.2276 -0.2671
 1798PEP     CB68207  10.638   9.719   4.085  0.1809  0.1211 -0.0821
 1798PEP     CB68208  10.718  10.214   4.055  0.1207  0.3408 -0.1083
 1798PEP     CB68209  10.749  10.669   4.261 -0.0189 -0.3302  0.2314
 1798PEP     CB68210  10.896  11.095   4.187 -0.0569  0.0887 -0.0487
 1798PEP     CB68211  10.851  11.405   3.997 -0.2803 -0.2826  0.2234
 1798PEP     CB68212  10.680  11.799   4.080 -0.4128 -0.2592  0.2600
 1798PEP     CB68213  10.466  12.178   4.037  0.1753 -0.1167  0.0383
 1798PEP     CB68214  10.437  12.579   3.895  0.2908 -0.0522  0.0164
 1798PEP     CB68215  10.369  13.073   3.844  0.3290  0.2080  0.4185
 1798PEP     CB68216  10.482  13.463   3.520  0.4904  0.4320 -0.2035
 1798PEP     CB68217  10.510  13.556   3.040  0.1358  0.3329  0.0888
 1798PEP     CB68218  10.698  13.827   2.703 -0.2063 -0.1963 -0.1100
 1798PEP     CB68219  11.155  13.904   2.410 -0.0725  0.0318 -0.1858
 1798PEP     CB68220  11.362  13.823   1.983  0.2170  0.3373  0.1690
 1798PEP     CB68221  11.620  14.108   1.726  0.3243 -0.2574 -0.4587
 1798PEP     CB68222  11.803  14.480   1.879 -0.2630  0.4031 -0.3721
 1798PEP     CB68223  11.524  14.861   2.107  0.0782 -0.5078  0.0539
 1798PEP     CB68224  11.236  14.875   2.395 -0.0679  0.0447  0.5857
 1798PEP     CB68225  11.051  14.846   2.790  0.0488  0.4588 -0.1107
 1798PEP     CB68226  11.006  14.531   3.190  0.1997  0.0510 -0.2578
 1798PEP     CB68227  11.226  14.161   3.334  0.3621 -0.0363 -0.2219
 1798PEP     CB68228  11.417  13.991   3.522 -0.1337 -0.1605  0.1058
 1798PEP     CB68229  11.435  13.920   3.976 -0.0501 -0.0026  0.0538
 1798PEP     CB68230  11.204  13.600   4.179  0.2434  0.4227  0.2297
 1798PEP     CB68231  11.203  13.162   4.197 -0.0206 -0.0308  0.0100
 1798PEP     CB68232  11.197  12.766   3.979 -0.2610 -0.0497 -0.0452
 1798PEP     CB68233  11.368  12.359   3.918  0.0289  0.1291 -0.0111
 1798PEP     CB68234  11.269  11.885   3.872  0.2303  0.0014 -0.3211
 1798PEP     CB68235  11.175  11.506   3.530  0.0032  0.2212 -0.1027
 1798PEP     CB68236  11.208  11.159   3.399  0.1422  0.1431  0.2609
 1798PEP     CB68237  11.290  10.715   3.320  0.0175  0.0945  0.0746
 1798PEP     CB68238  11.590  10.448   3.114 -0.1327  0.2385  0.3227
 1798PEP     CB68239  11.896  10.162   3.146 -0.0068 -0.2529  0.4302
 1798PEP     CB68240  12.021   9.876   3.462 -0.0148 -0.4106 -0.3775
 1799PEP     CB68241  19.077  19.365   3.342 -0.1613 -0.0810  0.0151
 1799PEP     CB68242  19.054  19.846   3.403 -0.0831  0.0021  0.0204
 1799PEP     CB68243  19.068  20.192   3.074  0.0600 -0.0629 -0.0048
 1799PEP     CB68244  19.348  20.194   2.692  0.0414 -0.0269  0.0212
 1799PEP     CB68245  19.602  19.891   2.535 -0.6058 -0.3460 -0.0073
 1799PEP     CB68246  19.595  19.471   2.527 -0.2687  0.2357 -0.1621
 1799PEP     CB68247  19.468  19.313   2.997  0.0131 -0.5256  0.0886
 1799PEP     CB68248  19.588  19.588   3.338  0.1075 -0.1541  0.3004
 1799PEP     CB68249  20.012  19.760   3.442 -0.1449  0.0211 -0.1738
 1799PEP     CB68250  20.371  19.532   3.290 -0.0324 -0.1303 -0.0495
 1799PEP     CB68251  20.330  19.122   3.411  0.5117 -0.4069  0.3863
 1799PEP     CB68252  20.220  19.018   3.783  0.0332  0.2623 -0.1726
 1799PEP     CB68253  20.275  19.030   4.192  0.2461 -0.0430  0.1586
 1799PEP     CB68254  20.334  18.713   4.512 -0.1669  0.5003 -0.0738
 1799PEP     CB68255  20.106  18.304   4.625 -0.2337  0.1865 -0.5616
 1799PEP     CB68256  19.879  18.094   4.342  0.0309  0.1731  0.0301
 1799PEP     CB68257  19.863  18.180   3.884  0.2231 -0.2698 -0.1180
 1799PEP     CB68258  20.098  18.478   3.639  0.0286 -0.0558 -0.0541
 1799PEP     CB68259  20.490  18.451   3.518 -0.2041 -0.2477  0.0356
 1799PEP     CB68260  20.877  18.140   3.685 -0.0118  0.4314  0.0817
 1799PEP     CB68261  21.093  17.721   3.811  0.2335 -0.1242 -0.2473
 1799PEP     CB68262  20.887  17.396   4.106  0.1994 -0.5554 -0.0226
 1799PEP     CB68263  20.780  17.473   4.533 -0.1181  0.1048 -0.4337
 1799PEP     CB68264  20.652  17.852   4.662 -0.0867 -0.1381  0.1068
 1799PEP     CB68265  20.759  18.352   4.668 -0.0071  0.3825 -0.3180
 1799PEP     CB68266  21.192  18.515   4.779  0.0228 -0.0716 -0.1059
 1799PEP     CB68267  21.206  18.940   4.894 -0.1032  0.3916  0.0385
 1799PEP     CB68268  20.780  19.075   4.827  0.2260 -0.1270 -0.2997
 1799PEP     CB68269  20.617  19.276   4.366  0.1821 -0.1376  0.0213
 1799PEP     CB68270  20.756  19.119   3.992 -0.0212  0.4227 -0.2765
 1799PEP     CB68271  21.032  18.794   3.869  0.1561  0.0947 -0.1526
 1799PEP     CB68272  21.224  18.532   3.657 -0.0007 -0.1793 -0.0817
 1799PEP     CB68273  21.419  18.094   3.690 -0.2983  0.0249  0.3948
 1799PEP     CB68274  21.555  17.783   4.024  0.1019 -0.0230  0.1222
 1799PEP     CB68275  21.921  17.536   4.082 -0.4066 -0.5562  0.0221
 1799PEP     CB68276  22.344  17.569   4.171  0.4163  0.1696 -0.0975
 1799PEP     CB68277  22.599  17.831   4.427  0.6476  0.2257 -0.0017
 1799PEP     CB68278  23.057  17.938   4.508  0.3118  0.3299  0.3813
 1799PEP     CB68279  23.480  18.048   4.645  0.3327 -0.0165  0.3122
 1799PEP     CB68280  23.880  18.094   4.882 -0.2097  0.2254 -0.1319
 1800PEP     CB68281  13.005   1.707   0.042 -0.3622 -0.0794  0.0746
 1800PEP     CB68282  13.394   1.875   0.197  0.1914 -0.0617 -0.1448
 1800PEP     CB68283  13.803   1.917   0.317 -0.2110 -0.2288 -0.0304
 1800PEP     CB68284  14.026   1.456   0.429 -0.0903  0.2297 -0.2269
 1800PEP     CB68285  14.248   1.153   0.587  0.2643  0.0921  0.3026
 1800PEP     CB68286  14.613   0.954   0.544 -0.5123 -0.2098  0.0552
 1800PEP     CB68287  14.928   1.138   0.404  0.0942  0.3237  0.0872
 1800PEP     CB68288  15.307   1.353   0.249 -0.1925 -0.0123  0.2002
 1800PEP     CB68289  15.781   1.304   0.330  0.2818 -0.0371  0.0442
 1800PEP     CB68290  16.141   1.554   0.346 -0.1096  0.2254 -0.0873
 1800PEP     CB68291  16.540   1.787   0.545 -0.4680 -0.2045 -0.0258
 1800PEP     CB68292  16.831   1.951   0.933  0.1167 -0.1281 -0.2982
 1800PEP     CB68293  17.209   2.290   0.839 -0.4507  0.3995  0.0021
 1800PEP     CB68294  17.480   2.233   0.457  0.1576 -0.4075  0.0490
 1800PEP     CB68295  17.273   2.007   0.159 -0.1806 -0.0988  0.1696
 1800PEP     CB68296  16.857   1.964   0.003 -0.0504 -0.1702 -0.4256
 1800PEP     CB68297  16.478   2.026  -0.190  0.3431 -0.0826 -0.1217
 1800PEP     CB68298  16.137   1.966  -0.443 -0.3037  0.0762  0.1785
 1800PEP     CB68299  15.820   1.730  -0.512  0.2366  0.2506  0.0735
 1800PEP     CB68300  15.704   1.292  -0.647 -0.0970 -0.4022 -0.0619
 1800PEP     CB68301  15.636   1.006  -0.973 -0.2179 -0.2069  0.2616
 1800PEP     CB68302  15.323   0.895  -1.254 -0.2146 -0.0648  0.2316
 1800PEP     CB68303  15.044   1.178  -1.423  0.2788  0.0622 -0.1001
 1800PEP     CB68304  15.148   1.558  -1.543 -0.0044  0.1533 -0.4516
 1800PEP     CB68305  15.188   1.910  -1.743  0.2035  0.0396  0.1479
 1800PEP     CB68306  15.151   2.351  -1.650  0.2873 -0.1280  0.0604
 1800PEP     CB68307  14.925   2.740  -1.559 -0.2375 -0.1845 -0.1818
 1800PEP     CB68308  14.819   3.205  -1.483  0.1493  0.0932 -0.2365
 1800PEP     CB68309  14.878   3.618  -1.587 -0.0274  0.3591  0.0864
 1800PEP     CB68310  14.872   3.993  -1.310 -0.0794  0.1651 -0.0277
 1800PEP     CB68311  14.946   4.012  -0.873  0.1733  0.1151  0.0934
 1800PEP     CB68312  15.180   4.005  -0.483  0.2132 -0.3444  0.0345
 1800PEP     CB68313  15.269   4.371  -0.092 -0.2176  0.3165 -0.1743
 1800PEP     CB68314  15.342   4.657   0.205 -0.1035  0.4247  0.0661
 1800PEP     CB68315  15.392   4.812   0.599  0.1616  0.1224  0.1524
 1800PEP     CB68316  15.264   4.559   0.951 -0.0860 -0.2152 -0.1413
 1800PEP     CB68317  14.963   4.230   0.880  0.3311  0.3731  0.0990
 1800PEP     CB68318  14.893   3.812   0.839 -0.0683  0.0803 -0.0492
 1800PEP     CB68319  15.091   3.428   0.843  0.2589  0.4463  0.3034
 1800PEP     CB68320  15.480   3.178   0.753 -0.4012  0.4260  0.3155
 1801PEP     CB68321   6.035  13.007  20.131 -0.0788  0.0475 -0.3022
 1801PEP     CB68322   5.874  12.886  19.768  0.0034 -0.0440  0.0133
 1801PEP     CB68323   5.777  12.998  19.321  0.0560 -0.1313 -0.1905
 1801PEP     CB68324   6.015  13.193  18.940  0.0652  0.2201 -0.3818
 1801PEP     CB68325   6.308  13.142  18.789  0.3885 -0.0691  0.0942
 1801PEP     CB68326   6.747  13.118  18.820  0.0163 -0.5044 -0.2392
 1801PEP     CB68327   7.193  13.353  18.910  0.1970 -0.5391 -0.0770
 1801PEP     CB68328   7.530  13.495  18.785 -0.5736  0.0339  0.0003
 1801PEP     CB68329   7.923  13.268  18.655  0.2096  0.0550  0.2756
 1801PEP     CB68330   8.312  13.065  18.618  0.2062 -0.0052 -0.1409
 1801PEP     CB68331   8.705  13.196  18.843 -0.1562  0.0783 -0.0248
 1801PEP     CB68332   8.976  13.360  19.119  0.2563 -0.2187  0.2030
 1801PEP     CB68333   8.930  13.473  19.517 -0.3511  0.1332  0.6156
 1801PEP     CB68334   8.940  13.502  19.881 -0.1849 -0.0837  0.1013
 1801PEP     CB68335   8.968  13.618  20.310 -0.1559  0.5819  0.3421
 1801PEP     CB68336   8.813  13.570  20.750 -0.0386 -0.3098  0.1191
 1801PEP     CB68337   8.575  13.493  21.099  0.0987  0.1007 -0.1593
 1801PEP     CB68338   8.663  13.785  21.465 -0.3090 -0.0378  0.0097
 1801PEP     CB68339   8.998  13.875  21.601  0.1780 -0.0086 -0.1032
 1801PEP     CB68340   9.284  13.478  21.756 -0.0834  0.0580  0.0428
 1801PEP     CB68341   9.265  13.149  22.047 -0.6067  0.0345 -0.0078
 1801PEP     CB68342   9.112  12.784  22.141  0.2391 -0.2506  0.5569
 1801PEP     CB68343   9.382  12.515  22.367 -0.0482  0.0194 -0.0777
 1801PEP     CB68344   9.304  12.169  22.677 -0.0857 -0.1717  0.3791
 1801PEP     CB68345   8.911  11.884  22.784  0.1875  0.0061 -0.0616
 1801PEP     CB68346   8.514  11.659  22.520 -0.2345  0.4618  0.2634
 1801PEP     CB68347   8.265  11.574  22.161  0.1194 -0.0119  0.5195
 1801PEP     CB68348   8.131  11.203  22.094 -0.4394 -0.1020  0.0895
 1801PEP     CB68349   7.868  10.945  22.184 -0.1334 -0.3358  0.3650
 1801PEP     CB68350   7.637  10.596  22.169 -0.4054  0.0505 -0.0229
 1801PEP     CB68351   7.442  10.248  22.236 -0.1550  0.1336  0.1745
 1801PEP     CB68352   7.419   9.942  22.441  0.0034 -0.0411 -0.0121
 1801PEP     CB68353   7.424   9.614  22.702  0.2176  0.1829 -0.0584
 1801PEP     CB68354   7.723   9.214  22.605  0.1040 -0.2624  0.0180
 1801PEP     CB68355   8.087   9.398  22.533  0.0494  0.4326 -0.2561
 1801PEP     CB68356   8.239   9.686  22.849 -0.4295  0.1207 -0.3421
 1801PEP     CB68357   8.476   9.724  23.213 -0.3221 -0.1750 -0.0627
 1801PEP     CB68358   8.551   9.811  23.517  0.1124  0.1186 -0.2796
 1801PEP     CB68359   8.679  10.114  23.713  0.1511  0.0872  0.0422
 1801PEP     CB68360   9.021  10.356  23.877  0.0482  0.4613  0.1283
 1802PEP     CB68361  14.384  10.058  17.526 -0.2442 -0.3587  0.0651
 1802PEP     CB68362  14.487  10.427  17.799 -0.1616 -0.2180 -0.0078
 1802PEP     CB68363  14.558  10.831  17.716 -0.1197  0.3651 -0.2138
 1802PEP     CB68364  14.311  11.169  17.711  0.1814 -0.3490  0.0058
 1802PEP     CB68365  13.911  11.284  17.876  0.4112  0.1139 -0.2039
 1802PEP     CB68366  13.458  11.247  17.957 -0.1653  0.1256 -0.2078
 1802PEP     CB68367  13.036  11.190  18.065  0.1242 -0.4630 -0.2552
 1802PEP     CB68368  12.630  10.982  18.179  0.1423  0.1395 -0.1529
 1802PEP     CB68369  12.396  11.185  18.607  0.0260 -0.1268 -0.1175
 1802PEP     CB68370  12.595  11.353  18.980  0.1354  0.1971  0.5803
 1802PEP     CB68371  12.883  11.241  19.222 -0.0334  0.3558 -0.0468
 1802PEP     CB68372  13.287  11.197  19.156 -0.4158  0.2965  0.3464
 1802PEP     CB68373  13.509  11.273  18.750  0.1336  0.1186  0.0567
 1802PEP     CB68374  13.303  11.512  18.384  0.0465 -0.3213 -0.2838
 1802PEP     CB68375  13.126  11.664  18.090  0.2836  0.1668  0.2334
 1802PEP     CB68376  12.722  11.912  18.015  0.0561 -0.2358  0.1729
 1802PEP     CB68377  12.318  11.898  17.781 -0.3465  0.5913 -0.3458
 1802PEP     CB68378  11.917  11.635  17.897 -0.0726  0.2824  0.0511
 1802PEP     CB68379  11.864  11.294  18.292 -0.1980  0.2368 -0.1204
 1802PEP     CB68380  11.727  10.942  18.564  0.1168 -0.2379  0.2820
 1802PEP     CB68381  11.379  10.935  18.778  0.1103 -0.0573 -0.1296
 1802PEP     CB68382  10.912  11.120  18.669 -0.2941 -0.0047  0.2845
 1802PEP     CB68383  10.768  11.479  18.679 -0.1969 -0.0347  0.0511
 1802PEP     CB68384  10.539  11.885  18.564 -0.0279  0.0169 -0.1963
 1802PEP     CB68385  10.481  12.297  18.812  0.2673  0.0282 -0.0906
 1802PEP     CB68386  10.529  12.613  19.077  0.2376 -0.2875  0.0994
 1802PEP     CB68387  10.602  12.665  19.507 -0.0941  0.1529 -0.0872
 1802PEP     CB68388  10.614  12.796  19.858  0.0798 -0.1971 -0.0334
 1802PEP     CB68389  10.464  13.066  20.093 -0.0519  0.0280 -0.3490
 1802PEP     CB68390  10.312  13.404  20.350  0.2457  0.0037  0.3285
 1802PEP     CB68391  10.142  13.870  20.289 -0.2836  0.3128  0.0280
 1802PEP     CB68392   9.761  13.965  20.361  0.0100  0.1106 -0.2177
 1802PEP     CB68393   9.448  13.714  20.664 -0.4699 -0.2663 -0.2591
 1802PEP     CB68394   9.630  13.278  20.791 -0.0775 -0.1301 -0.0278
 1802PEP     CB68395  10.102  13.291  20.753 -0.4687 -0.0419  0.2368
 1802PEP     CB68396  10.303  12.877  20.657  0.2475  0.3616 -0.2590
 1802PEP     CB68397  10.591  12.504  20.702 -0.0926  0.1105 -0.2384
 1802PEP     CB68398  10.647  12.102  20.904 -0.2276 -0.0337  0.3521
 1802PEP     CB68399  10.658  11.669  20.750  0.0368 -0.0457 -0.0343
 1802PEP     CB68400  10.408  11.368  20.498 -0.1446  0.3512 -0.1566
 1803PEP     CB68401   3.555  14.860   0.940  0.2355 -0.3048  0.0058
 1803PEP     CB68402   3.764  14.454   0.875 -0.1861  0.1600  0.2136
 1803PEP     CB68403   3.677  14.035   0.790 -0.0542 -0.4856  0.0093
 1803PEP     CB68404   3.794  13.680   0.421 -0.0751 -0.2265  0.5735
 1803PEP     CB68405   3.613  13.448   0.088  0.1173 -0.0996  0.0740
 1803PEP     CB68406   3.242  13.342  -0.055  0.1021 -0.1306 -0.1131
 1803PEP     CB68407   3.061  12.897  -0.045  0.4933 -0.4011  0.1997
 1803PEP     CB68408   2.664  12.673   0.149  0.3221  0.1073 -0.1890
 1803PEP     CB68409   2.343  12.495   0.419 -0.0607  0.1952 -0.0077
 1803PEP     CB68410   1.991  12.531   0.731 -0.0607 -0.1996  0.0719
 1803PEP     CB68411   1.687  12.742   0.976 -0.1149 -0.3037 -0.4093
 1803PEP     CB68412   1.721  13.091   1.223  0.3340 -0.2880  0.0304
 1803PEP     CB68413   2.018  13.359   1.027 -0.2130 -0.0853  0.0614
 1803PEP     CB68414   1.930  13.517   0.631  0.2208 -0.3054  0.4488
 1803PEP     CB68415   1.909  13.328   0.240  0.2415 -0.2582  0.0324
 1803PEP     CB68416   2.298  13.188   0.052  0.0406  0.0553  0.2860
 1803PEP     CB68417   2.706  13.218   0.242  0.2099  0.0200 -0.1527
 1803PEP     CB68418   2.888  13.621   0.477 -0.1729 -0.0209 -0.0703
 1803PEP     CB68419   2.689  13.858   0.745  0.2891 -0.2068 -0.4270
 1803PEP     CB68420   2.267  13.748   0.922  0.5296  0.0282  0.4021
 1803PEP     CB68421   1.898  13.929   1.102  0.0365 -0.0781  0.1299
 1803PEP     CB68422   1.635  14.139   1.409 -0.3144 -0.0720 -0.1169
 1803PEP     CB68423   1.345  14.479   1.529 -0.3410  0.1705  0.2672
 1803PEP     CB68424   0.921  14.620   1.666  0.2015  0.0590 -0.1724
 1803PEP     CB68425   0.575  14.763   1.892 -0.2374 -0.2964 -0.1293
 1803PEP     CB68426   0.254  14.778   2.227 -0.1384  0.1361  0.5575
 1803PEP     CB68427  -0.142  14.645   2.221 -0.0901  0.0230  0.2254
 1803PEP     CB68428  -0.508  14.555   1.963 -0.3550 -0.2310 -0.0858
 1803PEP     CB68429  -0.674  14.576   1.567  0.0765 -0.1923  0.2713
 1803PEP     CB68430  -1.041  14.697   1.266  0.1477  0.0281  0.0582
 1803PEP     CB68431  -1.355  14.756   1.485  0.3128  0.1203 -0.1211
 1803PEP     CB68432  -1.668  14.540   1.697 -0.0288 -0.0562 -0.0125
 1803PEP     CB68433  -1.884  14.171   1.550 -0.0377  0.0362  0.1563
 1803PEP     CB68434  -2.185  14.066   1.235  0.0424  0.2087  0.3504
 1803PEP     CB68435  -2.247  13.687   0.985  0.1063 -0.0528  0.0567
 1803PEP     CB68436  -2.316  13.302   1.220 -0.0120  0.0885 -0.2003
 1803PEP     CB68437  -2.125  12.823   1.281 -0.1023 -0.1515 -0.0381
 1803PEP     CB68438  -1.999  12.375   1.233 -0.1724 -0.4440  0.3210
 1803PEP     CB68439  -1.889  12.060   1.469  0.1094 -0.2825  0.0043
 1803PEP     CB68440  -2.065  12.033   1.863  0.2918 -0.1714 -0.4715
 1804PEP     CB68441   8.364   8.929  17.130  0.0482  0.1598 -0.0374
 1804PEP     CB68442   8.334   9.283  17.381  0.2935 -0.0079  0.0234
 1804PEP     CB68443   8.612   9.557  17.435 -0.0475  0.3750 -0.1933
 1804PEP     CB68444   8.819   9.899  17.638  0.4006 -0.3985 -0.3826
 1804PEP     CB68445   9.156  10.241  17.459 -0.0070 -0.0188  0.4202
 1804PEP     CB68446   9.080  10.518  17.117 -0.2007  0.1140 -0.2071
 1804PEP     CB68447   8.913  10.367  16.740 -0.2278  0.1162  0.0871
 1804PEP     CB68448   9.010   9.981  16.494  0.0538  0.2843  0.2683
 1804PEP     CB68449   9.343   9.712  16.579  0.1004  0.1575  0.3355
 1804PEP     CB68450   9.652   9.381  16.364  0.0416 -0.3847 -0.2015
 1804PEP     CB68451  10.115   9.218  16.376 -0.4637  0.2991  0.1634
 1804PEP     CB68452  10.405   9.218  16.678  0.0184 -0.2935 -0.3586
 1804PEP     CB68453  10.771   9.071  17.031  0.1432 -0.0796  0.1797
 1804PEP     CB68454  11.108   8.798  17.240  0.3181  0.0594  0.1043
 1804PEP     CB68455  11.314   8.425  17.462 -0.0900  0.0205 -0.2112
 1804PEP     CB68456  11.468   8.352  17.854  0.1792 -0.1658 -0.2247
 1804PEP     CB68457  11.604   8.093  18.231  0.3527  0.2815 -0.1839
 1804PEP     CB68458  11.771   7.756  18.385  0.0418 -0.0306  0.0356
 1804PEP     CB68459  11.978   7.720  18.776 -0.1578  0.1376  0.0842
 1804PEP     CB68460  11.772   7.968  19.072  0.1125  0.2929 -0.0687
 1804PEP     CB68461  11.670   8.356  19.141  0.1504  0.5406 -0.0354
 1804PEP     CB68462  11.381   8.653  19.247 -0.0370 -0.0735 -0.0568
 1804PEP     CB68463  11.022   8.924  19.080  0.1526  0.2573 -0.1398
 1804PEP     CB68464  10.570   8.989  19.095  0.1447  0.1823 -0.2201
 1804PEP     CB68465  10.192   9.016  19.146 -0.7566 -0.1817 -0.1770
 1804PEP     CB68466   9.785   8.951  19.339  0.0150  0.3228  0.1418
 1804PEP     CB68467   9.406   8.791  19.460  0.2291  0.3169 -0.0709
 1804PEP     CB68468   9.119   8.651  19.707 -0.0853 -0.0557 -0.1823
 1804PEP     CB68469   8.907   8.636  20.078  0.3372  0.2168 -0.0499
 1804PEP     CB68470   8.708   8.665  20.346  0.3386 -0.2462 -0.1912
 1804PEP     CB68471   8.413   9.042  20.511  0.6052  0.1860  0.4042
 1804PEP     CB68472   8.268   9.464  20.335 -0.1896  0.0591 -0.2038
 1804PEP     CB68473   8.405   9.844  20.075  0.1619  0.2260  0.2436
 1804PEP     CB68474   8.472   9.982  19.697  0.5244 -0.0525 -0.3105
 1804PEP     CB68475   8.212   9.976  19.343  0.0235 -0.1634 -0.0584
 1804PEP     CB68476   7.908   9.754  19.075 -0.0817  0.1007 -0.0333
 1804PEP     CB68477   7.453   9.818  18.922  0.0273 -0.2004  0.2708
 1804PEP     CB68478   7.177  10.009  19.247  0.0493 -0.3551  0.1693
 1804PEP     CB68479   7.213  10.358  19.621 -0.0415  0.1237  0.1009
 1804PEP     CB68480   7.574  10.371  19.850  0.3713  0.3027 -0.2523
 1805PEP     CB68481  11.212   7.448   0.876  0.3789  0.2217 -0.1306
 1805PEP     CB68482  11.356   7.792   0.600  0.3156  0.1059 -0.2113
 1805PEP     CB68483  11.179   8.205   0.425  0.0275 -0.3569  0.0627
 1805PEP     CB68484  11.296   8.489   0.105 -0.0601  0.2119  0.0027
 1805PEP     CB68485  11.318   8.871  -0.201  0.3915 -0.1003 -0.2071
 1805PEP     CB68486  11.446   9.307  -0.272 -0.0677  0.2441  0.0840
 1805PEP     CB68487  11.954   9.484  -0.302  0.1849 -0.0024 -0.2108
 1805PEP     CB68488  12.387   9.437  -0.280 -0.3343 -0.3110  0.0639
 1805PEP     CB68489  12.788   9.345  -0.425  0.0501 -0.0657 -0.0122
 1805PEP     CB68490  13.213   9.422  -0.568 -0.3155 -0.0012 -0.1347
 1805PEP     CB68491  13.511   9.164  -0.590 -0.1909  0.3605 -0.1927
 1805PEP     CB68492  13.510   8.681  -0.769  0.0975  0.1846  0.5377
 1805PEP     CB68493  13.177   8.503  -1.006  0.1846 -0.4194 -0.0128
 1805PEP     CB68494  12.748   8.470  -1.156  0.3992 -0.1339  0.0927
 1805PEP     CB68495  12.270   8.570  -0.954  0.0121  0.0401  0.1663
 1805PEP     CB68496  12.037   8.307  -0.541  0.3340 -0.0001  0.0372
 1805PEP     CB68497  11.659   8.160  -0.194  0.0553 -0.1690  0.0494
 1805PEP     CB68498  11.665   7.907   0.176 -0.0607 -0.3918 -0.1784
 1805PEP     CB68499  11.753   7.457   0.349  0.1428 -0.2390  0.1302
 1805PEP     CB68500  12.018   7.121   0.624  0.1943 -0.1217  0.5202
 1805PEP     CB68501  11.915   6.705   0.793  0.4819 -0.2417 -0.2701
 1805PEP     CB68502  12.141   6.292   0.654 -0.2146 -0.0586  0.3288
 1805PEP     CB68503  12.375   6.016   0.367 -0.0074  0.0648 -0.0098
 1805PEP     CB68504  12.520   5.681   0.287  0.3902 -0.0268  0.1093
 1805PEP     CB68505  12.874   5.437   0.255 -0.0584 -0.1746  0.0377
 1805PEP     CB68506  13.184   4.994   0.317  0.5091  0.1137  0.4213
 1805PEP     CB68507  13.487   4.834   0.510  0.2903  0.1440  0.1580
 1805PEP     CB68508  13.596   4.882   0.965  0.2074  0.1781  0.1242
 1805PEP     CB68509  13.387   4.979   1.255  0.1210  0.1376  0.2077
 1805PEP     CB68510  13.278   5.258   1.585 -0.1519  0.1824 -0.1222
 1805PEP     CB68511  12.943   5.406   1.898  0.2211 -0.4413 -0.0902
 1805PEP     CB68512  12.560   5.494   1.892  0.0375 -0.0958  0.1987
 1805PEP     CB68513  12.236   5.337   1.689 -0.0361 -0.1443 -0.0834
 1805PEP     CB68514  12.018   5.137   1.308  0.0001  0.3713  0.1974
 1805PEP     CB68515  12.090   4.839   0.983 -0.2142 -0.2532  0.3409
 1805PEP     CB68516  12.090   4.560   0.650 -0.0196  0.1200 -0.0252
 1805PEP     CB68517  12.023   4.454   0.298  0.1133  0.0890 -0.1010
 1805PEP     CB68518  11.758   4.525   0.054  0.1430  0.2223  0.1267
 1805PEP     CB68519  11.421   4.759   0.033 -0.2731 -0.2474  0.3230
 1805PEP     CB68520  11.079   4.995   0.251  0.3332 -0.2050 -0.4082
 1806PEP     CB68521  20.955  21.769  21.794  0.1680  0.3873 -0.4217
 1806PEP     CB68522  20.619  21.524  21.756  0.0628  0.0243  0.1984
 1806PEP     CB68523  20.405  21.138  21.724  0.0191 -0.1763  0.0797
 1806PEP     CB68524  20.391  20.702  21.715 -0.1844 -0.2952 -0.2565
 1806PEP     CB68525  20.373  20.366  21.565 -0.0201  0.2169 -0.1409
 1806PEP     CB68526  20.156  20.057  21.263  0.0208 -0.0938  0.2564
 1806PEP     CB68527  20.207  19.717  21.020  0.0491  0.1039 -0.2626
 1806PEP     CB68528  20.597  19.509  20.835  0.3265  0.0999  0.1286
 1806PEP     CB68529  20.965  19.498  20.693  0.0517 -0.1434 -0.0791
 1806PEP     CB68530  21.229  19.381  20.320 -0.3400 -0.1405 -0.2217
 1806PEP     CB68531  21.278  19.159  19.951  0.1862  0.1417  0.0009
 1806PEP     CB68532  21.039  18.856  19.814 -0.5498 -0.0041  0.2594
 1806PEP     CB68533  20.900  18.506  19.577  0.2788 -0.1188 -0.1551
 1806PEP     CB68534  20.697  18.272  19.324 -0.0895 -0.0353 -0.0278
 1806PEP     CB68535  20.228  18.177  19.154 -0.1625 -0.2681  0.1557
 1806PEP     CB68536  19.939  18.102  18.801 -0.1161 -0.0676  0.0200
 1806PEP     CB68537  19.607  17.914  18.566  0.0025 -0.1116 -0.2768
 1806PEP     CB68538  19.336  18.004  18.309 -0.0855 -0.2041 -0.1290
 1806PEP     CB68539  18.945  18.000  18.020 -0.4355  0.0642  0.2535
 1806PEP     CB68540  18.631  18.090  17.764  0.1840 -0.1167 -0.0529
 1806PEP     CB68541  18.296  17.941  17.576  0.1231 -0.0013 -0.0380
 1806PEP     CB68542  17.778  17.849  17.471 -0.1554  0.0903 -0.1812
 1806PEP     CB68543  17.345  17.901  17.257 -0.0602 -0.1090  0.0426
 1806PEP     CB68544  16.956  17.987  16.948  0.0718 -0.3119 -0.0805
 1806PEP     CB68545  16.706  17.665  16.893 -0.4050 -0.6078  0.3828
 1806PEP     CB68546  16.408  17.303  16.686 -0.2443  0.1036 -0.0061
 1806PEP     CB68547  16.211  16.993  16.531 -0.1220 -0.0554  0.0617
 1806PEP     CB68548  15.668  16.933  16.456 -0.3631 -0.0932 -0.0848
 1806PEP     CB68549  15.278  17.061  16.721 -0.1397  0.0394  0.1777
 1806PEP     CB68550  15.241  16.951  17.160  0.2934  0.0243 -0.1500
 1806PEP     CB68551  15.586  16.935  17.499  0.2620 -0.0858  0.0739
 1806PEP     CB68552  15.850  16.810  17.857  0.1291  0.1635  0.0386
 1806PEP     CB68553  15.964  16.569  18.223 -0.0321 -0.1690 -0.0122
 1806PEP     CB68554  16.135  16.136  18.503  0.1770 -0.0416  0.1100
 1806PEP     CB68555  16.223  15.659  18.671  0.1548 -0.0071  0.7743
 1806PEP     CB68556  16.085  15.384  18.400  0.0303  0.1545  0.2691
 1806PEP     CB68557  16.182  15.312  17.941  0.7601  0.1584 -0.1727
 1806PEP     CB68558  16.149  15.221  17.490 -0.1493 -0.1624  0.1755
 1806PEP     CB68559  15.986  15.073  17.059 -0.0828 -0.2820  0.1218
 1806PEP     CB68560  16.262  14.798  16.795  0.4211 -0.1753 -0.2091
 1807PEP     CB68561   1.193  17.592   6.931  0.2963 -0.2745 -0.2850
 1807PEP     CB68562   0.977  17.194   6.794 -0.2559  0.0672 -0.0829
 1807PEP     CB68563   0.511  17.010   6.810 -0.4198  0.1515 -0.3961
 1807PEP     CB68564   0.115  17.108   6.748 -0.2663 -0.0434  0.2457
 1807PEP     CB68565  -0.246  17.186   6.971  0.1458 -0.1896 -0.2617
 1807PEP     CB68566  -0.638  17.087   7.162  0.1620  0.0197  0.3706
 1807PEP     CB68567  -1.039  17.108   7.372  0.0068  0.0729 -0.2351
 1807PEP     CB68568  -1.419  17.124   7.136 -0.1058  0.1835  0.0689
 1807PEP     CB68569  -1.759  17.256   7.127 -0.3192  0.1760 -0.5490
 1807PEP     CB68570  -2.125  17.183   6.866 -0.0505  0.2362 -0.2624
 1807PEP     CB68571  -2.234  17.060   6.519  0.1049 -0.2639 -0.2233
 1807PEP     CB68572  -2.243  17.291   6.038  0.1608 -0.1443 -0.0179
 1807PEP     CB68573  -2.476  17.318   5.707  0.2206  0.3292  0.3721
 1807PEP     CB68574  -2.654  17.101   5.406  0.0104  0.1409 -0.4826
 1807PEP     CB68575  -2.601  16.762   5.112 -0.1598 -0.4359  0.5813
 1807PEP     CB68576  -2.771  16.339   5.021  0.0487  0.1539 -0.2357
 1807PEP     CB68577  -2.900  15.913   4.887  0.1010 -0.0828 -0.1196
 1807PEP     CB68578  -2.667  15.523   4.808 -0.0623 -0.0613 -0.0483
 1807PEP     CB68579  -2.642  15.099   4.618  0.0190  0.2412  0.1194
 1807PEP     CB68580  -2.777  14.892   4.270  0.1162  0.2774 -0.2863
 1807PEP     CB68581  -2.960  14.552   4.067  0.0100 -0.3740  0.1773
 1807PEP     CB68582  -3.040  14.134   4.260 -0.4842 -0.1187  0.2748
 1807PEP     CB68583  -2.902  13.713   4.086 -0.3411 -0.3250  0.0551
 1807PEP     CB68584  -2.643  13.446   3.868 -0.3082  0.0381 -0.2123
 1807PEP     CB68585  -2.196  13.357   3.777 -0.1457  0.0759  0.1257
 1807PEP     CB68586  -1.696  13.364   3.934 -0.0842 -0.3234 -0.3866
 1807PEP     CB68587  -1.248  13.255   3.937  0.1869  0.6396 -0.2106
 1807PEP     CB68588  -0.987  12.997   3.777  0.2957  0.0972 -0.0242
 1807PEP     CB68589  -0.736  12.800   3.539  0.4234  0.1716 -0.0520
 1807PEP     CB68590  -0.806  12.628   3.207 -0.0463 -0.5120 -0.0248
 1807PEP     CB68591  -1.097  12.723   2.917 -0.0424 -0.0256 -0.3142
 1807PEP     CB68592  -1.383  12.980   2.870  0.1909  0.1304  0.3149
 1807PEP     CB68593  -1.770  12.886   3.027  0.0118 -0.0963 -0.2308
 1807PEP     CB68594  -2.031  12.706   3.371  0.1698 -0.1224  0.1504
 1807PEP     CB68595  -2.249  12.319   3.408  0.0643  0.0297  0.2686
 1807PEP     CB68596  -2.133  11.873   3.498 -0.0355  0.0052 -0.1393
 1807PEP     CB68597  -2.052  11.496   3.353 -0.0714 -0.1459  0.2852
 1807PEP     CB68598  -1.833  11.289   2.994 -0.0312 -0.1036 -0.0630
 1807PEP     CB68599  -1.693  11.244   2.562  0.0121 -0.1045 -0.0455
 1807PEP     CB68600  -1.966  11.437   2.161 -0.0766 -0.1142  0.0855
 1808PEP     CB68601   3.230   6.680  13.659 -0.5333 -0.1835  0.1331
 1808PEP     CB68602   3.127   7.072  13.846  0.2864  0.1145 -0.1450
 1808PEP     CB68603   2.896   7.392  13.766 -0.3189 -0.4260  0.1847
 1808PEP     CB68604   2.537   7.570  13.434 -0.2256  0.1997  0.0607
 1808PEP     CB68605   2.391   7.328  13.129  0.1535 -0.0360 -0.1440
 1808PEP     CB68606   2.586   7.097  12.812  0.0755  0.0676  0.1635
 1808PEP     CB68607   2.911   7.112  12.762 -0.3717 -0.0644  0.0802
 1808PEP     CB68608   3.338   7.062  13.026  0.2536 -0.0192  0.4598
 1808PEP     CB68609   3.693   7.308  13.103 -0.3418  0.3445 -0.0466
 1808PEP     CB68610   3.851   7.697  12.842 -0.0161 -0.5135 -0.0229
 1808PEP     CB68611   3.790   8.081  12.559  0.0712  0.1485  0.1581
 1808PEP     CB68612   3.412   8.214  12.245  0.0546 -0.0342  0.1824
 1808PEP     CB68613   3.180   7.771  11.984 -0.1022  0.0690  0.1110
 1808PEP     CB68614   3.449   7.411  11.987 -0.0800  0.1905 -0.2399
 1808PEP     CB68615   3.839   7.224  12.239  0.0117  0.2060  0.1656
 1808PEP     CB68616   4.295   7.132  12.396  0.2254 -0.1158  0.0817
 1808PEP     CB68617   4.723   7.032  12.440 -0.1812  0.0229 -0.3574
 1808PEP     CB68618   4.944   6.865  12.027 -0.0161 -0.1567 -0.2030
 1808PEP     CB68619   4.743   6.648  11.757 -0.1253  0.2403 -0.1423
 1808PEP     CB68620   4.445   6.307  11.672  0.2290 -0.0712 -0.1431
 1808PEP     CB68621   4.200   5.875  11.673 -0.0681  0.0751 -0.3312
 1808PEP     CB68622   3.826   5.646  11.623 -0.3045  0.1408 -0.1498
 1808PEP     CB68623   3.657   5.230  11.426 -0.0028 -0.1166 -0.0011
 1808PEP     CB68624   3.407   5.015  11.075 -0.3675 -0.1671 -0.4177
 1808PEP     CB68625   3.291   5.046  10.683  0.1534 -0.0824 -0.0917
 1808PEP     CB68626   3.059   5.181  10.393  0.2651 -0.3085 -0.4693
 1808PEP     CB68627   2.674   5.071  10.003 -0.3543 -0.0666  0.2965
 1808PEP     CB68628   2.630   5.022   9.560 -0.1136  0.0580 -0.0653
 1808PEP     CB68629   2.512   4.701   9.359 -0.4416  0.0702 -0.1187
 1808PEP     CB68630   2.415   4.295   9.355 -0.1269  0.3146 -0.3641
 1808PEP     CB68631   2.351   3.884   9.411 -0.3225 -0.1667 -0.3515
 1808PEP     CB68632   2.361   3.499   9.315 -0.2257 -0.0257 -0.0118
 1808PEP     CB68633   2.327   3.018   9.137 -0.2653 -0.0572 -0.0835
 1808PEP     CB68634   2.118   2.848   8.742  0.1691 -0.0542  0.2696
 1808PEP     CB68635   1.935   2.795   8.271 -0.3933  0.3961  0.0130
 1808PEP     CB68636   1.638   2.666   7.952 -0.1605  0.0242  0.1287
 1808PEP     CB68637   1.354   2.848   7.561  0.1531  0.2123  0.5739
 1808PEP     CB68638   1.065   2.726   7.156 -0.5220  0.0376 -0.2057
 1808PEP     CB68639   0.752   2.425   7.024  0.1353 -0.4054  0.4340
 1808PEP     CB68640   0.391   2.379   6.922 -0.2411  0.1828 -0.0826
 1809PEP     CB68641   3.414  10.326  10.624 -0.3388 -0.1992  0.0347
 1809PEP     CB68642   3.114  10.174  10.846 -0.0721 -0.0075 -0.1405
 1809PEP     CB68643   3.051   9.972  11.164 -0.2310 -0.0353  0.0021
 1809PEP     CB68644   2.742   9.795  11.342 -0.4247  0.2426  0.1895
 1809PEP     CB68645   2.570   9.524  11.732  0.0799  0.0648  0.1032
 1809PEP     CB68646   2.417   9.621  12.111  0.2481  0.0550  0.0328
 1809PEP     CB68647   2.300   9.808  12.433 -0.3011  0.0211 -0.2197
 1809PEP     CB68648   2.330  10.006  12.857 -0.0318 -0.1477  0.0372
 1809PEP     CB68649   2.055  10.191  13.106  0.0763 -0.2022  0.1850
 1809PEP     CB68650   2.007  10.355  13.460  0.0785 -0.3364  0.0584
 1809PEP     CB68651   1.885  10.751  13.571  0.0826 -0.0903  0.4154
 1809PEP     CB68652   1.667  11.068  13.311  0.2841 -0.2169  0.1683
 1809PEP     CB68653   1.281  11.043  12.993 -0.0156  0.2007 -0.0638
 1809PEP     CB68654   0.966  10.698  13.015  0.0533  0.2063  0.0939
 1809PEP     CB68655   0.814  10.644  13.393  0.1747 -0.0824  0.2428
 1809PEP     CB68656   0.874  10.891  13.784  0.2479  0.2591 -0.1642
 1809PEP     CB68657   0.785  11.177  14.083  0.1735 -0.0626  0.4017
 1809PEP     CB68658   0.551  11.540  14.327  0.0334  0.2315  0.2893
 1809PEP     CB68659   0.242  11.770  14.491  0.3466 -0.3110  0.1892
 1809PEP     CB68660   0.089  12.181  14.359 -0.4460 -0.1444 -0.0510
 1809PEP     CB68661   0.414  12.442  14.237  0.0084  0.0498  0.0218
 1809PEP     CB68662   0.853  12.562  14.059 -0.3257 -0.1663  0.0208
 1809PEP     CB68663   1.141  12.446  13.698  0.2316  0.1771  0.1741
 1809PEP     CB68664   1.123  12.272  13.231 -0.2810  0.1197 -0.1268
 1809PEP     CB68665   1.084  12.103  12.898  0.0093  0.0017 -0.1998
 1809PEP     CB68666   0.885  12.103  12.508 -0.3925  0.2320  0.2051
 1809PEP     CB68667   0.790  11.986  12.061 -0.2416  0.2153 -0.6359
 1809PEP     CB68668   0.554  12.088  11.816  0.2917  0.0114  0.1653
 1809PEP     CB68669   0.040  12.173  11.885 -0.2140 -0.0794 -0.1834
 1809PEP     CB68670  -0.264  11.829  11.993 -0.3088 -0.0249 -0.1601
 1809PEP     CB68671  -0.334  11.545  11.820  0.0775 -0.2846 -0.0929
 1809PEP     CB68672  -0.105  11.271  11.805  0.3573  0.2564 -0.1018
 1809PEP     CB68673   0.276  11.082  11.963  0.0437  0.0294  0.2804
 1809PEP     CB68674   0.530  11.162  12.279  0.0545  0.3041 -0.5772
 1809PEP     CB68675   0.519  11.534  12.570 -0.1472 -0.1972  0.0699
 1809PEP     CB68676   0.366  11.854  12.842  0.1799  0.0170  0.3065
 1809PEP     CB68677   0.021  12.031  13.082  0.3033 -0.0350  0.4626
 1809PEP     CB68678  -0.271  12.135  13.443 -0.5182  0.1501  0.1406
 1809PEP     CB68679  -0.475  12.188  13.765  0.2292  0.1125  0.3114
 1809PEP     CB68680  -0.555  12.515  14.072 -0.2755 -0.3484 -0.1618
 1810PEP     CB68681   2.790  16.138   2.922  0.2410 -0.0443 -0.0778
 1810PEP     CB68682   2.371  15.868   2.838  0.1922  0.0286  0.1953
 1810PEP     CB68683   2.085  15.560   2.719  0.1800 -0.1614 -0.0026
 1810PEP     CB68684   2.008  15.444   2.279  0.3271  0.1954 -0.1358
 1810PEP     CB68685   1.984  15.541   1.808  0.1922 -0.0525 -0.3466
 1810PEP     CB68686   1.910  15.328   1.394 -0.0097 -0.0235  0.4728
 1810PEP     CB68687   1.556  15.438   1.047 -0.0336 -0.0483 -0.5914
 1810PEP     CB68688   1.477  15.574   0.636  0.0283  0.2824  0.4277
 1810PEP     CB68689   1.601  15.877   0.358 -0.0120  0.1722  0.1644
 1810PEP     CB68690   1.935  15.893   0.088  0.2904 -0.0660  0.1227
 1810PEP     CB68691   2.264  15.792  -0.161  0.2373 -0.4831 -0.1588
 1810PEP     CB68692   2.638  15.833  -0.114 -0.0447 -0.2859 -0.2276
 1810PEP     CB68693   2.780  16.299  -0.221 -0.0353  0.0531 -0.1060
 1810PEP     CB68694   2.534  16.605  -0.531  0.2984  0.3716 -0.0230
 1810PEP     CB68695   2.074  16.723  -0.535 -0.1034  0.2265  0.5012
 1810PEP     CB68696   1.888  16.598  -0.130  0.2723 -0.4198  0.1245
 1810PEP     CB68697   2.053  16.498   0.207 -0.2725 -0.1490 -0.0126
 1810PEP     CB68698   2.092  16.125   0.453  0.2964 -0.1176 -0.4215
 1810PEP     CB68699   2.322  15.734   0.448  0.3129 -0.0246  0.0039
 1810PEP     CB68700   2.673  15.548   0.615  0.2352 -0.1829  0.3097
 1810PEP     CB68701   3.017  15.641   0.824 -0.0878 -0.0610  0.1229
 1810PEP     CB68702   3.411  15.777   0.975 -0.0564  0.1165 -0.4820
 1810PEP     CB68703   3.684  16.135   1.025  0.2152  0.1187 -0.1090
 1810PEP     CB68704   3.648  16.596   1.017 -0.1431  0.1787  0.0315
 1810PEP     CB68705   3.652  16.811   0.600  0.2989  0.0799  0.0464
 1810PEP     CB68706   3.375  16.687   0.199 -0.3473 -0.0027  0.5324
 1810PEP     CB68707   3.213  16.264   0.024 -0.1071  0.5085  0.1917
 1810PEP     CB68708   3.401  15.995  -0.002 -0.3234 -0.0466 -0.1779
 1810PEP     CB68709   3.812  15.941  -0.018  0.3385 -0.0527 -0.0543
 1810PEP     CB68710   4.142  16.147  -0.238 -0.2119  0.2470 -0.2131
 1810PEP     CB68711   4.289  16.641  -0.275  0.3556 -0.0349 -0.2996
 1810PEP     CB68712   4.497  16.936  -0.027  0.0510 -0.0312  0.1136
 1810PEP     CB68713   4.592  17.311  -0.022 -0.3650  0.0335 -0.0449
 1810PEP     CB68714   4.557  17.724  -0.283  0.1328 -0.2415  0.3828
 1810PEP     CB68715   4.121  18.017  -0.313 -0.0786 -0.2718 -0.0593
 1810PEP     CB68716   3.760  18.240  -0.451 -0.4739 -0.1834  0.0516
 1810PEP     CB68717   3.457  18.649  -0.646 -0.2118  0.5729 -0.1402
 1810PEP     CB68718   3.198  18.970  -0.833 -0.0758 -0.1744  0.6306
 1810PEP     CB68719   2.870  19.204  -0.963 -0.0833 -0.1577 -0.3749
 1810PEP     CB68720   2.533  19.524  -0.838  0.2499 -0.3359 -0.0401
 1811PEP     CB68721  11.662   2.145   0.038  0.0226 -0.0573  0.2680
 1811PEP     CB68722  11.445   2.451  -0.290 -0.1387  0.3877  0.0698
 1811PEP     CB68723  11.517   2.904  -0.378  0.2266 -0.0221  0.1501
 1811PEP     CB68724  11.286   3.325  -0.560  0.1243 -0.0684  0.0032
 1811PEP     CB68725  11.108   3.728  -0.656  0.2722 -0.1744  0.1614
 1811PEP     CB68726  11.120   4.014  -0.876  0.0265  0.2233  0.1250
 1811PEP     CB68727  11.006   4.279  -0.985 -0.1453  0.2729 -0.0475
 1811PEP     CB68728  11.122   4.602  -1.166  0.0914 -0.4724  0.1254
 1811PEP     CB68729  11.196   5.012  -1.295  0.0101 -0.0553  0.1201
 1811PEP     CB68730  10.919   5.257  -1.384 -0.0228 -0.3070 -0.3871
 1811PEP     CB68731  10.624   5.515  -1.677 -0.1897  0.3683  0.4023
 1811PEP     CB68732  10.381   5.675  -2.136 -0.1178  0.2337  0.3773
 1811PEP     CB68733  10.028   5.533  -2.394  0.1495  0.0464  0.1106
 1811PEP     CB68734   9.837   5.296  -2.806  0.0901 -0.0156 -0.1814
 1811PEP     CB68735   9.593   5.200  -3.132  0.1189  0.7560  0.2647
 1811PEP     CB68736   9.073   5.371  -3.313 -0.3713 -0.1441  0.2875
 1811PEP     CB68737   8.888   5.710  -3.311  0.0572  0.0203  0.0460
 1811PEP     CB68738   8.535   5.889  -3.029  0.0961 -0.0864  0.0397
 1811PEP     CB68739   8.522   6.173  -2.595  0.1094  0.6492  0.0085
 1811PEP     CB68740   8.984   6.273  -2.324  0.1514 -0.0064 -0.2697
 1811PEP     CB68741   9.292   6.433  -2.615 -0.0272  0.1572 -0.2907
 1811PEP     CB68742   9.149   6.383  -3.014  0.0972  0.0110  0.4721
 1811PEP     CB68743   8.791   6.347  -3.164  0.0006  0.0887 -0.1775
 1811PEP     CB68744   8.320   6.344  -3.060  0.0700 -0.0677  0.3172
 1811PEP     CB68745   8.096   6.021  -2.755  0.3425  0.0272  0.0762
 1811PEP     CB68746   8.026   5.588  -2.881 -0.1884  0.1220  0.0615
 1811PEP     CB68747   7.838   5.475  -3.346 -0.2016  0.1866 -0.1908
 1811PEP     CB68748   7.873   5.705  -3.673 -0.4690 -0.2531  0.1086
 1811PEP     CB68749   7.982   6.151  -3.783 -0.1964  0.2409  0.2914
 1811PEP     CB68750   8.303   6.418  -3.716  0.0245  0.0292 -0.3102
 1811PEP     CB68751   8.788   6.352  -3.640 -0.2525 -0.4310  0.2716
 1811PEP     CB68752   9.009   5.938  -3.718  0.0807 -0.2807 -0.1237
 1811PEP     CB68753   8.909   5.500  -3.776 -0.1018  0.0600  0.0068
 1811PEP     CB68754   8.528   5.371  -3.912  0.1648  0.0296  0.0178
 1811PEP     CB68755   8.233   5.109  -3.965  0.1916 -0.0905 -0.0170
 1811PEP     CB68756   7.748   4.991  -3.841  0.0068  0.3162 -0.1539
 1811PEP     CB68757   7.400   5.267  -3.546 -0.1647 -0.1130 -0.1695
 1811PEP     CB68758   7.396   5.706  -3.510  0.3133  0.1289  0.2211
 1811PEP     CB68759   7.683   5.942  -3.186  0.0435  0.1585 -0.2018
 1811PEP     CB68760   8.092   5.973  -3.261 -0.2146 -0.4338  0.0034
 1812PEP     CB68761   8.372  10.376   6.583 -0.2259  0.1380 -0.2246
 1812PEP     CB68762   8.510  10.687   6.357 -0.1835 -0.1915  0.0424
 1812PEP     CB68763   8.267  11.065   6.245 -0.0497  0.0328 -0.1889
 1812PEP     CB68764   7.857  11.226   6.441  0.4710 -0.1516 -0.0251
 1812PEP     CB68765   7.513  11.078   6.681  0.1368  0.0348 -0.0291
 1812PEP     CB68766   7.062  10.981   6.594  0.0071 -0.1971 -0.1325
 1812PEP     CB68767   6.839  11.125   6.218  0.0795  0.1878 -0.1578
 1812PEP     CB68768   6.946  11.375   5.874 -0.1134 -0.1678  0.2442
 1812PEP     CB68769   7.169  11.376   5.443  0.0456  0.2205  0.0427
 1812PEP     CB68770   7.253  11.234   5.050  0.0438  0.1304  0.3538
 1812PEP     CB68771   7.463  10.904   4.732  0.1637 -0.3393  0.1839
 1812PEP     CB68772   7.642  10.926   4.365 -0.1413 -0.4722  0.2397
 1812PEP     CB68773   7.627  11.161   4.071  0.0355  0.4099  0.1442
 1812PEP     CB68774   7.269  11.446   3.987  0.3595 -0.0275  0.1592
 1812PEP     CB68775   7.209  11.800   4.244 -0.1845  0.0542 -0.2973
 1812PEP     CB68776   7.335  12.171   4.520 -0.3600 -0.0259  0.0834
 1812PEP     CB68777   7.598  12.295   4.918 -0.1895  0.2228  0.4540
 1812PEP     CB68778   7.590  12.150   5.332 -0.1216 -0.2717 -0.0329
 1812PEP     CB68779   7.841  11.944   5.621 -0.0671  0.2086 -0.3100
 1812PEP     CB68780   7.907  11.618   5.925  0.2482 -0.0233  0.1714
 1812PEP     CB68781   7.866  11.197   5.905  0.3620 -0.3145  0.2358
 1812PEP     CB68782   8.169  10.984   5.582 -0.3699  0.1311  0.5292
 1812PEP     CB68783   8.455  11.198   5.268 -0.0472 -0.0433 -0.0031
 1812PEP     CB68784   8.350  11.669   5.113 -0.2659 -0.4769 -0.1301
 1812PEP     CB68785   7.954  11.834   5.033 -0.2543 -0.0163  0.0672
 1812PEP     CB68786   7.565  11.667   5.197 -0.1336  0.2142  0.0106
 1812PEP     CB68787   7.716  11.401   5.470  0.0211  0.1673  0.2383
 1812PEP     CB68788   8.223  11.523   5.597 -0.1292  0.2893  0.4853
 1812PEP     CB68789   8.379  11.964   5.554  0.3828  0.1635 -0.2664
 1812PEP     CB68790   8.233  12.341   5.364 -0.0542  0.3149  0.1784
 1812PEP     CB68791   8.134  12.667   5.091 -0.2716  0.0840  0.0490
 1812PEP     CB68792   8.226  13.072   5.070 -0.1352  0.1644 -0.0417
 1812PEP     CB68793   8.232  13.458   5.348  0.0650  0.2858 -0.3054
 1812PEP     CB68794   8.669  13.536   5.640 -0.3563 -0.2435  0.0058
 1812PEP     CB68795   9.067  13.616   5.883  0.2095 -0.1163  0.0612
 1812PEP     CB68796   9.510  13.559   5.888  0.3182  0.0349 -0.0126
 1812PEP     CB68797   9.914  13.720   5.818 -0.1342  0.2643  0.0030
 1812PEP     CB68798  10.390  13.665   5.848 -0.1171  0.0164 -0.0238
 1812PEP     CB68799  10.626  13.494   6.230  0.5670 -0.0941 -0.1908
 1812PEP     CB68800  10.465  13.258   6.580  0.0286 -0.1164 -0.2920
 1813PEP     CB68801  21.171  20.799  10.740 -0.0565 -0.0265 -0.4110
 1813PEP     CB68802  21.154  20.716  11.171  0.3328 -0.4669  0.1087
 1813PEP     CB68803  21.433  20.850  11.520  0.0752  0.3934  0.0665
 1813PEP     CB68804  21.935  21.067  11.438  0.1693 -0.1959 -0.1004
 1813PEP     CB68805  21.988  21.406  11.153  0.5920  0.2341 -0.0706
 1813PEP     CB68806  21.879  21.385  10.759  0.3265 -0.0912 -0.2399
 1813PEP     CB68807  21.603  21.022  10.513  0.2278 -0.1195 -0.7780
 1813PEP     CB68808  21.463  20.701  10.282 -0.1551 -0.1897 -0.1228
 1813PEP     CB68809  21.570  20.352   9.948  0.1819  0.2914  0.4323
 1813PEP     CB68810  21.468  20.209   9.614  0.2169 -0.0865 -0.3363
 1813PEP     CB68811  21.073  20.252   9.372  0.0812  0.0030 -0.1124
 1813PEP     CB68812  20.647  20.131   9.299  0.2323 -0.2549 -0.0535
 1813PEP     CB68813  20.279  20.189   9.564 -0.2257 -0.1186  0.2025
 1813PEP     CB68814  19.896  20.146   9.642  0.3405  0.0294  0.1617
 1813PEP     CB68815  19.515  20.142   9.881  0.2262  0.1103 -0.1391
 1813PEP     CB68816  19.161  20.358  10.028  0.0914 -0.1096 -0.1026
 1813PEP     CB68817  19.159  20.794  10.193  0.0744 -0.1216  0.0962
 1813PEP     CB68818  19.375  20.931  10.592 -0.2035  0.2890 -0.2275
 1813PEP     CB68819  19.452  20.675  10.933 -0.0039 -0.2244  0.0656
 1813PEP     CB68820  19.741  20.374  11.129 -0.2143  0.0875 -0.4708
 1813PEP     CB68821  19.787  19.965  10.935  0.3150  0.0518 -0.0501
 1813PEP     CB68822  19.493  19.737  10.728  0.1446 -0.0538  0.0201
 1813PEP     CB68823  19.393  19.355  10.511 -0.3265 -0.1572 -0.2114
 1813PEP     CB68824  19.257  18.945  10.663 -0.0141 -0.1443 -0.1045
 1813PEP     CB68825  19.322  18.664  11.028  0.2378 -0.1418  0.0278
 1813PEP     CB68826  19.354  18.294  11.173 -0.3503  0.2220  0.0394
 1813PEP     CB68827  19.324  17.927  11.388  0.5087  0.0815 -0.3509
 1813PEP     CB68828  19.013  17.497  11.523 -0.2862  0.0738  0.3422
 1813PEP     CB68829  18.811  17.122  11.296  0.2911 -0.0295  0.2346
 1813PEP     CB68830  18.462  16.837  11.202  0.4671  0.0431  0.0651
 1813PEP     CB68831  18.248  16.420  11.013  0.1508  0.0224  0.2852
 1813PEP     CB68832  18.317  16.012  11.167  0.2395 -0.0184  0.0389
 1813PEP     CB68833  18.251  15.874  11.670  0.5095 -0.3253  0.3117
 1813PEP     CB68834  17.972  16.117  12.008  0.2327 -0.1987  0.0031
 1813PEP     CB68835  17.981  16.527  12.012  0.3288 -0.0144  0.1851
 1813PEP     CB68836  18.062  16.843  11.708 -0.0125 -0.1337  0.3358
 1813PEP     CB68837  17.938  16.884  11.325 -0.2681  0.2461 -0.1733
 1813PEP     CB68838  18.039  16.856  10.877 -0.2482 -0.1104  0.1847
 1813PEP     CB68839  18.391  16.683  10.587 -0.2148  0.1774  0.2570
 1813PEP     CB68840  18.643  16.372  10.688 -0.0642 -0.0135 -0.4452
 1814PEP     CB68841  19.337  20.183   0.863 -0.3011 -0.0555 -0.1793
 1814PEP     CB68842  19.158  19.964   1.173 -0.3912 -0.3111  0.1533
 1814PEP     CB68843  18.861  19.786   1.254  0.3027  0.3754 -0.2387
 1814PEP     CB68844  18.637  19.454   1.480 -0.2620  0.0481  0.0232
 1814PEP     CB68845  18.348  19.346   1.780  0.2120  0.0864  0.4378
 1814PEP     CB68846  18.354  19.362   2.222 -0.0208 -0.2250  0.0018
 1814PEP     CB68847  18.704  19.396   2.496 -0.2890 -0.2187  0.0395
 1814PEP     CB68848  18.999  19.089   2.788  0.1529  0.2049  0.1924
 1814PEP     CB68849  18.995  18.669   2.989  0.5568  0.5738  0.0484
 1814PEP     CB68850  18.544  18.464   3.174 -0.2733 -0.0028  0.3135
 1814PEP     CB68851  18.141  18.522   2.970 -0.1118 -0.2417 -0.1765
 1814PEP     CB68852  17.712  18.424   3.041  0.0734  0.1310  0.1453
 1814PEP     CB68853  17.285  18.300   2.963  0.1088  0.0806 -0.1214
 1814PEP     CB68854  16.850  18.061   3.086  0.1119 -0.1851  0.0349
 1814PEP     CB68855  16.691  17.803   3.436  0.5413 -0.1499  0.0316
 1814PEP     CB68856  16.905  17.565   3.669 -0.1358  0.1381 -0.0566
 1814PEP     CB68857  17.217  17.257   3.521 -0.1676  0.3159  0.0605
 1814PEP     CB68858  17.396  17.180   3.030  0.0347  0.0522 -0.3799
 1814PEP     CB68859  17.154  17.311   2.628 -0.0039 -0.1267 -0.1463
 1814PEP     CB68860  17.337  17.437   2.219 -0.0386  0.2428  0.1623
 1814PEP     CB68861  17.663  17.238   1.928  0.2727 -0.0418 -0.3658
 1814PEP     CB68862  17.964  16.984   1.904  0.2662  0.0872  0.1800
 1814PEP     CB68863  18.366  16.793   1.952 -0.3956  0.0235  0.2068
 1814PEP     CB68864  18.768  16.689   2.125  0.3448  0.2237 -0.0583
 1814PEP     CB68865  18.868  16.652   2.565  0.0342 -0.3210 -0.1889
 1814PEP     CB68866  18.717  16.349   2.958 -0.0646  0.2744  0.0673
 1814PEP     CB68867  18.514  15.997   2.932  0.1179 -0.2400 -0.1201
 1814PEP     CB68868  18.261  15.813   2.540 -0.1076  0.2105  0.0330
 1814PEP     CB68869  18.497  15.641   2.126 -0.3181 -0.0620  0.0359
 1814PEP     CB68870  18.968  15.689   1.971  0.0624 -0.1508  0.0743
 1814PEP     CB68871  19.389  15.848   1.902  0.2765  0.1788 -0.1398
 1814PEP     CB68872  19.887  15.872   1.843  0.2228 -0.0423  0.1144
 1814PEP     CB68873  20.267  16.228   1.805 -0.1353 -0.2285 -0.0723
 1814PEP     CB68874  20.498  16.592   1.751 -0.1362  0.1330  0.4944
 1814PEP     CB68875  20.833  16.887   1.905 -0.1185  0.0398 -0.3400
 1814PEP     CB68876  20.987  17.323   1.986 -0.0030 -0.1160  0.2313
 1814PEP     CB68877  20.903  17.712   1.795  0.3042  0.0468  0.1199
 1814PEP     CB68878  20.626  17.727   1.417  0.1173  0.1388 -0.3252
 1814PEP     CB68879  20.388  17.871   1.071  0.0425  0.2304 -0.3575
 1814PEP     CB68880  20.185  17.876   0.681  0.1523  0.4387  0.0487
 1815PEP     CB68881   7.577  17.525   4.464  0.2906 -0.1293 -0.4399
 1815PEP     CB68882   7.714  17.479   4.920  0.1414  0.4321 -0.0247
 1815PEP     CB68883   7.633  17.123   5.178 -0.0879 -0.0326 -0.2896
 1815PEP     CB68884   7.177  17.088   5.372 -0.0071  0.5640  0.0458
 1815PEP     CB68885   7.135  17.405   5.431  0.0880  0.3943 -0.2469
 1815PEP     CB68886   7.428  17.761   5.309  0.1079  0.1283 -0.2464
 1815PEP     CB68887   7.827  17.924   5.101  0.0902 -0.3539 -0.0019
 1815PEP     CB68888   8.155  17.816   4.964 -0.1682 -0.1337 -0.3506
 1815PEP     CB68889   8.485  17.741   4.766 -0.3746 -0.0164 -0.2050
 1815PEP     CB68890   8.827  17.443   4.616 -0.1971 -0.4200  0.0663
 1815PEP     CB68891   9.193  17.133   4.416  0.0666  0.3305 -0.1480
 1815PEP     CB68892   9.279  16.742   4.163  0.1659 -0.0523 -0.0824
 1815PEP     CB68893   9.522  16.461   4.057 -0.0023 -0.1927 -0.1332
 1815PEP     CB68894   9.889  16.238   4.217  0.0169 -0.3009  0.4088
 1815PEP     CB68895  10.280  16.139   4.309  0.0797 -0.0492  0.1231
 1815PEP     CB68896  10.412  15.871   4.681 -0.2291  0.7867 -0.1469
 1815PEP     CB68897  10.155  15.847   4.929  0.0428  0.0122  0.2952
 1815PEP     CB68898   9.746  16.119   5.098 -0.0415  0.5254 -0.0242
 1815PEP     CB68899   9.298  16.077   5.038  0.1365 -0.0316 -0.2704
 1815PEP     CB68900   9.007  15.761   5.101  0.4159  0.0051  0.0427
 1815PEP     CB68901   8.632  15.496   5.118 -0.0270  0.2885 -0.1810
 1815PEP     CB68902   8.416  15.159   5.321  0.4694  0.0750  0.1297
 1815PEP     CB68903   8.269  14.976   5.607 -0.3463  0.0608 -0.1173
 1815PEP     CB68904   8.034  14.826   5.945  0.4474 -0.1056  0.0233
 1815PEP     CB68905   7.911  14.696   6.315 -0.0193  0.0333  0.1696
 1815PEP     CB68906   7.911  14.784   6.779 -0.0803 -0.0224 -0.2551
 1815PEP     CB68907   7.628  14.791   7.124 -0.2864  0.1370  0.5251
 1815PEP     CB68908   7.484  14.385   7.205 -0.3534  0.1216  0.2487
 1815PEP     CB68909   7.758  14.111   6.939  0.1895 -0.1380 -0.4030
 1815PEP     CB68910   8.093  14.331   6.761  0.4487 -0.3119 -0.3590
 1815PEP     CB68911   8.357  14.567   6.508  0.2937 -0.1005 -0.2286
 1815PEP     CB68912   8.446  14.800   6.184 -0.0415  0.1958 -0.3710
 1815PEP     CB68913   8.742  14.890   5.835 -0.0613 -0.2503  0.1362
 1815PEP     CB68914   8.822  14.880   5.462  0.0005 -0.2737  0.1557
 1815PEP     CB68915   8.815  14.948   5.054  0.3359  0.1664 -0.0656
 1815PEP     CB68916   8.982  15.220   4.775 -0.1030 -0.0911 -0.1162
 1815PEP     CB68917   9.189  15.686   4.611 -0.3054 -0.2381  0.4390
 1815PEP     CB68918   9.021  16.089   4.588 -0.1421  0.0361  0.0978
 1815PEP     CB68919   8.965  16.391   4.337 -0.1723  0.5664 -0.0447
 1815PEP     CB68920   8.851  16.448   3.951 -0.2060 -0.2681 -0.0065
 1816PEP     CB68921   4.892   8.368   9.250 -0.0192  0.1366  0.1468
 1816PEP     CB68922   4.631   8.431   9.600 -0.0555 -0.0336 -0.0133
 1816PEP     CB68923   4.180   8.629   9.753  0.2424 -0.1526  0.2057
 1816PEP     CB68924   3.859   8.714  10.048 -0.2280 -0.2468 -0.1870
 1816PEP     CB68925   3.897   8.937  10.463 -0.0908 -0.0330 -0.1211
 1816PEP     CB68926   3.958   9.024  10.900  0.0193 -0.1412  0.3192
 1816PEP     CB68927   4.017   9.233  11.334 -0.2717  0.3450 -0.4525
 1816PEP     CB68928   3.885   9.302  11.834 -0.3218 -0.5154  0.1576
 1816PEP     CB68929   3.629   9.439  12.185  0.1139  0.1674 -0.0559
 1816PEP     CB68930   3.215   9.298  12.414  0.1246 -0.3855 -0.1352
 1816PEP     CB68931   3.082   9.231  12.813  0.3611 -0.1262 -0.1358
 1816PEP     CB68932   3.366   9.059  13.105  0.0680 -0.1370  0.0544
 1816PEP     CB68933   3.699   8.825  12.897  0.1977 -0.1148  0.1534
 1816PEP     CB68934   3.681   8.596  12.498  0.1672  0.2096  0.0360
 1816PEP     CB68935   3.814   8.496  12.114 -0.0977 -0.0786  0.5012
 1816PEP     CB68936   3.648   8.522  11.688 -0.3049  0.1462  0.4293
 1816PEP     CB68937   3.642   8.851  11.432 -0.2333 -0.0726 -0.0431
 1816PEP     CB68938   3.441   9.075  11.151  0.1731 -0.1035 -0.1568
 1816PEP     CB68939   3.430   9.248  10.736 -0.1972  0.1656  0.3710
 1816PEP     CB68940   3.133   9.366  10.426 -0.2355 -0.2158 -0.0947
 1816PEP     CB68941   2.706   9.351  10.287 -0.2931  0.0040  0.1705
 1816PEP     CB68942   2.308   9.453  10.179 -0.0746 -0.1539  0.1755
 1816PEP     CB68943   1.896   9.193   9.981  0.0249  0.2984  0.0808
 1816PEP     CB68944   1.917   8.971   9.539 -0.4063 -0.1777  0.2185
 1816PEP     CB68945   2.042   8.753   9.124 -0.0989 -0.5032  0.0584
 1816PEP     CB68946   1.981   8.215   8.951 -0.2024 -0.1874 -0.0608
 1816PEP     CB68947   1.604   8.014   8.779 -0.2007 -0.0567 -0.0919
 1816PEP     CB68948   1.167   7.811   8.959  0.4597  0.0047  0.1202
 1816PEP     CB68949   1.064   7.458   9.142  0.2215 -0.2830 -0.0193
 1816PEP     CB68950   0.650   7.342   9.214  0.0343  0.0805 -0.2073
 1816PEP     CB68951   0.340   7.655   9.339 -0.0399 -0.0257  0.0708
 1816PEP     CB68952   0.409   7.972   9.560  0.1802 -0.3868 -0.0631
 1816PEP     CB68953   0.601   8.093  10.013  0.0489 -0.0850 -0.1859
 1816PEP     CB68954   0.731   7.930  10.421  0.2757  0.1486  0.1174
 1816PEP     CB68955   0.535   7.565  10.555  0.2419  0.2552  0.0402
 1816PEP     CB68956   0.327   7.141  10.694 -0.0448  0.1757 -0.2119
 1816PEP     CB68957   0.220   6.696  10.644  0.0444 -0.1145 -0.0782
 1816PEP     CB68958   0.071   6.314  10.685 -0.1835  0.0856  0.3219
 1816PEP     CB68959   0.196   5.959  10.679 -0.4037 -0.3578  0.1598
 1816PEP     CB68960   0.442   5.583  10.743 -0.0603 -0.0659 -0.0941
 1817PEP     CB68961   7.979   9.190  16.357 -0.2202  0.3377  0.1306
 1817PEP     CB68962   8.258   8.848  16.258 -0.2975  0.0924 -0.0847
 1817PEP     CB68963   8.274   8.424  16.109 -0.3142  0.1410 -0.1848
 1817PEP     CB68964   8.164   8.136  15.850  0.1153 -0.2293 -0.2329
 1817PEP     CB68965   8.510   7.853  15.702  0.1058  0.4222  0.3285
 1817PEP     CB68966   8.836   7.779  15.866 -0.3433  0.1171  0.1502
 1817PEP     CB68967   9.115   7.545  16.191  0.0527 -0.0338 -0.0520
 1817PEP     CB68968   9.105   7.653  16.690 -0.0202  0.3303  0.1762
 1817PEP     CB68969   8.937   7.622  17.094 -0.1877 -0.0049  0.2022
 1817PEP     CB68970   8.588   7.566  17.358  0.2365 -0.2543 -0.0905
 1817PEP     CB68971   8.180   7.276  17.464 -0.2533 -0.3396  0.0895
 1817PEP     CB68972   7.754   7.152  17.467 -0.0256  0.4350  0.2033
 1817PEP     CB68973   7.321   7.279  17.500  0.2271  0.0966  0.0352
 1817PEP     CB68974   6.938   7.498  17.516  0.1924 -0.3070  0.1422
 1817PEP     CB68975   6.584   7.773  17.510 -0.3191 -0.1200 -0.0354
 1817PEP     CB68976   6.306   8.108  17.500 -0.1728  0.0091  0.2281
 1817PEP     CB68977   5.959   8.300  17.744 -0.0688 -0.1689 -0.3040
 1817PEP     CB68978   5.922   8.691  17.986 -0.1418  0.0817 -0.1424
 1817PEP     CB68979   5.810   9.086  17.937 -0.1377  0.1508 -0.2197
 1817PEP     CB68980   5.627   9.399  18.223 -0.4151 -0.1951 -0.1767
 1817PEP     CB68981   5.599   9.902  18.314 -0.1524 -0.3306  0.0052
 1817PEP     CB68982   5.557  10.292  18.149 -0.3420  0.3710  0.2595
 1817PEP     CB68983   5.422  10.786  18.279  0.0705 -0.4198  0.0662
 1817PEP     CB68984   5.164  10.915  18.549  0.0289 -0.0271 -0.0137
 1817PEP     CB68985   5.134  10.922  18.938  0.7624  0.1968 -0.3671
 1817PEP     CB68986   5.519  10.669  19.205  0.3561  0.0229  0.2914
 1817PEP     CB68987   5.726  10.276  19.203 -0.2020  0.3113 -0.1338
 1817PEP     CB68988   5.743   9.886  19.258  0.1079  0.1646  0.0910
 1817PEP     CB68989   5.828   9.464  19.174  0.3274 -0.0598 -0.3100
 1817PEP     CB68990   6.077   9.134  18.976  0.1963 -0.0271  0.0769
 1817PEP     CB68991   6.395   8.776  18.933 -0.0892  0.1310  0.1585
 1817PEP     CB68992   6.775   8.488  19.107  0.0356  0.0918 -0.1708
 1817PEP     CB68993   7.060   8.109  19.278 -0.1915 -0.2911 -0.0493
 1817PEP     CB68994   6.934   7.844  19.579  0.2031 -0.3922 -0.1204
 1817PEP     CB68995   6.527   7.614  19.700  0.1415 -0.2373 -0.1739
 1817PEP     CB68996   6.143   7.550  19.650  0.1708  0.0650  0.1061
 1817PEP     CB68997   5.683   7.436  19.541  0.2268  0.0135  0.0380
 1817PEP     CB68998   5.447   7.395  19.040 -0.0282  0.1427 -0.0731
 1817PEP     CB68999   5.626   7.611  18.668  0.0655 -0.0169 -0.0481
 1817PEP     CB69000   5.929   7.949  18.771  0.1002  0.0456 -0.2201
 1818PEP     CB69001   3.942   8.555  16.877  0.4316 -0.3590 -0.4353
 1818PEP     CB69002   3.931   8.461  17.359  0.0496  0.1590  0.1987
 1818PEP     CB69003   3.817   8.670  17.698  0.1747  0.1041 -0.1512
 1818PEP     CB69004   3.786   9.072  17.886 -0.1493  0.0513 -0.0104
 1818PEP     CB69005   3.668   9.458  17.808 -0.1446  0.1376 -0.3774
 1818PEP     CB69006   3.796   9.715  17.632  0.0336 -0.1681  0.0333
 1818PEP     CB69007   4.019  10.120  17.508  0.5388 -0.0456 -0.3275
 1818PEP     CB69008   3.909  10.543  17.368  0.1653 -0.1788 -0.1752
 1818PEP     CB69009   3.890  10.939  17.543 -0.0230 -0.1500 -0.0748
 1818PEP     CB69010   3.789  11.031  17.992 -0.1486  0.0015  0.3789
 1818PEP     CB69011   3.360  11.090  18.203  0.2195 -0.0978  0.1043
 1818PEP     CB69012   2.927  11.071  18.075  0.1051  0.1484  0.3739
 1818PEP     CB69013   2.785  10.737  17.851  0.2726 -0.2618  0.0453
 1818PEP     CB69014   2.618  10.395  17.923  0.1237 -0.3247 -0.1272
 1818PEP     CB69015   2.473  10.068  18.113 -0.0845 -0.0592  0.0130
 1818PEP     CB69016   2.391   9.688  18.301  0.0423  0.0732  0.0329
 1818PEP     CB69017   2.466   9.300  18.467 -0.1212 -0.2493 -0.1516
 1818PEP     CB69018   2.581   8.833  18.475 -0.2528  0.2570 -0.1060
 1818PEP     CB69019   2.547   8.564  18.167  0.0044  0.2368  0.1095
 1818PEP     CB69020   2.448   8.147  18.018 -0.4099 -0.1908 -0.2911
 1818PEP     CB69021   2.701   7.699  17.982  0.2658 -0.0904  0.0114
 1818PEP     CB69022   2.714   7.278  18.103  0.1491 -0.3038  0.0287
 1818PEP     CB69023   2.673   6.854  18.262  0.2871 -0.1282  0.3379
 1818PEP     CB69024   2.851   6.530  18.370  0.0489 -0.4940  0.1725
 1818PEP     CB69025   3.163   6.228  18.372 -0.0452  0.1775 -0.3577
 1818PEP     CB69026   3.581   5.949  18.463 -0.3748  0.2528 -0.2645
 1818PEP     CB69027   3.601   5.503  18.349  0.4552  0.1518  0.1017
 1818PEP     CB69028   3.398   5.242  18.107  0.0658 -0.0452 -0.2202
 1818PEP     CB69029   3.100   5.238  17.791  0.2016  0.1551 -0.0764
 1818PEP     CB69030   2.944   5.496  17.439  0.5338 -0.3388 -0.1206
 1818PEP     CB69031   3.024   5.729  17.140 -0.2210 -0.0760 -0.1592
 1818PEP     CB69032   3.039   5.717  16.708 -0.1947 -0.0300 -0.1414
 1818PEP     CB69033   3.343   5.612  16.451  0.2049 -0.0278 -0.1887
 1818PEP     CB69034   3.591   5.199  16.446  0.2349 -0.0100  0.2589
 1818PEP     CB69035   3.907   5.068  16.109 -0.0514  0.4273 -0.2626
 1818PEP     CB69036   4.154   4.822  15.781 -0.2441 -0.2348 -0.2048
 1818PEP     CB69037   4.230   4.416  15.585 -0.0251  0.3099  0.1585
 1818PEP     CB69038   4.381   3.977  15.705 -0.3482 -0.1234 -0.2446
 1818PEP     CB69039   4.751   3.895  15.920  0.0824  0.0898  0.2268
 1818PEP     CB69040   4.840   4.051  16.351  0.3777 -0.1086  0.0167
 1819PEP     CB69041   1.759  21.959  11.547  0.1245 -0.2036 -0.0164
 1819PEP     CB69042   1.819  22.279  11.174 -0.0998 -0.6900  0.1564
 1819PEP     CB69043   1.708  22.361  10.777  0.0553  0.3400 -0.4806
 1819PEP     CB69044   1.743  22.237  10.372  0.1895  0.1271 -0.1605
 1819PEP     CB69045   1.935  21.954  10.073  0.4743  0.3754  0.3750
 1819PEP     CB69046   2.155  21.605  10.136  0.2561  0.2873  0.2615
 1819PEP     CB69047   2.094  21.310  10.521 -0.2290  0.1910  0.1571
 1819PEP     CB69048   2.208  21.427  10.875  0.2869 -0.1606 -0.0199
 1819PEP     CB69049   2.182  21.564  11.244 -0.1590  0.0116 -0.0351
 1819PEP     CB69050   2.245  21.845  11.540 -0.0502 -0.1818 -0.1988
 1819PEP     CB69051   2.063  22.302  11.652  0.1750 -0.1815 -0.2557
 1819PEP     CB69052   1.930  22.772  11.450  0.0112 -0.0496  0.2245
 1819PEP     CB69053   1.675  22.759  11.112  0.0397  0.0610  0.0945
 1819PEP     CB69054   1.335  22.468  11.071  0.5292 -0.3277 -0.1626
 1819PEP     CB69055   0.897  22.571  10.794 -0.3660  0.2490 -0.0026
 1819PEP     CB69056   0.751  22.569  10.394  0.0308  0.3015  0.1972
 1819PEP     CB69057   0.917  22.232  10.138 -0.0789 -0.3099 -0.1619
 1819PEP     CB69058   1.354  22.024  10.146 -0.0142 -0.1205  0.1589
 1819PEP     CB69059   1.537  21.667   9.956  0.0863 -0.1762 -0.1851
 1819PEP     CB69060   1.236  21.380   9.727  0.3509 -0.0135  0.2024
 1819PEP     CB69061   0.744  21.375   9.879 -0.0080  0.2799 -0.1975
 1819PEP     CB69062   0.362  21.396  10.217 -0.0253 -0.3226  0.1477
 1819PEP     CB69063   0.314  21.472  10.724  0.2041  0.2845 -0.4051
 1819PEP     CB69064   0.561  21.282  11.036  0.0749  0.1029  0.0157
 1819PEP     CB69065   0.798  20.972  11.125 -0.1419  0.0828  0.2123
 1819PEP     CB69066   1.194  20.784  11.040 -0.0047  0.1142 -0.0066
 1819PEP     CB69067   1.672  20.620  11.069  0.3649 -0.3615  0.0960
 1819PEP     CB69068   1.976  20.695  11.270 -0.0579  0.2690  0.2044
 1819PEP     CB69069   2.197  20.748  11.713 -0.1162 -0.2290  0.2235
 1819PEP     CB69070   2.217  20.414  12.077 -0.1511 -0.1501  0.0657
 1819PEP     CB69071   2.261  20.111  12.433  0.1872 -0.3388 -0.0336
 1819PEP     CB69072   2.573  19.795  12.575  0.2868  0.5320 -0.1266
 1819PEP     CB69073   2.684  19.323  12.606 -0.1031  0.0640 -0.2448
 1819PEP     CB69074   2.736  18.878  12.708 -0.3176 -0.1647 -0.2678
 1819PEP     CB69075   2.880  18.439  12.832 -0.3071  0.3730 -0.1028
 1819PEP     CB69076   3.254  18.162  12.680  0.0074  0.2904 -0.2342
 1819PEP     CB69077   3.648  18.315  12.561  0.3764  0.3006  0.4813
 1819PEP     CB69078   3.839  18.717  12.494  0.1343 -0.2849  0.0719
 1819PEP     CB69079   3.701  19.096  12.530 -0.0201  0.0266  0.1100
 1819PEP     CB69080   3.301  19.313  12.610  0.0466 -0.0953 -0.2986
 1820PEP     CB69081   3.943  19.000   6.532 -0.0377 -0.1221 -0.2354
 1820PEP     CB69082   3.590  18.932   6.656 -0.0879  0.2703  0.2657
 1820PEP     CB69083   3.220  18.638   6.549 -0.2601 -0.2181  0.0425
 1820PEP     CB69084   2.884  18.528   6.177 -0.4564 -0.0046 -0.2828
 1820PEP     CB69085   2.677  18.745   5.839 -0.0142  0.0015 -0.0977
 1820PEP     CB69086   2.758  19.178   5.722 -0.3646 -0.0087 -0.3753
 1820PEP     CB69087   3.109  19.346   5.930 -0.0640 -0.0652 -0.1475
 1820PEP     CB69088   3.169  19.026   6.221  0.2364  0.0024 -0.2842
 1820PEP     CB69089   2.752  18.961   6.365 -0.2255  0.0387 -0.1767
 1820PEP     CB69090   2.421  19.188   6.100 -0.3807  0.2797 -0.0591
 1820PEP     CB69091   2.518  19.611   5.857 -0.3124  0.2908  0.1678
 1820PEP     CB69092   2.802  19.737   5.685 -0.1487  0.1886  0.1942
 1820PEP     CB69093   2.964  19.866   5.279 -0.2950  0.0721 -0.1098
 1820PEP     CB69094   2.977  19.901   4.889 -0.0550 -0.4281  0.3577
 1820PEP     CB69095   2.835  20.273   4.619 -0.1121  0.0990 -0.3056
 1820PEP     CB69096   2.587  20.613   4.331  0.3991 -0.3986 -0.0060
 1820PEP     CB69097   2.388  20.921   4.118 -0.2053  0.2628  0.3529
 1820PEP     CB69098   2.410  21.336   4.033  0.1467  0.1051  0.3000
 1820PEP     CB69099   2.075  21.653   4.230  0.3015 -0.0145 -0.1899
 1820PEP     CB69100   1.815  21.416   4.506  0.2972 -0.3148 -0.2193
 1820PEP     CB69101   2.012  21.099   4.718  0.1092 -0.2434  0.1299
 1820PEP     CB69102   2.018  20.840   5.068  0.1350  0.2585 -0.0262
 1820PEP     CB69103   1.942  20.639   5.490  0.2521 -0.0886  0.2592
 1820PEP     CB69104   1.858  20.252   5.754  0.0273 -0.0576 -0.2943
 1820PEP     CB69105   2.197  20.131   6.095 -0.0062  0.1183  0.0175
 1820PEP     CB69106   2.607  20.075   5.980 -0.3099 -0.0716  0.0748
 1820PEP     CB69107   2.678  20.262   5.523  0.2919 -0.0682  0.4665
 1820PEP     CB69108   2.501  20.662   5.294 -0.0395  0.1141 -0.0731
 1820PEP     CB69109   2.373  21.008   5.453 -0.4817  0.3900  0.3619
 1820PEP     CB69110   2.065  21.327   5.419 -0.2210 -0.0526  0.0104
 1820PEP     CB69111   1.795  21.391   5.030 -0.2817  0.3752  0.1531
 1820PEP     CB69112   1.480  21.087   4.776  0.0189  0.2675  0.2300
 1820PEP     CB69113   1.683  20.706   4.754 -0.2518 -0.2325 -0.1676
 1820PEP     CB69114   1.881  20.366   5.059 -0.1330 -0.0326 -0.0270
 1820PEP     CB69115   2.196  20.272   5.299  0.1404  0.3416 -0.5727
 1820PEP     CB69116   2.229  19.902   5.528 -0.3994 -0.0387  0.0127
 1820PEP     CB69117   2.143  19.426   5.467 -0.1493  0.1024  0.2689
 1820PEP     CB69118   1.807  19.258   5.288 -0.1629 -0.0320 -0.1625
 1820PEP     CB69119   1.528  19.354   4.989 -0.0550 -0.0075 -0.0584
 1820PEP     CB69120   1.150  19.604   4.765 -0.0749 -0.0297  0.3452
 1821PEP     CB69121  18.115  16.767   6.996 -0.2689 -0.0194  0.0378
 1821PEP     CB69122  18.517  16.632   7.163  0.1590 -0.1284 -0.1892
 1821PEP     CB69123  18.834  16.562   7.313 -0.1861  0.1615 -0.1897
 1821PEP     CB69124  19.160  16.280   7.441  0.1267  0.2249 -0.0049
 1821PEP     CB69125  19.388  15.861   7.425  0.2108  0.0477 -0.1310
 1821PEP     CB69126  19.547  15.367   7.378 -0.1664  0.2611 -0.2171
 1821PEP     CB69127  19.750  15.030   7.545  0.1093  0.2153  0.2078
 1821PEP     CB69128  19.932  14.698   7.773 -0.3481 -0.1470 -0.2318
 1821PEP     CB69129  19.838  14.360   7.860 -0.0914 -0.0225 -0.2582
 1821PEP     CB69130  19.477  14.177   7.808  0.1357  0.1658  0.1964
 1821PEP     CB69131  19.066  14.256   7.816 -0.1225  0.0865 -0.1191
 1821PEP     CB69132  18.649  14.402   7.614  0.2109  0.2175  0.0877
 1821PEP     CB69133  18.268  14.650   7.394 -0.4921  0.0251 -0.3309
 1821PEP     CB69134  17.934  14.887   7.290 -0.5093  0.1050 -0.3475
 1821PEP     CB69135  17.672  15.146   7.281  0.4526 -0.1795  0.0977
 1821PEP     CB69136  17.316  15.345   7.409  0.0814  0.0668 -0.0670
 1821PEP     CB69137  16.902  15.539   7.380 -0.1226 -0.0334  0.3440
 1821PEP     CB69138  16.523  15.788   7.545  0.3069  0.4479 -0.0325
 1821PEP     CB69139  16.176  16.080   7.437  0.0519  0.1601  0.2737
 1821PEP     CB69140  15.745  16.308   7.469 -0.0406  0.1806  0.1276
 1821PEP     CB69141  15.449  16.585   7.648 -0.3046  0.5568 -0.4078
 1821PEP     CB69142  15.192  16.798   7.930 -0.0787 -0.2975  0.0011
 1821PEP     CB69143  14.956  17.079   8.175 -0.2754  0.4143  0.0044
 1821PEP     CB69144  14.669  17.288   8.462  0.3752 -0.0169 -0.0163
 1821PEP     CB69145  14.242  17.480   8.472  0.5594  0.0222  0.0732
 1821PEP     CB69146  13.963  17.768   8.720 -0.3487  0.1627  0.3638
 1821PEP     CB69147  13.490  17.700   8.916 -0.4277  0.1732  0.0739
 1821PEP     CB69148  13.175  17.401   8.924 -0.0969  0.1989  0.2090
 1821PEP     CB69149  13.036  16.969   9.076 -0.1325 -0.5341 -0.0185
 1821PEP     CB69150  13.204  16.785   9.393 -0.0685 -0.0158  0.0742
 1821PEP     CB69151  13.591  16.637   9.362 -0.1672 -0.1827  0.1743
 1821PEP     CB69152  13.929  16.324   9.360 -0.3392  0.0454  0.0035
 1821PEP     CB69153  14.046  15.895   9.407  0.2455  0.3627  0.0686
 1821PEP     CB69154  14.050  15.580   9.663 -0.0116  0.0612  0.2631
 1821PEP     CB69155  14.116  15.185   9.805 -0.2582 -0.3017  0.0852
 1821PEP     CB69156  13.745  14.874   9.713  0.1041 -0.6903 -0.2518
 1821PEP     CB69157  13.569  14.809   9.280  0.0309 -0.3347 -0.0325
 1821PEP     CB69158  13.747  14.909   8.853  0.3965 -0.1419  0.3745
 1821PEP     CB69159  13.829  14.969   8.370 -0.1100  0.1568  0.1843
 1821PEP     CB69160  13.901  15.044   7.885 -0.1214  0.0992  0.0914
 1822PEP     CB69161  16.136   1.379   1.736  0.0393  0.0782 -0.2435
 1822PEP     CB69162  16.287   0.973   1.767  0.1326 -0.3329 -0.0417
 1822PEP     CB69163  16.397   0.738   1.464  0.2789 -0.0904  0.5447
 1822PEP     CB69164  16.657   0.484   1.216 -0.2693  0.0640  0.0288
 1822PEP     CB69165  17.012   0.357   0.878  0.0363 -0.0230  0.3144
 1822PEP     CB69166  17.359   0.276   0.602 -0.3117 -0.2303  0.4597
 1822PEP     CB69167  17.565   0.212   0.248 -0.1054 -0.0563  0.2943
 1822PEP     CB69168  17.752   0.424  -0.098  0.1447  0.0982  0.2819
 1822PEP     CB69169  18.179   0.616  -0.173  0.1002 -0.0708  0.3777
 1822PEP     CB69170  18.467   0.652  -0.558 -0.1434  0.1305 -0.3184
 1822PEP     CB69171  18.393   0.410  -0.897  0.3446  0.3262 -0.1365
 1822PEP     CB69172  18.283  -0.032  -0.958 -0.1976  0.2011  0.1671
 1822PEP     CB69173  18.112  -0.196  -1.180 -0.0601  0.2783  0.0906
 1822PEP     CB69174  17.966  -0.093  -1.532 -0.1110 -0.0837  0.2624
 1822PEP     CB69175  17.714   0.181  -1.701  0.1356  0.0497 -0.0435
 1822PEP     CB69176  17.721   0.580  -1.629  0.0854  0.1037  0.1882
 1822PEP     CB69177  17.484   0.993  -1.774  0.1021 -0.3325 -0.1105
 1822PEP     CB69178  17.331   1.500  -1.703 -0.2048 -0.3853 -0.2067
 1822PEP     CB69179  16.903   1.705  -1.803  0.1230  0.1760 -0.2527
 1822PEP     CB69180  16.679   1.490  -2.210 -0.0327  0.4671  0.2128
 1822PEP     CB69181  16.902   1.407  -2.614  0.3787  0.1851  0.3238
 1822PEP     CB69182  17.282   1.208  -2.726  0.0137 -0.0487 -0.0509
 1822PEP     CB69183  17.484   0.772  -2.765 -0.0909  0.2620  0.5200
 1822PEP     CB69184  17.661   0.419  -2.587 -0.1284  0.1508 -0.1554
 1822PEP     CB69185  17.909   0.265  -2.146 -0.1577  0.3286  0.0512
 1822PEP     CB69186  18.165   0.341  -1.957  0.3634 -0.2596  0.1807
 1822PEP     CB69187  18.449   0.801  -1.787  0.0043 -0.0664  0.1366
 1822PEP     CB69188  18.589   1.092  -2.033 -0.0113 -0.0008  0.3429
 1822PEP     CB69189  18.916   1.385  -1.971 -0.0107 -0.0941  0.2229
 1822PEP     CB69190  19.286   1.495  -1.661 -0.1985  0.0231 -0.1018
 1822PEP     CB69191  19.395   1.576  -1.240  0.0070 -0.4409  0.2445
 1822PEP     CB69192  19.725   1.682  -0.979 -0.2306 -0.1726  0.1641
 1822PEP     CB69193  20.038   2.136  -0.843  0.2987  0.0625  0.2479
 1822PEP     CB69194  19.970   2.521  -0.980  0.0220 -0.2201  0.1197
 1822PEP     CB69195  19.754   2.773  -1.204 -0.0880  0.1095 -0.2084
 1822PEP     CB69196  19.365   2.962  -1.098  0.3431 -0.1843  0.3640
 1822PEP     CB69197  19.093   2.770  -0.835 -0.0400  0.0936  0.2146
 1822PEP     CB69198  18.762   2.745  -0.555  0.1151  0.3325 -0.1206
 1822PEP     CB69199  18.372   2.569  -0.578  0.1918  0.0535 -0.1450
 1822PEP     CB69200  18.170   2.151  -0.652 -0.2078  0.2416  0.2577
 1823PEP     CB69201   5.892   5.973   4.524 -0.2456 -0.2194  0.0523
 1823PEP     CB69202   5.629   6.356   4.578  0.2607  0.2120 -0.0452
 1823PEP     CB69203   5.507   6.800   4.831 -0.1548  0.2063  0.2751
 1823PEP     CB69204   5.670   7.014   5.047  0.1395 -0.4980  0.0644
 1823PEP     CB69205   6.099   7.068   5.041  0.2432 -0.2159 -0.2948
 1823PEP     CB69206   6.455   6.945   4.972  0.1072  0.0649  0.0370
 1823PEP     CB69207   6.705   7.046   4.632  0.3174  0.0153  0.1029
 1823PEP     CB69208   6.807   7.214   4.283  0.1543 -0.0729  0.2684
 1823PEP     CB69209   6.791   7.613   4.337 -0.0305 -0.1805 -0.4002
 1823PEP     CB69210   6.330   7.586   4.582 -0.3312  0.0869  0.6623
 1823PEP     CB69211   5.954   7.250   4.543  0.2791  0.0196 -0.3339
 1823PEP     CB69212   5.776   6.864   4.377  0.0930  0.0543  0.1777
 1823PEP     CB69213   5.702   6.505   4.083  0.0616  0.1600 -0.4462
 1823PEP     CB69214   5.938   6.118   4.026 -0.1435  0.0288 -0.2703
 1823PEP     CB69215   6.277   5.913   4.251  0.0465 -0.0580  0.0272
 1823PEP     CB69216   6.527   5.859   4.663  0.2053 -0.1242  0.3435
 1823PEP     CB69217   6.569   5.444   4.895  0.1313 -0.0671 -0.0304
 1823PEP     CB69218   6.529   5.090   4.808 -0.1794  0.2006  0.1494
 1823PEP     CB69219   6.485   4.681   4.729 -0.0810 -0.1295 -0.2147
 1823PEP     CB69220   6.421   4.424   4.388 -0.1015  0.0361  0.1865
 1823PEP     CB69221   6.089   4.148   4.319  0.1471 -0.1952 -0.2587
 1823PEP     CB69222   5.648   4.198   4.409  0.0402  0.0506 -0.1868
 1823PEP     CB69223   5.260   4.334   4.594  0.2241 -0.1689  0.3894
 1823PEP     CB69224   5.118   4.209   4.978 -0.1382 -0.1820  0.3709
 1823PEP     CB69225   5.256   3.822   5.151 -0.3136 -0.1148 -0.1654
 1823PEP     CB69226   5.154   3.406   5.354  0.2323 -0.1844  0.1575
 1823PEP     CB69227   5.317   3.110   5.618 -0.0079 -0.4402 -0.1030
 1823PEP     CB69228   5.613   3.324   5.896 -0.2175 -0.2188  0.1629
 1823PEP     CB69229   5.580   3.823   6.068  0.1222  0.2991  0.0073
 1823PEP     CB69230   5.233   4.098   6.114  0.0923 -0.0291 -0.2065
 1823PEP     CB69231   4.774   4.202   6.123  0.0429  0.1397 -0.5101
 1823PEP     CB69232   4.381   4.049   6.165 -0.1989 -0.1367  0.0936
 1823PEP     CB69233   3.934   3.975   6.347 -0.1041  0.2204  0.3183
 1823PEP     CB69234   3.669   4.004   6.679  0.0033  0.0118 -0.1425
 1823PEP     CB69235   3.317   3.951   6.962  0.0194 -0.1583  0.3213
 1823PEP     CB69236   3.031   4.240   7.159 -0.0433  0.0459 -0.0047
 1823PEP     CB69237   2.930   4.554   6.886  0.1032 -0.1460 -0.0581
 1823PEP     CB69238   3.118   4.867   6.632 -0.3902  0.3069 -0.1974
 1823PEP     CB69239   3.361   4.860   6.325  0.0407 -0.3591  0.0793
 1823PEP     CB69240   3.361   4.659   5.885 -0.3011 -0.1041  0.3005
 1824PEP     CB69241  20.889   9.236   4.995 -0.3120 -0.0703  0.3528
 1824PEP     CB69242  20.648   9.318   4.659 -0.0317  0.3790 -0.0556
 1824PEP     CB69243  20.591   9.225   4.235 -0.3119 -0.0955  0.1819
 1824PEP     CB69244  20.307   9.402   3.862 -0.0697 -0.0816 -0.0760
 1824PEP     CB69245  20.007   9.756   3.865  0.2739 -0.1170  0.1389
 1824PEP     CB69246  19.801   9.875   4.269 -0.0504  0.1874 -0.1586
 1824PEP     CB69247  19.924   9.735   4.658 -0.0378 -0.1673  0.0557
 1824PEP     CB69248  20.129   9.422   4.827  0.2162 -0.3448  0.0259
 1824PEP     CB69249  20.014   9.051   4.939 -0.0204 -0.3380 -0.0273
 1824PEP     CB69250  19.680   8.717   4.893 -0.1718 -0.1381 -0.1957
 1824PEP     CB69251  19.462   8.397   4.944  0.1200  0.0612  0.0306
 1824PEP     CB69252  19.071   8.208   4.598 -0.1843 -0.3467 -0.2804
 1824PEP     CB69253  18.854   8.441   4.314  0.1104  0.3520  0.0064
 1824PEP     CB69254  18.823   8.825   4.196  0.1413 -0.2055 -0.0223
 1824PEP     CB69255  18.571   9.189   4.234  0.1367 -0.1084 -0.0529
 1824PEP     CB69256  18.245   9.223   4.572 -0.1389  0.0301  0.0027
 1824PEP     CB69257  18.187   8.907   4.767  0.4232  0.1115 -0.2203
 1824PEP     CB69258  18.200   8.451   4.712 -0.2657  0.3431  0.5690
 1824PEP     CB69259  18.358   8.058   4.617  0.0470 -0.3232  0.0397
 1824PEP     CB69260  18.593   7.633   4.528  0.0671  0.4778  0.3494
 1824PEP     CB69261  18.825   7.307   4.235 -0.1703 -0.1479 -0.1449
 1824PEP     CB69262  19.105   7.389   3.842  0.1312  0.2731 -0.4040
 1824PEP     CB69263  19.509   7.377   3.698  0.0074  0.2044  0.4002
 1824PEP     CB69264  19.894   7.535   3.625 -0.2207  0.1230 -0.1573
 1824PEP     CB69265  20.045   7.611   3.221 -0.1170 -0.0707 -0.1887
 1824PEP     CB69266  19.959   7.442   2.791 -0.0963 -0.2017 -0.1515
 1824PEP     CB69267  19.742   7.201   2.578  0.3683 -0.1133  0.0732
 1824PEP     CB69268  19.396   7.146   2.299  0.0137  0.1445  0.2137
 1824PEP     CB69269  19.022   7.378   2.051  0.0755  0.0948 -0.1824
 1824PEP     CB69270  18.876   7.797   1.821 -0.2341  0.0335  0.2873
 1824PEP     CB69271  18.997   8.271   1.861 -0.1197 -0.1292  0.0114
 1824PEP     CB69272  19.155   8.697   1.680  0.1216  0.3672  0.1553
 1824PEP     CB69273  19.062   8.905   1.275 -0.5092 -0.1036 -0.1883
 1824PEP     CB69274  18.745   8.928   0.913  0.0868  0.2079  0.0585
 1824PEP     CB69275  18.595   8.615   0.593 -0.3524 -0.0465 -0.3593
 1824PEP     CB69276  18.613   8.132   0.323 -0.1900 -0.4217 -0.2171
 1824PEP     CB69277  18.603   7.731   0.304  0.0335  0.0263 -0.1083
 1824PEP     CB69278  18.481   7.346   0.243 -0.0040  0.0930  0.0661
 1824PEP     CB69279  18.142   6.960   0.130  0.2436  0.0713  0.0606
 1824PEP     CB69280  18.118   6.479   0.271 -0.2806 -0.1436  0.3202
 1825PEP     CB69281   9.820  18.038   2.672  0.3516 -0.0525  0.0030
 1825PEP     CB69282   9.503  18.341   2.689 -0.1022  0.1462  0.3825
 1825PEP     CB69283   9.069  18.584   2.694 -0.2156  0.2091  0.2732
 1825PEP     CB69284   8.710  18.813   2.709 -0.2573 -0.1240 -0.0169
 1825PEP     CB69285   8.394  19.018   2.520 -0.0557 -0.6132 -0.1771
 1825PEP     CB69286   8.150  19.418   2.418  0.2940  0.1748 -0.0189
 1825PEP     CB69287   7.776  19.530   2.269 -0.2669 -0.0377 -0.2199
 1825PEP     CB69288   7.332  19.537   2.239  0.1410 -0.0031 -0.2092
 1825PEP     CB69289   7.059  19.866   2.430 -0.0906  0.1178 -0.0029
 1825PEP     CB69290   7.098  20.113   2.704 -0.4720 -0.0080  0.2355
 1825PEP     CB69291   6.857  20.431   2.813 -0.3922 -0.1758 -0.0845
 1825PEP     CB69292   6.559  20.783   2.982 -0.0874  0.3719  0.3229
 1825PEP     CB69293   6.609  20.954   3.313  0.0924  0.2495  0.0891
 1825PEP     CB69294   6.706  21.113   3.752  0.3295 -0.1976 -0.3127
 1825PEP     CB69295   6.606  21.439   4.048 -0.1051 -0.0884 -0.0175
 1825PEP     CB69296   6.148  21.688   4.346  0.2446  0.0887 -0.3302
 1825PEP     CB69297   5.751  21.932   4.364  0.1034 -0.0278 -0.2210
 1825PEP     CB69298   5.357  21.972   4.489 -0.0168  0.0601 -0.0417
 1825PEP     CB69299   5.078  21.652   4.490 -0.0467  0.2404  0.2756
 1825PEP     CB69300   4.734  21.347   4.431 -0.1087 -0.1207  0.1991
 1825PEP     CB69301   4.402  21.116   4.359  0.1953 -0.2404  0.0469
 1825PEP     CB69302   3.978  20.864   4.280 -0.2714 -0.1241  0.2542
 1825PEP     CB69303   3.681  20.652   4.012  0.0042  0.1117 -0.0498
 1825PEP     CB69304   3.389  20.553   3.696  0.2087  0.0017  0.4414
 1825PEP     CB69305   2.895  20.599   3.551  0.0318  0.5125 -0.2450
 1825PEP     CB69306   2.554  20.538   3.808  0.0177 -0.1844 -0.0353
 1825PEP     CB69307   2.135  20.596   3.902 -0.4278  0.0569  0.0418
 1825PEP     CB69308   1.697  20.682   3.769  0.0124  0.0504 -0.0270
 1825PEP     CB69309   1.345  20.456   3.472  0.3802 -0.1915  0.2627
 1825PEP     CB69310   1.031  20.542   3.198 -0.1139 -0.0079  0.0989
 1825PEP     CB69311   1.035  20.529   2.716 -0.1688 -0.0961 -0.1913
 1825PEP     CB69312   0.904  20.436   2.340  0.0069 -0.2180 -0.0098
 1825PEP     CB69313   0.879  20.607   1.963 -0.0457  0.1189 -0.1319
 1825PEP     CB69314   0.870  20.398   1.601 -0.0607 -0.0744 -0.3005
 1825PEP     CB69315   0.822  19.930   1.563 -0.4888  0.7019  0.1590
 1825PEP     CB69316   0.560  19.584   1.749 -0.1923  0.3716 -0.1139
 1825PEP     CB69317   0.613  19.217   1.864 -0.3517  0.1956 -0.0228
 1825PEP     CB69318   0.940  18.935   1.780 -0.3673  0.1478  0.0046
 1825PEP     CB69319   1.157  18.552   1.905  0.1232  0.2736  0.2083
 1825PEP     CB69320   1.559  18.362   1.799  0.0764  0.3127 -0.2924
 1826PEP     CB69321   2.428  18.948  21.746 -0.3429  0.2031  0.0363
 1826PEP     CB69322   2.279  19.404  21.942  0.1343 -0.4445 -0.3116
 1826PEP     CB69323   2.058  19.706  21.913  0.0726 -0.0048 -0.0073
 1826PEP     CB69324   1.981  20.013  22.107  0.3136  0.0041 -0.1687
 1826PEP     CB69325   1.775  20.083  22.552  0.2493 -0.2097 -0.2160
 1826PEP     CB69326   1.655  20.272  22.981  0.3171 -0.1956 -0.0827
 1826PEP     CB69327   1.564  20.630  23.216 -0.2608  0.0818  0.1328
 1826PEP     CB69328   1.407  20.933  23.452 -0.2748 -0.7304 -0.0916
 1826PEP     CB69329   1.075  21.257  23.560  0.3379  0.0504  0.1769
 1826PEP     CB69330   0.935  21.599  23.813  0.0651  0.1394 -0.1798
 1826PEP     CB69331   0.619  21.689  24.078 -0.0546 -0.0382 -0.0619
 1826PEP     CB69332   0.252  21.479  24.258  0.2321  0.1878 -0.1577
 1826PEP     CB69333   0.211  21.077  24.308 -0.0980 -0.0868  0.1206
 1826PEP     CB69334   0.254  20.758  23.882 -0.0652 -0.3481  0.1335
 1826PEP     CB69335   0.470  20.685  23.510  0.3341 -0.3053 -0.1021
 1826PEP     CB69336   0.827  20.885  23.313 -0.5688  0.1291 -0.0018
 1826PEP     CB69337   1.063  21.014  22.917  0.0908  0.0609  0.0112
 1826PEP     CB69338   0.892  21.014  22.462 -0.0914 -0.2083  0.1108
 1826PEP     CB69339   0.547  20.836  22.385 -0.1499  0.1867 -0.1390
 1826PEP     CB69340   0.259  20.464  22.405  0.0241 -0.1194 -0.0976
 1826PEP     CB69341   0.280  19.945  22.473  0.0104 -0.1239  0.5832
 1826PEP     CB69342   0.467  19.603  22.330 -0.2596 -0.1076 -0.2262
 1826PEP     CB69343   0.537  19.253  22.089  0.0236  0.0266 -0.3322
 1826PEP     CB69344   0.388  18.759  21.965 -0.1873  0.0854  0.4280
 1826PEP     CB69345   0.306  18.332  22.019 -0.4819  0.1421 -0.1355
 1826PEP     CB69346   0.421  17.932  21.846 -0.2532 -0.2271  0.3202
 1826PEP     CB69347   0.402  17.625  21.506  0.1996  0.2473 -0.0813
 1826PEP     CB69348   0.208  17.404  21.232  0.2239  0.3763  0.1336
 1826PEP     CB69349  -0.132  17.265  20.916 -0.1837 -0.2280 -0.0047
 1826PEP     CB69350  -0.259  16.968  20.578 -0.3982  0.0096 -0.1537
 1826PEP     CB69351  -0.423  16.549  20.550 -0.3121 -0.1407  0.3260
 1826PEP     CB69352  -0.491  16.182  20.729  0.2240 -0.0829 -0.1637
 1826PEP     CB69353  -0.228  15.822  20.643 -0.1276  0.0214  0.6100
 1826PEP     CB69354   0.237  15.811  20.556  0.0605  0.3954  0.0919
 1826PEP     CB69355   0.502  16.117  20.723  0.0748 -0.1837  0.1014
 1826PEP     CB69356   0.570  16.453  20.898 -0.1407 -0.1551  0.3707
 1826PEP     CB69357   0.848  16.824  20.799  0.1313  0.1144 -0.3984
 1826PEP     CB69358   0.997  17.194  20.949 -0.0142 -0.3880  0.1042
 1826PEP     CB69359   0.949  17.567  21.087 -0.1377 -0.0173 -0.0670
 1826PEP     CB69360   0.880  17.702  21.510  0.1747 -0.2321 -0.2920
 1827PEP     CB69361   6.187  19.729   5.372 -0.0358  0.2373 -0.2782
 1827PEP     CB69362   6.408  19.768   5.727  0.1331 -0.1342 -0.1644
 1827PEP     CB69363   6.611  20.277   5.907  0.1415 -0.0432  0.1337
 1827PEP     CB69364   6.676  20.660   5.604 -0.4914 -0.2417  0.2993
 1827PEP     CB69365   6.699  20.548   5.104  0.2914  0.1702 -0.2080
 1827PEP     CB69366   6.877  20.138   4.978 -0.3124 -0.5095  0.1134
 1827PEP     CB69367   7.309  19.899   5.156  0.1615  0.4579 -0.5448
 1827PEP     CB69368   7.424  19.649   5.446 -0.1320  0.0349  0.0674
 1827PEP     CB69369   7.209  19.327   5.656  0.1836  0.0926  0.0819
 1827PEP     CB69370   7.296  18.977   5.917 -0.2050  0.1264 -0.2301
 1827PEP     CB69371   7.114  18.616   6.055  0.0028  0.2937 -0.1423
 1827PEP     CB69372   6.964  18.334   6.414  0.4264 -0.0803  0.0832
 1827PEP     CB69373   7.135  18.074   6.798 -0.2304 -0.2994 -0.0928
 1827PEP     CB69374   7.502  17.882   6.969  0.2775 -0.1756  0.1508
 1827PEP     CB69375   7.733  17.565   7.081  0.2309  0.1211  0.1741
 1827PEP     CB69376   7.660  17.376   7.451 -0.0642  0.1512  0.2237
 1827PEP     CB69377   7.615  17.128   7.812 -0.3174  0.0635  0.0833
 1827PEP     CB69378   7.444  16.859   8.128 -0.0665 -0.1922  0.0479
 1827PEP     CB69379   7.420  16.638   8.489  0.1757  0.1321 -0.0295
 1827PEP     CB69380   7.134  16.534   8.828 -0.0397 -0.0346  0.2981
 1827PEP     CB69381   6.895  16.697   9.107 -0.3588 -0.0152  0.0305
 1827PEP     CB69382   6.690  16.729   9.472 -0.0320  0.3583  0.0329
 1827PEP     CB69383   6.431  16.776   9.715 -0.5199  0.1053  0.0498
 1827PEP     CB69384   6.191  16.776  10.079  0.3183 -0.0751 -0.0075
 1827PEP     CB69385   6.116  17.015  10.384  0.1593  0.1311  0.2405
 1827PEP     CB69386   5.930  17.317  10.748  0.3303  0.0811  0.0031
 1827PEP     CB69387   5.722  17.747  10.792  0.3236  0.2283  0.0351
 1827PEP     CB69388   5.459  18.028  10.489 -0.2169  0.1621 -0.2037
 1827PEP     CB69389   5.187  18.078  10.161 -0.3197  0.1896  0.0574
 1827PEP     CB69390   4.825  17.810   9.960  0.1156 -0.0496 -0.3382
 1827PEP     CB69391   4.605  17.375   9.942  0.4779  0.1998  0.2694
 1827PEP     CB69392   4.788  16.860   9.995  0.1314  0.1049 -0.0158
 1827PEP     CB69393   4.530  16.506  10.166  0.0963 -0.0030 -0.0334
 1827PEP     CB69394   4.242  16.541  10.539 -0.0746  0.0424 -0.2960
 1827PEP     CB69395   4.199  16.835  10.906  0.0132  0.5366 -0.1772
 1827PEP     CB69396   4.493  17.163  11.138 -0.1214 -0.3751  0.0785
 1827PEP     CB69397   4.504  17.402  11.492  0.2082  0.0436  0.2225
 1827PEP     CB69398   4.262  17.412  11.858 -0.3499  0.1103 -0.1500
 1827PEP     CB69399   4.466  17.255  12.284 -0.0180 -0.0100 -0.0202
 1827PEP     CB69400   4.993  17.247  12.356  0.0064 -0.2125  0.2344
 1828PEP     CB69401  10.530   1.020  19.237 -0.3441  0.0922 -0.2859
 1828PEP     CB69402  10.612   0.996  19.664 -0.0052  0.0949  0.1487
 1828PEP     CB69403  10.714   0.628  19.929  0.1175  0.2393  0.1760
 1828PEP     CB69404  10.445   0.256  20.097  0.2950  0.3926 -0.0299
 1828PEP     CB69405  10.039   0.248  20.373 -0.1302 -0.3638 -0.2581
 1828PEP     CB69406   9.650   0.203  20.351  0.0867 -0.1488  0.2396
 1828PEP     CB69407   9.241   0.390  20.061 -0.2699  0.3021 -0.1273
 1828PEP     CB69408   9.030   0.767  19.845 -0.3332  0.1467  0.0088
 1828PEP     CB69409   9.178   1.145  20.045  0.1371  0.3540 -0.0961
 1828PEP     CB69410   9.308   1.384  20.413 -0.0539  0.1829  0.2560
 1828PEP     CB69411   9.229   1.355  20.836  0.1290  0.2516  0.3809
 1828PEP     CB69412   9.111   1.453  21.214 -0.2314  0.1153 -0.2652
 1828PEP     CB69413   8.825   1.326  21.518 -0.0778 -0.0900  0.0328
 1828PEP     CB69414   8.706   0.883  21.554  0.0793  0.0355 -0.4408
 1828PEP     CB69415   8.957   0.468  21.417 -0.2401  0.0147  0.2120
 1828PEP     CB69416   9.429   0.501  21.294 -0.0385  0.1391 -0.1139
 1828PEP     CB69417   9.840   0.697  21.388 -0.1849  0.0679  0.1687
 1828PEP     CB69418  10.262   0.725  21.522  0.0978 -0.0227 -0.1875
 1828PEP     CB69419  10.711   0.680  21.461  0.0426  0.1693  0.2967
 1828PEP     CB69420  10.802   0.478  21.002 -0.1832 -0.2190  0.3315
 1828PEP     CB69421  10.408   0.436  20.724  0.1703 -0.0169 -0.2070
 1828PEP     CB69422   9.986   0.673  20.833  0.2434 -0.1928 -0.3424
 1828PEP     CB69423   9.737   1.087  20.868  0.0990  0.3283 -0.2364
 1828PEP     CB69424   9.795   1.570  21.002 -0.3735  0.2054  0.2703
 1828PEP     CB69425   9.932   1.711  21.315 -0.3010  0.1811 -0.0182
 1828PEP     CB69426   9.814   1.622  21.785  0.5374 -0.2205  0.0948
 1828PEP     CB69427  10.082   1.314  22.092  0.3718  0.0397 -0.0604
 1828PEP     CB69428  10.554   1.434  22.148 -0.1683 -0.0415  0.0699
 1828PEP     CB69429  10.820   1.703  21.848  0.0670  0.1297  0.1497
 1828PEP     CB69430  10.923   1.930  21.617 -0.0181  0.0226 -0.1347
 1828PEP     CB69431  11.139   2.106  21.225  0.0051  0.0842 -0.1067
 1828PEP     CB69432  11.421   2.184  20.892  0.4142  0.3406  0.3731
 1828PEP     CB69433  11.272   2.282  20.512 -0.1578 -0.3350 -0.4669
 1828PEP     CB69434  10.987   2.510  20.381  0.2899 -0.2627 -0.2391
 1828PEP     CB69435  10.525   2.633  20.444  0.1517  0.2063 -0.1841
 1828PEP     CB69436  10.029   2.715  20.359 -0.3504  0.3548 -0.2217
 1828PEP     CB69437   9.620   2.553  20.413  0.3040 -0.1709  0.2192
 1828PEP     CB69438   9.427   2.250  20.273 -0.2924 -0.2997  0.2024
 1828PEP     CB69439   8.961   2.009  20.277  0.1928 -0.2635 -0.2418
 1828PEP     CB69440   8.569   2.060  20.486  0.0017  0.4823 -0.0798
 1829PEP     CB69441   0.686   0.104   2.693  0.2326  0.3166 -0.0645
 1829PEP     CB69442   0.234   0.263   2.831  0.2177  0.3279  0.1218
 1829PEP     CB69443  -0.207   0.102   2.851  0.1013  0.2704  0.4326
 1829PEP     CB69444  -0.381  -0.211   2.965  0.2355  0.0205 -0.3206
 1829PEP     CB69445  -0.601  -0.505   3.277  0.2082 -0.1279 -0.2459
 1829PEP     CB69446  -0.592  -0.788   3.620  0.3145 -0.3767 -0.3060
 1829PEP     CB69447  -0.296  -0.890   3.888 -0.3255  0.3936 -0.2540
 1829PEP     CB69448   0.026  -1.010   3.901  0.0288 -0.1454 -0.2557
 1829PEP     CB69449   0.177  -1.396   3.690 -0.2394 -0.3552 -0.3913
 1829PEP     CB69450   0.066  -1.520   3.258 -0.0387  0.2616  0.1306
 1829PEP     CB69451   0.163  -1.640   2.910  0.0142 -0.3034 -0.0076
 1829PEP     CB69452   0.355  -1.539   2.549 -0.0236 -0.4015  0.3224
 1829PEP     CB69453   0.487  -1.731   2.109  0.1198 -0.0229  0.0350
 1829PEP     CB69454   0.432  -1.900   1.803 -0.0996 -0.0334  0.6011
 1829PEP     CB69455   0.174  -2.222   1.509 -0.2036 -0.0419 -0.0619
 1829PEP     CB69456  -0.191  -2.409   1.306  0.1334 -0.1387  0.3118
 1829PEP     CB69457  -0.360  -2.585   1.028  0.0448 -0.1447  0.2367
 1829PEP     CB69458  -0.797  -2.599   0.696 -0.1092 -0.1282  0.1801
 1829PEP     CB69459  -1.090  -2.314   0.433 -0.0490  0.2449 -0.0971
 1829PEP     CB69460  -1.535  -2.273   0.373 -0.0368  0.1631  0.0695
 1829PEP     CB69461  -1.911  -2.319   0.094 -0.1302  0.1410 -0.0476
 1829PEP     CB69462  -2.251  -2.530   0.039  0.5344 -0.0997  0.0761
 1829PEP     CB69463  -2.654  -2.367   0.131  0.0801  0.0214  0.0639
 1829PEP     CB69464  -2.606  -2.130   0.490 -0.0530 -0.1977  0.3437
 1829PEP     CB69465  -2.491  -2.355   0.856 -0.0048  0.1753 -0.3048
 1829PEP     CB69466  -2.417  -2.620   1.261 -0.1144 -0.2405  0.2181
 1829PEP     CB69467  -2.188  -2.692   1.624  0.0676  0.1079  0.3690
 1829PEP     CB69468  -2.098  -2.469   2.026 -0.2338  0.1563  0.3769
 1829PEP     CB69469  -2.071  -2.130   2.161  0.1233  0.1640 -0.0773
 1829PEP     CB69470  -1.913  -1.718   1.976  0.4539 -0.0626  0.2026
 1829PEP     CB69471  -1.671  -1.506   1.684 -0.0700 -0.6273  0.2808
 1829PEP     CB69472  -1.564  -1.221   1.254  0.1223  0.0111 -0.0400
 1829PEP     CB69473  -1.204  -1.343   0.926  0.4157  0.3856  0.0310
 1829PEP     CB69474  -0.848  -1.375   0.664 -0.0336  0.0013  0.1329
 1829PEP     CB69475  -0.555  -1.401   0.277 -0.0010  0.1928 -0.3137
 1829PEP     CB69476  -0.498  -1.463  -0.150  0.3550  0.0961 -0.1949
 1829PEP     CB69477  -0.341  -1.603  -0.459 -0.3489 -0.1750  0.2751
 1829PEP     CB69478  -0.064  -1.657  -0.731 -0.2930  0.3803  0.5464
 1829PEP     CB69479   0.419  -1.784  -0.885 -0.1863 -0.4418  0.2363
 1829PEP     CB69480   0.961  -1.882  -0.910 -0.0474 -0.0772  0.1878
 1830PEP     CB69481   8.353  10.503   0.156 -0.3997  0.1544  0.3295
 1830PEP     CB69482   8.343  10.121  -0.086 -0.1095 -0.1926  0.0181
 1830PEP     CB69483   8.232   9.928  -0.408  0.2573 -0.3713 -0.2160
 1830PEP     CB69484   8.086  10.048  -0.871  0.3132 -0.0852 -0.2386
 1830PEP     CB69485   8.263  10.175  -1.308  0.3835  0.4027  0.1051
 1830PEP     CB69486   8.665  10.084  -1.449  0.3773 -0.1983  0.3374
 1830PEP     CB69487   9.077  10.075  -1.113  0.0507 -0.1069  0.0595
 1830PEP     CB69488   9.055  10.056  -0.713  0.2428  0.2368  0.3038
 1830PEP     CB69489   8.774   9.962  -0.448 -0.2270 -0.1629 -0.4276
 1830PEP     CB69490   8.708   9.789   0.008 -0.1104  0.0792  0.0977
 1830PEP     CB69491   8.774   9.543   0.390  0.2050  0.1755 -0.1788
 1830PEP     CB69492   8.725   9.433   0.809  0.1778  0.1924  0.1201
 1830PEP     CB69493   8.291   9.239   0.977  0.0254  0.1662  0.2116
 1830PEP     CB69494   8.201   9.003   1.345 -0.3295  0.3885 -0.0337
 1830PEP     CB69495   8.238   8.932   1.794  0.1886 -0.2005  0.1072
 1830PEP     CB69496   8.310   8.787   2.283 -0.1471 -0.3782  0.2974
 1830PEP     CB69497   8.562   8.692   2.666 -0.4961 -0.2378 -0.1884
 1830PEP     CB69498   8.789   8.922   2.925 -0.0770 -0.1476  0.6251
 1830PEP     CB69499   9.066   8.854   3.409  0.2766 -0.0681 -0.0907
 1830PEP     CB69500   9.298   8.614   3.631 -0.2825 -0.4867  0.0826
 1830PEP     CB69501   9.542   8.639   3.967  0.1162 -0.1400  0.1951
 1830PEP     CB69502   9.824   8.644   4.365 -0.4696 -0.0971 -0.0453
 1830PEP     CB69503  10.052   8.999   4.603 -0.0301 -0.0276 -0.0396
 1830PEP     CB69504  10.185   9.485   4.777  0.2334 -0.4637  0.0085
 1830PEP     CB69505  10.175   9.889   4.902  0.0805 -0.2469  0.0420
 1830PEP     CB69506   9.925  10.329   4.930  0.0387 -0.3584  0.0475
 1830PEP     CB69507   9.594  10.387   4.689 -0.0856 -0.2986 -0.4982
 1830PEP     CB69508   9.620  10.501   4.250 -0.5738 -0.2726  0.0106
 1830PEP     CB69509   9.643  10.254   3.924 -0.1717  0.0728  0.2515
 1830PEP     CB69510   9.649   9.919   3.629 -0.0383  0.0737 -0.2007
 1830PEP     CB69511   9.983   9.556   3.631 -0.2172  0.1496  0.2256
 1830PEP     CB69512  10.232   9.447   3.983  0.5574 -0.1075 -0.0892
 1830PEP     CB69513   9.981   9.472   4.357  0.2295 -0.3396  0.2139
 1830PEP     CB69514   9.694   9.442   4.744 -0.2715  0.1280  0.3521
 1830PEP     CB69515   9.431   9.363   5.061 -0.0039  0.0119 -0.0140
 1830PEP     CB69516   8.985   9.454   5.126  0.3365 -0.0025  0.1946
 1830PEP     CB69517   8.866   9.884   5.204  0.2650 -0.0130 -0.3164
 1830PEP     CB69518   9.099  10.254   5.346  0.2187 -0.5206 -0.1533
 1830PEP     CB69519   9.542  10.266   5.361  0.0349  0.4112 -0.2018
 1830PEP     CB69520   9.984  10.016   5.468  0.2919  0.0413  0.1363
 1831PEP     CB69521  16.878   3.255  17.549 -0.2070 -0.0338 -0.0245
 1831PEP     CB69522  16.706   3.384  17.919  0.2420 -0.4481  0.0852
 1831PEP     CB69523  16.412   3.714  18.170  0.4050  0.0039 -0.0600
 1831PEP     CB69524  16.122   3.853  18.420  0.2759  0.0002 -0.1741
 1831PEP     CB69525  15.939   3.816  18.795  0.1504 -0.4937  0.1023
 1831PEP     CB69526  15.917   3.825  19.264 -0.0481  0.0811  0.2441
 1831PEP     CB69527  15.655   3.937  19.640  0.2347 -0.0731  0.2773
 1831PEP     CB69528  15.562   3.764  20.023 -0.1766  0.1662  0.0995
 1831PEP     CB69529  15.345   3.900  20.444 -0.0683 -0.0815 -0.3028
 1831PEP     CB69530  15.297   3.701  20.857  0.2513 -0.1388 -0.4202
 1831PEP     CB69531  15.032   3.466  20.985  0.0432  0.1288 -0.0623
 1831PEP     CB69532  14.853   3.074  21.046 -0.1418  0.0598 -0.2353
 1831PEP     CB69533  14.748   2.723  21.298 -0.2526  0.1119  0.2640
 1831PEP     CB69534  14.459   2.803  21.616 -0.2112  0.2656 -0.2784
 1831PEP     CB69535  14.355   3.228  21.779  0.6004 -0.0697  0.1373
 1831PEP     CB69536  14.641   3.453  22.080  0.1774  0.0686  0.0663
 1831PEP     CB69537  15.128   3.405  22.107 -0.2216  0.5832  0.3260
 1831PEP     CB69538  15.408   3.371  21.815 -0.3298  0.0904  0.0481
 1831PEP     CB69539  15.553   3.653  21.619 -0.1015 -0.1604  0.4004
 1831PEP     CB69540  15.638   4.039  21.334 -0.5056 -0.2603 -0.0724
 1831PEP     CB69541  15.517   4.427  21.411  0.0839 -0.1890 -0.1900
 1831PEP     CB69542  15.163   4.744  21.524 -0.1382  0.1026  0.1810
 1831PEP     CB69543  14.754   5.051  21.438 -0.0652 -0.0531  0.3278
 1831PEP     CB69544  14.423   5.269  21.464  0.1031 -0.0944 -0.0198
 1831PEP     CB69545  14.177   5.621  21.489  0.1358  0.0319  0.0278
 1831PEP     CB69546  14.053   6.028  21.450 -0.0255 -0.0116  0.0125
 1831PEP     CB69547  13.625   6.153  21.495  0.1138  0.0094 -0.2208
 1831PEP     CB69548  13.248   5.921  21.416  0.2159 -0.0003  0.0271
 1831PEP     CB69549  13.246   5.461  21.351 -0.0525  0.2176 -0.0635
 1831PEP     CB69550  13.581   5.130  21.462  0.1805  0.2601  0.3019
 1831PEP     CB69551  13.983   5.205  21.718  0.1654 -0.1224 -0.2452
 1831PEP     CB69552  14.089   5.561  21.974  0.1840  0.2208 -0.1873
 1831PEP     CB69553  13.951   5.988  21.931 -0.2734  0.0337 -0.2535
 1831PEP     CB69554  13.395   6.195  21.939  0.2122 -0.1011  0.3976
 1831PEP     CB69555  13.153   6.343  21.602 -0.0167  0.1312  0.1968
 1831PEP     CB69556  13.352   6.452  21.220 -0.1771 -0.0345  0.5586
 1831PEP     CB69557  13.762   6.506  21.186  0.1753  0.2685 -0.3645
 1831PEP     CB69558  14.235   6.387  21.218 -0.2732  0.1979  0.3150
 1831PEP     CB69559  14.607   6.496  21.258 -0.2997 -0.0533  0.0568
 1831PEP     CB69560  14.913   6.153  21.542  0.2232 -0.3464 -0.2142
 1832PEP     CB69561   9.006   5.356   7.226  0.3603 -0.1144 -0.1740
 1832PEP     CB69562   9.220   5.479   6.835  0.2758  0.2007  0.1052
 1832PEP     CB69563   9.270   5.736   6.508  0.2215  0.2494 -0.2052
 1832PEP     CB69564   9.560   5.684   6.122  0.2307  0.1671 -0.0797
 1832PEP     CB69565   9.636   5.294   5.894  0.0666  0.0641 -0.1348
 1832PEP     CB69566   9.666   4.879   5.590 -0.1060  0.2910 -0.5072
 1832PEP     CB69567   9.966   4.630   5.267  0.0599 -0.1128  0.0306
 1832PEP     CB69568  10.326   4.300   5.282  0.3649 -0.3159 -0.0270
 1832PEP     CB69569  10.549   4.060   5.003  0.1044  0.2029  0.3064
 1832PEP     CB69570  10.577   3.928   4.534  0.1400  0.1211  0.0611
 1832PEP     CB69571  10.688   3.647   4.238  0.1370  0.2930  0.1960
 1832PEP     CB69572  10.648   3.559   3.800 -0.0252 -0.2620  0.1020
 1832PEP     CB69573  10.959   3.391   3.385 -0.0691 -0.0548 -0.4386
 1832PEP     CB69574  11.401   3.466   3.292 -0.1706 -0.5484 -0.0676
 1832PEP     CB69575  11.609   3.778   3.137 -0.2196  0.0066  0.0891
 1832PEP     CB69576  11.999   3.819   2.883 -0.4167  0.2854  0.6268
 1832PEP     CB69577  12.249   3.594   2.635 -0.2709  0.0550  0.1389
 1832PEP     CB69578  12.376   3.213   2.391 -0.2840 -0.0134  0.0519
 1832PEP     CB69579  12.261   2.879   2.223  0.0005 -0.2688  0.0794
 1832PEP     CB69580  12.127   2.711   1.838 -0.5048  0.1510  0.6259
 1832PEP     CB69581  12.108   2.890   1.449 -0.0935 -0.3739  0.2556
 1832PEP     CB69582  12.293   3.187   1.323  0.1031 -0.4521 -0.1250
 1832PEP     CB69583  12.667   3.277   1.491 -0.0605  0.0734  0.0661
 1832PEP     CB69584  12.970   2.967   1.587  0.2455 -0.0939  0.0591
 1832PEP     CB69585  13.029   2.509   1.480  0.1875 -0.2475 -0.0988
 1832PEP     CB69586  13.262   2.096   1.454  0.4524  0.0936  0.1664
 1832PEP     CB69587  13.558   1.722   1.483 -0.0804 -0.2475  0.4043
 1832PEP     CB69588  13.381   1.199   1.474 -0.2692  0.1913 -0.2687
 1832PEP     CB69589  13.354   0.862   1.409 -0.1329  0.1002 -0.2945
 1832PEP     CB69590  13.088   0.444   1.429  0.2680  0.3136 -0.0632
 1832PEP     CB69591  12.745   0.411   1.610 -0.0376  0.2386 -0.1352
 1832PEP     CB69592  12.703   0.600   2.054 -0.2288  0.1236  0.2252
 1832PEP     CB69593  12.782   0.490   2.484  0.2414  0.1966  0.0836
 1832PEP     CB69594  13.037   0.442   2.868  0.0839 -0.0982 -0.0945
 1832PEP     CB69595  13.089   0.726   3.154  0.2101  0.3502 -0.4141
 1832PEP     CB69596  13.376   0.860   3.542  0.0573  0.6509  0.1133
 1832PEP     CB69597  13.590   1.219   3.667 -0.1599 -0.2737  0.0004
 1832PEP     CB69598  13.330   1.459   3.797 -0.1774  0.0194 -0.1558
 1832PEP     CB69599  12.914   1.486   3.776  0.1929 -0.0310  0.0476
 1832PEP     CB69600  12.459   1.428   3.526  0.0437 -0.3201 -0.1520
 1833PEP     CB69601  17.239  18.627   2.634  0.1170  0.1880  0.1879
 1833PEP     CB69602  16.922  18.670   2.926  0.2282  0.3209  0.0908
 1833PEP     CB69603  16.540  18.697   2.986 -0.2793 -0.0771  0.0835
 1833PEP     CB69604  16.061  18.554   3.025  0.3844  0.0697 -0.1642
 1833PEP     CB69605  15.668  18.336   3.016 -0.2610  0.2020 -0.0278
 1833PEP     CB69606  15.544  17.968   2.748  0.1105  0.1140  0.0439
 1833PEP     CB69607  15.584  17.815   2.369  0.0240 -0.0589 -0.1973
 1833PEP     CB69608  15.396  17.858   1.990 -0.1645  0.3276 -0.2905
 1833PEP     CB69609  15.232  18.209   1.804  0.0451  0.1101 -0.0026
 1833PEP     CB69610  14.819  18.347   1.670  0.1411  0.0486  0.1099
 1833PEP     CB69611  14.445  18.158   1.701  0.0122 -0.0366  0.2530
 1833PEP     CB69612  13.968  17.929   1.578  0.3808 -0.1204 -0.6960
 1833PEP     CB69613  13.702  17.607   1.353 -0.1913  0.2734 -0.0463
 1833PEP     CB69614  13.424  17.241   1.219 -0.1500 -0.0022 -0.1287
 1833PEP     CB69615  13.247  17.056   0.887  0.3527  0.3065  0.0986
 1833PEP     CB69616  12.910  17.109   0.531 -0.1226 -0.2250 -0.0263
 1833PEP     CB69617  12.699  17.414   0.219 -0.2156 -0.0439  0.0637
 1833PEP     CB69618  12.704  17.831   0.163  0.2293  0.0794 -0.5870
 1833PEP     CB69619  12.809  18.196   0.008  0.2429  0.1720 -0.3222
 1833PEP     CB69620  12.608  18.571   0.201 -0.1168  0.1449 -0.5043
 1833PEP     CB69621  12.435  18.662   0.610 -0.4079  0.0658  0.1213
 1833PEP     CB69622  12.066  18.729   0.820  0.1673  0.4327  0.4414
 1833PEP     CB69623  11.776  18.940   1.155  0.0130 -0.1660 -0.4226
 1833PEP     CB69624  11.510  19.076   1.482  0.5016  0.3163  0.1378
 1833PEP     CB69625  11.148  19.248   1.830 -0.4294 -0.2254 -0.0700
 1833PEP     CB69626  10.993  19.214   2.153  0.0569  0.1937 -0.3449
 1833PEP     CB69627  10.613  19.044   2.313  0.0742  0.0064 -0.1676
 1833PEP     CB69628  10.445  18.699   2.671 -0.1894  0.0521 -0.0170
 1833PEP     CB69629  10.262  18.525   3.035  0.0964  0.0133  0.1433
 1833PEP     CB69630  10.268  18.131   3.348 -0.1187 -0.1261 -0.5770
 1833PEP     CB69631  10.466  17.660   3.363 -0.0379  0.2553  0.0327
 1833PEP     CB69632  10.464  17.247   3.157  0.0699 -0.1544  0.5168
 1833PEP     CB69633  10.853  17.031   3.015 -0.2486  0.3292  0.1199
 1833PEP     CB69634  11.169  16.842   3.199 -0.1615  0.4542  0.2891
 1833PEP     CB69635  11.232  16.848   3.613 -0.2666  0.2217  0.0827
 1833PEP     CB69636  11.332  16.695   4.038 -0.1728  0.0350 -0.3186
 1833PEP     CB69637  11.338  16.652   4.578 -0.2880 -0.0772 -0.2916
 1833PEP     CB69638  11.270  16.212   4.761  0.1915  0.4038  0.2620
 1833PEP     CB69639  11.377  15.854   4.940 -0.1622  0.4379  0.1555
 1833PEP     CB69640  11.214  15.424   5.091 -0.0116  0.2409 -0.3006
 1834PEP     CB69641   0.989  21.331   8.322  0.1989  0.0059 -0.0335
 1834PEP     CB69642   0.854  20.934   8.498 -0.1769 -0.0809  0.0614
 1834PEP     CB69643   0.620  20.536   8.618  0.1080  0.0363  0.0979
 1834PEP     CB69644   0.234  20.239   8.522  0.3067 -0.1848 -0.3001
 1834PEP     CB69645  -0.014  19.946   8.224  0.1853  0.2663  0.2115
 1834PEP     CB69646  -0.080  19.576   7.896 -0.0126 -0.1170  0.2463
 1834PEP     CB69647  -0.365  19.387   7.669 -0.1967  0.0443 -0.0022
 1834PEP     CB69648  -0.790  19.376   7.944 -0.2686 -0.2744 -0.0007
 1834PEP     CB69649  -1.168  19.286   7.867  0.3081  0.0350  0.1660
 1834PEP     CB69650  -1.350  19.138   7.492 -0.0068 -0.0644  0.0388
 1834PEP     CB69651  -1.603  18.996   7.145 -0.2171  0.1495 -0.0489
 1834PEP     CB69652  -1.653  18.863   6.683  0.0897  0.0295 -0.1690
 1834PEP     CB69653  -1.871  18.784   6.294  0.1719  0.0300  0.1496
 1834PEP     CB69654  -2.341  18.677   6.255  0.4712  0.1990 -0.0415
 1834PEP     CB69655  -2.616  18.389   6.187 -0.1723 -0.1304  0.0634
 1834PEP     CB69656  -2.843  18.113   5.904  0.1921 -0.0494  0.2142
 1834PEP     CB69657  -3.089  17.701   5.823 -0.3813 -0.0150 -0.0701
 1834PEP     CB69658  -3.541  17.595   5.670  0.0081  0.0763 -0.0073
 1834PEP     CB69659  -3.856  17.995   5.494 -0.1447 -0.3497  0.1366
 1834PEP     CB69660  -4.222  18.213   5.583 -0.2740 -0.1308  0.0145
 1834PEP     CB69661  -4.570  18.167   5.956  0.1999  0.0565 -0.1966
 1834PEP     CB69662  -4.729  18.274   6.237  0.2576  0.3030 -0.0078
 1834PEP     CB69663  -4.912  18.248   6.667  0.0387 -0.0334 -0.0489
 1834PEP     CB69664  -4.972  18.050   7.011  0.1936  0.0625 -0.2576
 1834PEP     CB69665  -4.932  17.612   7.148  0.2413  0.0923 -0.2352
 1834PEP     CB69666  -4.975  17.190   7.161 -0.1326 -0.3520 -0.0627
 1834PEP     CB69667  -5.050  16.798   7.282 -0.1439 -0.4356 -0.0206
 1834PEP     CB69668  -4.937  16.418   7.540 -0.0884 -0.3080 -0.0602
 1834PEP     CB69669  -4.772  16.387   8.024 -0.4255  0.0259  0.0833
 1834PEP     CB69670  -5.001  16.473   8.430 -0.2886 -0.4507  0.0034
 1834PEP     CB69671  -5.138  16.142   8.732  0.0768  0.3412 -0.1280
 1834PEP     CB69672  -5.284  15.770   8.510  0.0924  0.3032  0.2700
 1834PEP     CB69673  -5.435  15.846   8.042  0.1303 -0.2816 -0.3366
 1834PEP     CB69674  -5.112  15.968   7.707 -0.3352 -0.0480  0.2295
 1834PEP     CB69675  -4.639  16.056   7.712 -0.3959 -0.1634  0.1174
 1834PEP     CB69676  -4.365  16.422   7.676 -0.0007 -0.2802 -0.0067
 1834PEP     CB69677  -4.507  16.861   7.865 -0.2829  0.1190 -0.3514
 1834PEP     CB69678  -4.920  17.018   8.014  0.0802  0.2026 -0.3250
 1834PEP     CB69679  -5.390  16.983   7.948 -0.0033 -0.1711 -0.0423
 1834PEP     CB69680  -5.457  16.933   7.546 -0.0448 -0.0599  0.3436
 1835PEP     CB69681   9.981   2.795  19.269  0.1292 -0.0824 -0.0175
 1835PEP     CB69682  10.076   2.409  19.429  0.3559 -0.0648  0.2824
 1835PEP     CB69683  10.168   2.063  19.571  0.2456 -0.2904 -0.1751
 1835PEP     CB69684  10.421   1.737  19.722 -0.1058  0.5844  0.1045
 1835PEP     CB69685  10.670   1.549  20.188 -0.3636  0.0751 -0.1070
 1835PEP     CB69686  11.007   1.560  20.505  0.4165  0.1399 -0.0200
 1835PEP     CB69687  11.398   1.812  20.563 -0.4446 -0.2141  0.0643
 1835PEP     CB69688  11.777   2.172  20.408 -0.1194  0.0914 -0.2293
 1835PEP     CB69689  12.210   2.202  20.405  0.0634  0.0189 -0.1469
 1835PEP     CB69690  12.469   1.917  20.635  0.4127  0.0321 -0.0253
 1835PEP     CB69691  12.484   1.397  20.577  0.1605 -0.3214 -0.0777
 1835PEP     CB69692  12.424   1.379  20.194  0.4328 -0.0977  0.4729
 1835PEP     CB69693  12.360   1.695  19.826 -0.0335 -0.0729  0.0454
 1835PEP     CB69694  12.164   2.188  19.802  0.4108 -0.3589 -0.0416
 1835PEP     CB69695  11.914   2.467  20.043  0.0125  0.3017 -0.0413
 1835PEP     CB69696  12.020   2.721  20.322  0.1801  0.1932  0.1879
 1835PEP     CB69697  12.448   2.741  20.378  0.2248  0.0824 -0.0761
 1835PEP     CB69698  12.692   2.550  20.070 -0.6386  0.1496 -0.2339
 1835PEP     CB69699  12.779   2.695  19.633 -0.1679  0.0414  0.2512
 1835PEP     CB69700  12.884   2.970  19.271  0.1738  0.0457  0.2455
 1835PEP     CB69701  12.722   2.914  18.798  0.1163  0.1205 -0.3200
 1835PEP     CB69702  12.398   2.840  18.506  0.3986  0.1383  0.3755
 1835PEP     CB69703  12.095   2.780  18.258 -0.4078 -0.2261 -0.0233
 1835PEP     CB69704  11.698   2.861  18.324  0.2196  0.0759  0.1671
 1835PEP     CB69705  11.552   3.196  18.614 -0.2072  0.1740  0.3315
 1835PEP     CB69706  11.657   3.249  19.071  0.2665  0.5822  0.1240
 1835PEP     CB69707  11.828   3.240  19.477  0.2465  0.2239  0.1756
 1835PEP     CB69708  11.828   3.392  19.922 -0.0804  0.4796 -0.3469
 1835PEP     CB69709  11.981   3.758  20.241 -0.0329  0.0249 -0.0795
 1835PEP     CB69710  12.436   3.730  20.390 -0.0434 -0.2621 -0.0857
 1835PEP     CB69711  12.854   3.731  20.159  0.3019  0.7631  0.4154
 1835PEP     CB69712  13.202   3.473  20.075 -0.4850 -0.2822  0.2761
 1835PEP     CB69713  13.476   3.044  20.113 -0.0238 -0.0961  0.2275
 1835PEP     CB69714  13.609   2.723  20.273 -0.3888 -0.1001  0.2770
 1835PEP     CB69715  13.688   2.313  20.361  0.0416  0.0816  0.1511
 1835PEP     CB69716  13.941   1.923  20.474  0.2421 -0.0204 -0.0716
 1835PEP     CB69717  14.123   1.644  20.808  0.2719 -0.4300  0.1682
 1835PEP     CB69718  14.310   1.700  21.343  0.2482 -0.0380 -0.1878
 1835PEP     CB69719  14.655   1.823  21.589  0.2449  0.2287  0.1215
 1835PEP     CB69720  14.864   2.105  21.480  0.0192 -0.3558  0.1776
 1836PEP     CB69721   5.558  16.747  21.541  0.1153  0.3175 -0.0501
 1836PEP     CB69722   5.246  16.570  21.567  0.1920  0.0099  0.4465
 1836PEP     CB69723   5.047  16.371  21.253 -0.2188 -0.0707 -0.4006
 1836PEP     CB69724   5.243  16.065  20.884 -0.0839 -0.4033  0.3109
 1836PEP     CB69725   5.565  16.159  20.628 -0.0585  0.0425  0.3108
 1836PEP     CB69726   5.895  16.244  20.433 -0.3235  0.2506 -0.2948
 1836PEP     CB69727   6.020  16.322  19.957 -0.2059  0.0480  0.0331
 1836PEP     CB69728   5.874  16.238  19.499  0.0253 -0.0725 -0.2743
 1836PEP     CB69729   5.649  16.258  19.129 -0.2541 -0.0534 -0.0721
 1836PEP     CB69730   5.574  16.540  18.692 -0.2323 -0.1389  0.0422
 1836PEP     CB69731   5.293  16.835  18.454  0.1287  0.2084 -0.2627
 1836PEP     CB69732   4.897  16.960  18.272 -0.1034 -0.0443 -0.1918
 1836PEP     CB69733   4.719  17.042  17.947  0.2687 -0.0603 -0.0805
 1836PEP     CB69734   4.536  17.350  17.680 -0.2347  0.4508  0.1754
 1836PEP     CB69735   4.235  17.686  17.509  0.1264 -0.3154 -0.1809
 1836PEP     CB69736   3.896  17.826  17.381  0.1780 -0.2814 -0.4584
 1836PEP     CB69737   3.512  17.648  17.521  0.2017  0.1363 -0.0679
 1836PEP     CB69738   3.426  17.286  17.651 -0.3795 -0.1664 -0.1184
 1836PEP     CB69739   3.207  17.116  17.948 -0.0121  0.3716  0.1229
 1836PEP     CB69740   2.882  16.937  18.177  0.1525 -0.3107 -0.1620
 1836PEP     CB69741   2.594  16.682  18.236  0.0478  0.3884 -0.2587
 1836PEP     CB69742   2.278  16.552  18.594  0.1017  0.2134  0.2332
 1836PEP     CB69743   2.034  16.153  18.765  0.0352 -0.2056 -0.2917
 1836PEP     CB69744   1.769  15.966  19.072  0.1256  0.0215  0.2217
 1836PEP     CB69745   2.012  15.859  19.523  0.0672 -0.1469 -0.0912
 1836PEP     CB69746   2.437  15.579  19.552  0.3670  0.2003  0.5135
 1836PEP     CB69747   2.709  15.598  19.214  0.0237 -0.0929  0.1858
 1836PEP     CB69748   2.663  15.726  18.838  0.0365 -0.2707 -0.3178
 1836PEP     CB69749   2.960  15.928  18.547  0.0455 -0.2228 -0.0353
 1836PEP     CB69750   3.322  16.044  18.563 -0.0805 -0.0609  0.4539
 1836PEP     CB69751   3.768  15.938  18.629  0.0470 -0.1069 -0.0360
 1836PEP     CB69752   4.174  15.694  18.677  0.1982 -0.1767  0.1958
 1836PEP     CB69753   4.560  15.665  18.637 -0.1289  0.2317 -0.0759
 1836PEP     CB69754   4.808  15.243  18.598  0.4117  0.2556  0.0277
 1836PEP     CB69755   4.732  14.890  18.443 -0.1706 -0.1510  0.1202
 1836PEP     CB69756   5.015  14.675  18.123  0.2142 -0.5085  0.1094
 1836PEP     CB69757   5.242  14.704  17.684  0.0194  0.4902 -0.0325
 1836PEP     CB69758   5.578  14.863  17.354  0.4738  0.1830 -0.0049
 1836PEP     CB69759   5.728  15.152  16.961 -0.0448 -0.0513 -0.1201
 1836PEP     CB69760   5.849  15.176  16.576  0.1795 -0.2237 -0.2731
 1837PEP     CB69761   2.140   1.816   8.520 -0.3680 -0.1393 -0.0882
 1837PEP     CB69762   1.949   1.577   8.298 -0.0967 -0.0129 -0.1523
 1837PEP     CB69763   1.729   1.267   8.116  0.1056  0.0264 -0.3416
 1837PEP     CB69764   1.772   0.929   7.872  0.0594 -0.2325  0.6952
 1837PEP     CB69765   2.032   0.734   7.607  0.3145 -0.1475  0.0484
 1837PEP     CB69766   2.172   0.881   7.148  0.0179  0.0777 -0.1252
 1837PEP     CB69767   2.156   1.035   6.712  0.0214 -0.1433  0.0824
 1837PEP     CB69768   2.072   0.951   6.277 -0.1459  0.5380  0.1543
 1837PEP     CB69769   2.143   0.820   5.873 -0.1374  0.0382  0.0984
 1837PEP     CB69770   2.328   0.523   5.481 -0.0002 -0.1133  0.2213
 1837PEP     CB69771   2.430   0.002   5.491 -0.2151  0.3001 -0.0339
 1837PEP     CB69772   2.270  -0.346   5.837 -0.1935 -0.2386  0.0714
 1837PEP     CB69773   2.119  -0.131   6.247 -0.1581  0.0463 -0.2944
 1837PEP     CB69774   2.164   0.414   6.306  0.1487  0.0796 -0.2266
 1837PEP     CB69775   2.454   0.696   6.317 -0.0655 -0.2314 -0.1216
 1837PEP     CB69776   2.814   0.779   6.448 -0.1018 -0.1401 -0.1831
 1837PEP     CB69777   3.266   0.903   6.416 -0.3178  0.0604  0.2065
 1837PEP     CB69778   3.597   0.955   6.179  0.4005  0.0083  0.3165
 1837PEP     CB69779   3.721   1.331   5.874 -0.1019  0.2564 -0.0674
 1837PEP     CB69780   3.758   1.744   5.610  0.1459  0.2453 -0.1637
 1837PEP     CB69781   3.939   2.202   5.547 -0.1132  0.4044  0.0854
 1837PEP     CB69782   4.369   2.390   5.549  0.5084 -0.1786  0.2797
 1837PEP     CB69783   4.823   2.191   5.650  0.1514  0.2039  0.5543
 1837PEP     CB69784   5.216   2.219   5.650 -0.1776  0.1750  0.0417
 1837PEP     CB69785   5.638   2.093   5.788  0.7430 -0.1858  0.2230
 1837PEP     CB69786   5.987   2.258   5.905  0.1854  0.1277  0.0772
 1837PEP     CB69787   6.356   2.000   6.071  0.0770 -0.2182 -0.3754
 1837PEP     CB69788   6.563   1.591   6.080  0.3797 -0.0603 -0.0682
 1837PEP     CB69789   6.893   1.446   6.229 -0.1031 -0.0810  0.3467
 1837PEP     CB69790   7.237   1.167   6.331  0.1515 -0.1761 -0.1060
 1837PEP     CB69791   7.597   1.062   6.523 -0.4777  0.3355 -0.1772
 1837PEP     CB69792   8.023   1.133   6.646 -0.2752 -0.3285 -0.2199
 1837PEP     CB69793   8.381   0.772   6.735 -0.1173  0.0705  0.2036
 1837PEP     CB69794   8.340   0.359   7.017 -0.3966 -0.3670  0.1474
 1837PEP     CB69795   8.115   0.116   7.473  0.2098  0.0599  0.1667
 1837PEP     CB69796   8.072  -0.242   7.736  0.2085  0.0883  0.1813
 1837PEP     CB69797   8.127  -0.506   8.062 -0.3040 -0.3387  0.1105
 1837PEP     CB69798   8.295  -0.739   8.472 -0.3512  0.4483  0.0819
 1837PEP     CB69799   8.415  -0.722   8.989 -0.3669 -0.0344 -0.0293
 1837PEP     CB69800   8.714  -0.585   9.404 -0.0623  0.1744  0.0433
 1838PEP     CB69801  15.823  16.382   0.308  0.2292  0.1234  0.2283
 1838PEP     CB69802  15.527  16.497  -0.012  0.0377  0.3769 -0.3007
 1838PEP     CB69803  15.513  16.759  -0.425  0.1216  0.0278  0.0219
 1838PEP     CB69804  15.572  17.080  -0.684  0.0930 -0.0556 -0.0091
 1838PEP     CB69805  15.532  17.483  -0.778  0.0684 -0.3941 -0.3118
 1838PEP     CB69806  15.720  17.855  -0.976 -0.2911  0.2427  0.1995
 1838PEP     CB69807  15.989  18.142  -0.853  0.2989  0.0774 -0.0061
 1838PEP     CB69808  16.370  18.158  -1.047 -0.0377 -0.2889  0.0961
 1838PEP     CB69809  16.714  17.901  -1.156  0.1328 -0.2758  0.0601
 1838PEP     CB69810  16.904  17.484  -0.998  0.2206  0.0953  0.3769
 1838PEP     CB69811  16.902  17.018  -1.026  0.0092  0.2206 -0.1809
 1838PEP     CB69812  16.898  16.644  -1.211 -0.1236  0.1999  0.2009
 1838PEP     CB69813  17.015  16.186  -1.353 -0.0361  0.0852 -0.0564
 1838PEP     CB69814  17.200  15.879  -1.223  0.6147 -0.0594 -0.1472
 1838PEP     CB69815  17.467  15.859  -0.808 -0.0005 -0.3312  0.2252
 1838PEP     CB69816  17.633  15.507  -0.618 -0.4229  0.2760  0.1125
 1838PEP     CB69817  17.517  15.056  -0.702 -0.0648  0.3540  0.1095
 1838PEP     CB69818  17.125  14.979  -0.797  0.2453  0.2426  0.0192
 1838PEP     CB69819  16.752  15.279  -0.665 -0.0475 -0.3047  0.0971
 1838PEP     CB69820  16.371  15.535  -0.861 -0.0672  0.3695  0.1217
 1838PEP     CB69821  16.100  15.661  -1.162  0.0296 -0.4812  0.4094
 1838PEP     CB69822  16.040  15.998  -1.412  0.2184 -0.0024  0.1141
 1838PEP     CB69823  16.159  16.320  -1.427  0.3324 -0.2374  0.0318
 1838PEP     CB69824  16.452  16.615  -1.530  0.1140 -0.2273 -0.1139
 1838PEP     CB69825  16.674  16.670  -1.943  0.0337 -0.3840 -0.0007
 1838PEP     CB69826  16.482  16.510  -2.306 -0.1109  0.2014  0.2031
 1838PEP     CB69827  16.408  16.051  -2.373  0.1822  0.1681 -0.4786
 1838PEP     CB69828  16.654  15.698  -2.246 -0.3738  0.0446 -0.0431
 1838PEP     CB69829  17.106  15.666  -2.233 -0.1289  0.3472  0.0441
 1838PEP     CB69830  17.469  15.536  -2.601 -0.0963 -0.3617  0.2500
 1838PEP     CB69831  17.637  15.786  -2.953 -0.3386  0.3145  0.2315
 1838PEP     CB69832  17.522  16.257  -2.948 -0.5939  0.1304 -0.0040
 1838PEP     CB69833  17.284  16.641  -2.885  0.2366 -0.1063 -0.1831
 1838PEP     CB69834  17.023  16.585  -2.501 -0.0724  0.1411 -0.5071
 1838PEP     CB69835  16.876  16.161  -2.246 -0.0239 -0.0011  0.1842
 1838PEP     CB69836  16.668  15.987  -1.795 -0.0963 -0.0024  0.2792
 1838PEP     CB69837  17.009  15.737  -1.631 -0.1396 -0.0583 -0.1949
 1838PEP     CB69838  17.465  15.904  -1.783 -0.0500 -0.0330  0.2346
 1838PEP     CB69839  17.513  16.312  -1.825 -0.0317 -0.5643  0.3812
 1838PEP     CB69840  17.180  16.602  -1.657 -0.1934  0.4313  0.0275
 1839PEP     CB69841  17.582   6.346  18.203 -0.3927  0.1288 -0.2007
 1839PEP     CB69842  17.975   6.285  17.913  0.3168  0.2168 -0.1380
 1839PEP     CB69843  18.142   6.283  17.562  0.2489  0.2067 -0.0701
 1839PEP     CB69844  18.011   6.324  17.262  0.4558  0.4246 -0.3768
 1839PEP     CB69845  17.616   6.162  16.969 -0.2216  0.0925  0.3029
 1839PEP     CB69846  17.631   5.777  16.699 -0.4175 -0.1673 -0.0653
 1839PEP     CB69847  17.714   5.351  16.737 -0.0699  0.0571 -0.0088
 1839PEP     CB69848  17.728   4.874  16.712 -0.0610  0.1010  0.1054
 1839PEP     CB69849  18.103   4.736  16.456 -0.1450 -0.1738  0.3317
 1839PEP     CB69850  18.577   4.776  16.613 -0.1354  0.2330  0.1395
 1839PEP     CB69851  18.942   4.726  16.876  0.4223  0.1593 -0.4368
 1839PEP     CB69852  19.104   4.865  17.345  0.0013  0.1648  0.0194
 1839PEP     CB69853  19.141   5.119  17.622  0.4613  0.1489  0.3351
 1839PEP     CB69854  19.314   5.440  17.960 -0.0662 -0.0411 -0.0162
 1839PEP     CB69855  19.490   5.692  18.137  0.2789  0.0493  0.0595
 1839PEP     CB69856  19.637   6.080  18.322 -0.1129  0.1960 -0.0274
 1839PEP     CB69857  19.526   6.546  18.468 -0.1029  0.1258  0.2286
 1839PEP     CB69858  19.492   6.910  18.387 -0.3692  0.0053 -0.0621
 1839PEP     CB69859  19.806   7.250  18.476 -0.1191 -0.1593 -0.0202
 1839PEP     CB69860  20.155   7.167  18.830  0.1617  0.1364  0.1929
 1839PEP     CB69861  20.343   6.819  18.972 -0.0845  0.0737 -0.0513
 1839PEP     CB69862  20.178   6.416  18.960 -0.0333  0.1089  0.2152
 1839PEP     CB69863  19.798   6.350  19.223  0.0595  0.0636 -0.0730
 1839PEP     CB69864  19.408   6.202  19.179  0.1107  0.1456 -0.0883
 1839PEP     CB69865  19.170   6.136  18.870  0.2844 -0.4822 -0.0597
 1839PEP     CB69866  19.164   6.012  18.443 -0.4864 -0.2624 -0.0466
 1839PEP     CB69867  18.929   5.759  18.126 -0.0015 -0.1227  0.1930
 1839PEP     CB69868  18.783   5.351  18.015 -0.1103 -0.1281  0.3864
 1839PEP     CB69869  18.489   5.011  18.251 -0.0492  0.1764 -0.0091
 1839PEP     CB69870  18.521   4.879  18.633 -0.1593 -0.1320  0.2665
 1839PEP     CB69871  18.441   4.659  19.040  0.2597 -0.4528  0.2755
 1839PEP     CB69872  18.596   4.508  19.454  0.2457  0.1226 -0.2140
 1839PEP     CB69873  18.894   4.533  19.863  0.0750 -0.2002  0.0207
 1839PEP     CB69874  18.905   4.693  20.208 -0.0450 -0.0517 -0.1525
 1839PEP     CB69875  18.747   4.926  20.670  0.0040 -0.0914 -0.2836
 1839PEP     CB69876  18.835   5.158  21.153 -0.2944 -0.0728 -0.3547
 1839PEP     CB69877  18.903   5.302  21.680 -0.0342 -0.1998 -0.0336
 1839PEP     CB69878  18.900   5.365  22.104  0.1459  0.0320  0.0273
 1839PEP     CB69879  18.890   5.228  22.589 -0.0406 -0.2959  0.1029
 1839PEP     CB69880  18.963   5.207  23.031 -0.0723 -0.1694  0.3404
 1840PEP     CB69881  16.480  21.403   8.055  0.2902  0.2401 -0.4256
 1840PEP     CB69882  16.931  21.623   8.125 -0.0782 -0.3294 -0.0833
 1840PEP     CB69883  17.138  22.137   8.033  0.3150 -0.5812  0.0566
 1840PEP     CB69884  17.345  22.521   8.229  0.2897 -0.0992 -0.3490
 1840PEP     CB69885  17.367  22.681   8.669  0.1614 -0.1687  0.2031
 1840PEP     CB69886  17.645  22.659   8.969 -0.0037  0.1275 -0.2374
 1840PEP     CB69887  17.878  22.262   9.125 -0.0041  0.0001  0.2192
 1840PEP     CB69888  18.133  21.915   9.038  0.0682 -0.0230  0.4241
 1840PEP     CB69889  18.387  21.609   9.151  0.0615  0.2325  0.2397
 1840PEP     CB69890  18.573  21.281   9.412 -0.1612  0.5662  0.0872
 1840PEP     CB69891  18.744  21.150   9.816 -0.0356  0.2234  0.1873
 1840PEP     CB69892  18.817  21.237  10.243  0.1555  0.0934 -0.2649
 1840PEP     CB69893  18.974  21.261  10.622 -0.2772  0.0069 -0.1047
 1840PEP     CB69894  19.081  21.595  10.947 -0.0822  0.1628 -0.1355
 1840PEP     CB69895  19.314  21.902  11.141  0.1053 -0.2074 -0.4394
 1840PEP     CB69896  19.241  22.274  11.400  0.3983 -0.4185  0.5006
 1840PEP     CB69897  18.945  22.619  11.628 -0.3004 -0.2633  0.0988
 1840PEP     CB69898  18.610  22.786  11.661 -0.3420  0.0147  0.4062
 1840PEP     CB69899  18.137  22.701  11.568 -0.3070  0.1653 -0.2145
 1840PEP     CB69900  17.740  22.861  11.319  0.3377  0.0660  0.2269
 1840PEP     CB69901  17.486  23.275  11.351  0.1323  0.0269 -0.0637
 1840PEP     CB69902  17.751  23.718  11.271 -0.1807 -0.0735 -0.0114
 1840PEP     CB69903  18.234  23.823  11.345 -0.3018 -0.0822  0.2463
 1840PEP     CB69904  18.413  24.057  11.651  0.0877  0.0864  0.2884
 1840PEP     CB69905  18.861  24.231  11.707 -0.0835  0.0276  0.2050
 1840PEP     CB69906  19.130  24.536  11.803  0.1106 -0.2417 -0.1741
 1840PEP     CB69907  19.142  24.841  12.054 -0.1453  0.2229  0.2801
 1840PEP     CB69908  19.069  24.906  12.466 -0.0516 -0.0013 -0.1032
 1840PEP     CB69909  18.915  25.281  12.692 -0.3059 -0.1280  0.6297
 1840PEP     CB69910  18.688  25.713  12.586  0.0829 -0.2366 -0.2332
 1840PEP     CB69911  18.270  25.961  12.740  0.2157 -0.5255  0.0882
 1840PEP     CB69912  17.979  25.820  13.110 -0.1987 -0.2636 -0.1866
 1840PEP     CB69913  17.733  25.675  13.470  0.0519 -0.1491  0.2085
 1840PEP     CB69914  17.751  25.437  13.798  0.2925  0.2040 -0.2555
 1840PEP     CB69915  18.075  25.153  14.009 -0.0008  0.2288 -0.0082
 1840PEP     CB69916  18.131  24.917  14.420  0.6436  0.2907 -0.1878
 1840PEP     CB69917  18.051  24.507  14.562 -0.2273 -0.1879  0.1053
 1840PEP     CB69918  17.993  24.153  14.182  0.0317  0.1356  0.0750
 1840PEP     CB69919  17.810  23.833  13.976  0.0550 -0.3277  0.0919
 1840PEP     CB69920  17.512  23.510  13.753  0.1786  0.1711 -0.1298
 1841PEP     CB69921  13.339  11.639   1.250 -0.2586  0.3367 -0.2565
 1841PEP     CB69922  13.241  11.625   0.869  0.1466 -0.2300  0.3473
 1841PEP     CB69923  13.302  11.848   0.463 -0.0165  0.0056 -0.0145
 1841PEP     CB69924  13.457  11.696   0.068 -0.0915 -0.0789 -0.0275
 1841PEP     CB69925  13.988  11.604   0.021 -0.1363  0.0557  0.2891
 1841PEP     CB69926  14.432  11.448   0.037 -0.3137  0.1978 -0.1218
 1841PEP     CB69927  14.795  11.256   0.327 -0.0426  0.0728 -0.2469
 1841PEP     CB69928  15.007  11.453   0.687 -0.1153 -0.2022 -0.1893
 1841PEP     CB69929  14.983  11.924   0.841  0.0117 -0.3870  0.5374
 1841PEP     CB69930  14.941  12.200   1.168  0.2229 -0.0561  0.0589
 1841PEP     CB69931  14.941  12.289   1.577  0.0086  0.2011 -0.4303
 1841PEP     CB69932  15.189  12.512   1.798  0.0970 -0.1208 -0.0062
 1841PEP     CB69933  15.509  12.709   2.089  0.5617  0.0450  0.1192
 1841PEP     CB69934  15.976  12.826   1.982  0.0614 -0.0482  0.0508
 1841PEP     CB69935  16.302  12.591   1.770  0.0185 -0.0215  0.0310
 1841PEP     CB69936  16.668  12.204   1.664  0.1646 -0.2196  0.2269
 1841PEP     CB69937  16.709  11.809   1.384 -0.1163 -0.0253  0.0737
 1841PEP     CB69938  17.021  11.537   1.171 -0.0154  0.0890  0.2332
 1841PEP     CB69939  17.086  11.117   0.900 -0.1453  0.1103 -0.0406
 1841PEP     CB69940  16.839  10.844   1.003 -0.2598 -0.0498  0.3114
 1841PEP     CB69941  16.507  10.900   1.256 -0.3018  0.0130 -0.0822
 1841PEP     CB69942  16.371  10.807   1.667  0.0920 -0.0159 -0.1498
 1841PEP     CB69943  16.712  10.539   1.931 -0.1627 -0.0892  0.0224
 1841PEP     CB69944  17.209  10.563   1.770  0.4148 -0.1328  0.0362
 1841PEP     CB69945  17.562  10.730   1.504 -0.1841  0.0644 -0.3724
 1841PEP     CB69946  17.770  10.602   1.103 -0.3296  0.2547 -0.2933
 1841PEP     CB69947  17.585  10.326   0.822  0.1002 -0.0605  0.0149
 1841PEP     CB69948  17.215  10.249   0.637  0.2600 -0.5557 -0.2599
 1841PEP     CB69949  16.819   9.934   0.722  0.1866 -0.3857  0.1569
 1841PEP     CB69950  16.405   9.858   0.779  0.0243 -0.2970 -0.3389
 1841PEP     CB69951  16.173   9.639   0.467 -0.4212 -0.1076  0.4355
 1841PEP     CB69952  16.335   9.281   0.253 -0.3049  0.2398 -0.0172
 1841PEP     CB69953  16.707   9.134   0.233 -0.0459  0.0629 -0.1765
 1841PEP     CB69954  16.998   9.055   0.539  0.1793  0.2413 -0.0636
 1841PEP     CB69955  17.372   9.092   0.916  0.1306 -0.2458  0.1254
 1841PEP     CB69956  17.789   9.028   1.145 -0.0859 -0.2209  0.3632
 1841PEP     CB69957  18.257   8.953   1.194  0.0713 -0.0588  0.1059
 1841PEP     CB69958  18.603   8.807   1.379 -0.0789 -0.0289  0.2384
 1841PEP     CB69959  18.603   8.370   1.437 -0.1365 -0.5286 -0.1100
 1841PEP     CB69960  18.497   8.118   1.719 -0.1968  0.1178  0.1301
 1842PEP     CB69961  10.686   9.903   5.027 -0.0034 -0.3367  0.1457
 1842PEP     CB69962  11.107   9.948   5.249 -0.1104 -0.1399 -0.0024
 1842PEP     CB69963  11.488  10.205   5.080  0.1196 -0.1313  0.0777
 1842PEP     CB69964  11.512  10.319   4.651 -0.2205  0.2520  0.4975
 1842PEP     CB69965  11.348  10.215   4.262 -0.4557 -0.1827 -0.0902
 1842PEP     CB69966  11.103   9.957   3.886  0.3246 -0.0705 -0.1613
 1842PEP     CB69967  10.829   9.976   3.579  0.0709  0.0232 -0.0016
 1842PEP     CB69968  10.784  10.111   3.219 -0.0856  0.0296  0.2512
 1842PEP     CB69969  10.772  10.251   2.721  0.0076 -0.3176  0.1152
 1842PEP     CB69970  10.849  10.416   2.273 -0.3209  0.1520  0.0831
 1842PEP     CB69971  11.092  10.497   1.935  0.0031  0.0651 -0.1781
 1842PEP     CB69972  11.318  10.310   1.551  0.4412 -0.3021 -0.5923
 1842PEP     CB69973  11.374  10.098   1.260 -0.3519  0.2542 -0.0662
 1842PEP     CB69974  11.363   9.786   0.969  0.0753 -0.2744  0.1069
 1842PEP     CB69975  11.332   9.757   0.485 -0.1231  0.1663 -0.1323
 1842PEP     CB69976  11.284   9.489   0.183 -0.5985  0.2764 -0.2372
 1842PEP     CB69977  10.998   9.245  -0.057 -0.1431  0.0519  0.2265
 1842PEP     CB69978  10.732   9.010  -0.255 -0.1405 -0.2137 -0.3027
 1842PEP     CB69979  10.553   8.813  -0.568  0.2593 -0.1313  0.4587
 1842PEP     CB69980  10.429   8.529  -0.873  0.0058  0.0611  0.2803
 1842PEP     CB69981  10.326   8.396  -1.268  0.3044  0.1315  0.0558
 1842PEP     CB69982  10.297   7.957  -1.619  0.0449 -0.5807  0.0152
 1842PEP     CB69983  10.235   7.573  -1.900  0.0204  0.1380  0.0883
 1842PEP     CB69984  10.340   7.227  -2.135  0.0064  0.2662 -0.0831
 1842PEP     CB69985  10.658   6.905  -2.097 -0.2160 -0.2525 -0.0821
 1842PEP     CB69986  11.125   6.760  -1.861 -0.1797 -0.0502 -0.0280
 1842PEP     CB69987  11.508   6.473  -1.956  0.0306  0.0839  0.0307
 1842PEP     CB69988  11.894   6.280  -1.774 -0.1401  0.3834 -0.0970
 1842PEP     CB69989  12.011   6.332  -1.368  0.3818  0.0595  0.1864
 1842PEP     CB69990  12.030   6.658  -1.084  0.2315 -0.0251  0.3830
 1842PEP     CB69991  11.777   7.095  -1.014 -0.0345  0.1351  0.3359
 1842PEP     CB69992  11.637   7.541  -1.010  0.0743  0.1649 -0.0429
 1842PEP     CB69993  11.262   7.752  -1.262  0.0335 -0.4689 -0.1018
 1842PEP     CB69994  11.323   7.732  -1.677  0.0239 -0.0973  0.0374
 1842PEP     CB69995  11.632   7.479  -1.784  0.0817  0.2292 -0.0448
 1842PEP     CB69996  11.906   7.289  -1.542  0.0749  0.4430  0.1766
 1842PEP     CB69997  12.228   7.388  -1.344  0.3390  0.0423  0.3257
 1842PEP     CB69998  12.469   7.640  -1.212  0.1046  0.1186  0.0251
 1842PEP     CB69999  12.714   7.667  -0.828 -0.3830 -0.2019  0.1854
 1842PEP     CB70000  12.901   7.671  -0.407  0.2670  0.0188 -0.2625
 1843PEP     CB70001  21.649   6.590  10.546  0.1535 -0.0337  0.3397
 1843PEP     CB70002  21.336   6.888  10.436  0.0994 -0.0811  0.3260
 1843PEP     CB70003  21.388   7.280  10.158  0.0915 -0.1326 -0.3077
 1843PEP     CB70004  21.561   7.290   9.673  0.2408  0.4240 -0.1571
 1843PEP     CB70005  21.618   6.964   9.376 -0.5274  0.3803  0.0379
 1843PEP     CB70006  21.432   6.670   9.201  0.1031 -0.0116  0.2603
 1843PEP     CB70007  21.102   6.404   9.120 -0.0114 -0.0100  0.0380
 1843PEP     CB70008  20.686   6.308   8.997  0.0555 -0.0746  0.0549
 1843PEP     CB70009  20.463   6.225   8.585 -0.1024  0.2717  0.4694
 1843PEP     CB70010  20.484   5.960   8.275  0.0749 -0.1086  0.2314
 1843PEP     CB70011  20.782   5.669   8.084  0.1902 -0.2733 -0.0062
 1843PEP     CB70012  21.073   5.464   8.172 -0.5816 -0.0806  0.1556
 1843PEP     CB70013  21.381   5.194   8.021  0.4624  0.0258 -0.1999
 1843PEP     CB70014  21.824   5.057   7.888  0.4335 -0.0372  0.4885
 1843PEP     CB70015  22.174   5.408   7.751 -0.2919  0.1751 -0.1989
 1843PEP     CB70016  22.303   5.839   7.683 -0.7060  0.2457  0.3048
 1843PEP     CB70017  22.675   5.992   7.627  0.1068 -0.2172 -0.0028
 1843PEP     CB70018  23.150   6.034   7.690 -0.3648 -0.1209 -0.1310
 1843PEP     CB70019  23.518   6.115   7.442  0.1392 -0.1142 -0.1437
 1843PEP     CB70020  23.855   6.012   7.197 -0.2498  0.2035  0.1770
 1843PEP     CB70021  24.303   5.813   7.177 -0.0737 -0.3754  0.1634
 1843PEP     CB70022  24.706   5.828   6.973 -0.0864  0.1492  0.1054
 1843PEP     CB70023  24.964   5.620   6.661  0.1892  0.2476 -0.0092
 1843PEP     CB70024  25.216   5.342   6.315  0.2305 -0.1984  0.1178
 1843PEP     CB70025  25.650   5.272   6.200 -0.1072  0.0464  0.2491
 1843PEP     CB70026  26.071   5.087   6.059  0.0036  0.0103  0.1039
 1843PEP     CB70027  26.566   5.184   6.112  0.1405  0.3192  0.0553
 1843PEP     CB70028  27.033   5.277   6.298 -0.3466 -0.0989  0.0593
 1843PEP     CB70029  27.404   5.483   6.371 -0.1263  0.1943  0.1809
 1843PEP     CB70030  27.699   5.523   6.674  0.6935 -0.0926 -0.0208
 1843PEP     CB70031  27.799   5.328   7.084 -0.1240  0.0703 -0.5324
 1843PEP     CB70032  27.915   5.365   7.548 -0.4543  0.4688  0.0033
 1843PEP     CB70033  27.788   5.677   7.895  0.1559 -0.0452  0.2434
 1843PEP     CB70034  27.508   5.928   7.991 -0.2202 -0.3157  0.0051
 1843PEP     CB70035  27.198   6.271   8.004 -0.0118 -0.1405  0.0124
 1843PEP     CB70036  27.062   6.578   8.293 -0.0215 -0.0671 -0.1774
 1843PEP     CB70037  27.099   6.573   8.742 -0.4089  0.2707 -0.1414
 1843PEP     CB70038  27.488   6.310   8.987 -0.1526  0.2097  0.0318
 1843PEP     CB70039  27.768   6.013   8.881  0.1467  0.2684 -0.1409
 1843PEP     CB70040  27.768   5.758   8.540  0.2792 -0.0168  0.2036
 1844PEP     CB70041   4.211   8.398  15.658  0.1360 -0.2312  0.2776
 1844PEP     CB70042   4.429   8.008  15.508  0.0069 -0.1610 -0.0872
 1844PEP     CB70043   4.800   7.789  15.551 -0.3129  0.0265 -0.0746
 1844PEP     CB70044   5.073   7.804  15.932 -0.0756  0.2212  0.1561
 1844PEP     CB70045   4.971   8.045  16.283 -0.2272  0.1631 -0.1469
 1844PEP     CB70046   4.649   8.396  16.417 -0.1769  0.0346  0.0777
 1844PEP     CB70047   4.276   8.532  16.454 -0.0918  0.5072 -0.1910
 1844PEP     CB70048   3.926   8.306  16.359  0.2448 -0.2205 -0.1855
 1844PEP     CB70049   3.992   7.957  15.960  0.1410 -0.1719 -0.0149
 1844PEP     CB70050   4.337   7.620  15.798 -0.0136 -0.0205  0.1908
 1844PEP     CB70051   4.538   7.265  15.752  0.0471  0.4447  0.1708
 1844PEP     CB70052   4.662   6.913  15.940 -0.1505  0.0162 -0.4681
 1844PEP     CB70053   4.905   6.871  16.359  0.2058 -0.0273  0.2181
 1844PEP     CB70054   4.881   7.226  16.676 -0.4945 -0.0132  0.1805
 1844PEP     CB70055   4.511   7.171  16.957  0.0864 -0.0293  0.1230
 1844PEP     CB70056   4.101   7.370  16.755 -0.0902  0.0869 -0.4028
 1844PEP     CB70057   4.033   7.838  16.616  0.1982  0.2529 -0.0348
 1844PEP     CB70058   4.285   8.169  16.722 -0.3104  0.0194 -0.2395
 1844PEP     CB70059   4.652   8.119  17.001  0.0344 -0.0232 -0.0890
 1844PEP     CB70060   5.085   8.048  17.194 -0.2141  0.0895 -0.0232
 1844PEP     CB70061   5.481   8.314  17.156 -0.0168  0.0005  0.2812
 1844PEP     CB70062   5.922   8.193  17.139  0.0101  0.3397 -0.0472
 1844PEP     CB70063   6.065   7.831  17.159 -0.1205  0.3361 -0.3133
 1844PEP     CB70064   5.803   7.483  17.123  0.0058  0.5213 -0.0338
 1844PEP     CB70065   5.712   7.120  16.908  0.1267  0.1283 -0.0023
 1844PEP     CB70066   5.732   6.957  16.467  0.2071 -0.1680  0.1647
 1844PEP     CB70067   5.479   7.088  16.132 -0.0327  0.2121  0.1547
 1844PEP     CB70068   5.114   7.272  15.929 -0.2408  0.0145 -0.1846
 1844PEP     CB70069   4.732   7.424  16.214 -0.0640 -0.0274 -0.3100
 1844PEP     CB70070   4.316   7.357  16.193  0.0720 -0.1261  0.2204
 1844PEP     CB70071   3.822   7.519  16.259  0.0019  0.3990 -0.3528
 1844PEP     CB70072   3.492   7.522  16.581  0.0603  0.2180  0.0538
 1844PEP     CB70073   3.615   7.283  16.937 -0.2386 -0.0761  0.1444
 1844PEP     CB70074   3.999   7.084  17.180 -0.6802 -0.1228  0.1099
 1844PEP     CB70075   4.314   6.700  17.292  0.5719 -0.1316 -0.3616
 1844PEP     CB70076   4.404   6.239  17.324  0.2215  0.0343  0.1789
 1844PEP     CB70077   4.475   5.919  17.202 -0.5741  0.0589 -0.0767
 1844PEP     CB70078   4.592   5.467  17.103  0.1321  0.2424  0.2296
 1844PEP     CB70079   4.731   5.050  17.089 -0.4889  0.1045 -0.1440
 1844PEP     CB70080   5.001   4.643  17.180 -0.0642 -0.1411  0.1209
 1845PEP     CB70081  13.601   6.021  21.065  0.4230  0.2157  0.1910
 1845PEP     CB70082  13.349   5.685  20.912  0.1890 -0.0194  0.1534
 1845PEP     CB70083  13.208   5.290  20.734  0.1861  0.1883  0.0594
 1845PEP     CB70084  13.319   4.919  20.329 -0.3725 -0.4798 -0.1984
 1845PEP     CB70085  13.463   4.509  20.105  0.8596 -0.6852  0.1412
 1845PEP     CB70086  13.559   4.287  19.638 -0.1169  0.2872 -0.3471
 1845PEP     CB70087  13.196   4.373  19.277 -0.2363  0.2999  0.4552
 1845PEP     CB70088  12.839   4.680  19.332  0.3650 -0.1663  0.1661
 1845PEP     CB70089  12.930   5.057  19.340  0.1614  0.0166  0.2494
 1845PEP     CB70090  13.033   5.321  18.949 -0.2027  0.2526  0.0233
 1845PEP     CB70091  13.127   5.490  18.552 -0.0349 -0.3151 -0.2898
 1845PEP     CB70092  13.240   5.719  18.178  0.1744  0.1857  0.1348
 1845PEP     CB70093  13.259   5.945  17.830 -0.0096  0.1090 -0.2569
 1845PEP     CB70094  13.200   6.434  17.620  0.2425  0.3784 -0.1433
 1845PEP     CB70095  13.165   6.884  17.702 -0.1871 -0.1888 -0.2959
 1845PEP     CB70096  13.324   7.315  17.635  0.2799  0.1028  0.0297
 1845PEP     CB70097  13.599   7.617  17.486  0.1256  0.3354  0.1681
 1845PEP     CB70098  13.894   8.071  17.434 -0.4608  0.0153 -0.0017
 1845PEP     CB70099  13.907   8.458  17.239  0.0073 -0.0824 -0.2806
 1845PEP     CB70100  13.775   8.577  16.953  0.0678 -0.6198 -0.1341
 1845PEP     CB70101  13.901   9.012  16.859 -0.1141 -0.4100  0.0713
 1845PEP     CB70102  14.317   9.334  16.718 -0.0147  0.1564 -0.0636
 1845PEP     CB70103  14.622   9.465  16.601  0.0253  0.1048  0.2868
 1845PEP     CB70104  14.920   9.801  16.371  0.0787  0.0531 -0.1448
 1845PEP     CB70105  15.337   9.995  16.239 -0.0876 -0.3393 -0.0068
 1845PEP     CB70106  15.820   9.881  16.078 -0.0075 -0.0096 -0.4184
 1845PEP     CB70107  16.259   9.680  16.152  0.0847 -0.0367  0.2968
 1845PEP     CB70108  16.758   9.805  16.200 -0.1113 -0.0753 -0.0307
 1845PEP     CB70109  17.113  10.174  16.275  0.3554 -0.5477 -0.3694
 1845PEP     CB70110  17.051  10.690  16.229  0.1135  0.1032 -0.0998
 1845PEP     CB70111  16.870  11.041  16.488  0.0996 -0.3328  0.0751
 1845PEP     CB70112  16.494  11.250  16.477  0.1165 -0.2116 -0.1169
 1845PEP     CB70113  16.162  11.167  16.150 -0.0607 -0.1218 -0.0306
 1845PEP     CB70114  15.760  11.319  16.040 -0.1149 -0.0303  0.0167
 1845PEP     CB70115  15.593  11.675  15.776 -0.0129  0.1028 -0.1360
 1845PEP     CB70116  15.658  12.026  15.614 -0.2973  0.0020 -0.1964
 1845PEP     CB70117  16.086  12.110  15.416 -0.1278 -0.1110 -0.0105
 1845PEP     CB70118  16.492  11.799  15.400  0.0425  0.4001 -0.2766
 1845PEP     CB70119  16.759  11.617  15.526  0.0756 -0.2277  0.0962
 1845PEP     CB70120  17.076  11.570  15.763 -0.2130 -0.0230  0.1484
 1846PEP     CB70121  20.114   4.780   9.335  0.0889 -0.2395 -0.3425
 1846PEP     CB70122  20.389   4.740   9.043 -0.0233 -0.3314 -0.1958
 1846PEP     CB70123  20.753   4.965   8.955 -0.1051  0.1264 -0.2127
 1846PEP     CB70124  20.971   5.260   9.160  0.3796 -0.1070  0.2530
 1846PEP     CB70125  20.844   5.695   9.234 -0.2962 -0.1339 -0.2772
 1846PEP     CB70126  20.440   5.806   9.021  0.4416 -0.2068  0.1963
 1846PEP     CB70127  20.162   5.731   8.691  0.0488  0.3104 -0.1957
 1846PEP     CB70128  19.902   5.819   8.296  0.0370  0.4096 -0.2133
 1846PEP     CB70129  19.592   6.088   8.294 -0.2071  0.2411  0.4340
 1846PEP     CB70130  19.435   6.339   8.547  0.5946 -0.1401  0.2594
 1846PEP     CB70131  19.322   6.717   8.806 -0.2425  0.1548  0.2386
 1846PEP     CB70132  19.407   6.986   9.205  0.0670  0.0393  0.0373
 1846PEP     CB70133  19.518   6.767   9.605 -0.2278 -0.1417 -0.0259
 1846PEP     CB70134  19.357   6.393   9.777  0.2206 -0.3440  0.4010
 1846PEP     CB70135  19.179   5.992   9.958 -0.2034  0.1365 -0.0311
 1846PEP     CB70136  19.286   5.587  10.003  0.2294 -0.0641 -0.2212
 1846PEP     CB70137  19.524   5.273   9.766  0.3411 -0.1015 -0.1781
 1846PEP     CB70138  19.944   5.236   9.721  0.2512 -0.1116  0.1398
 1846PEP     CB70139  20.193   5.623   9.830 -0.1126 -0.2269  0.1029
 1846PEP     CB70140  20.044   6.088   9.632  0.2908 -0.0850  0.3414
 1846PEP     CB70141  20.190   6.261   9.239  0.0311  0.0197 -0.2600
 1846PEP     CB70142  20.198   6.613   8.784 -0.2243  0.1074 -0.0079
 1846PEP     CB70143  20.450   6.623   8.389 -0.0170  0.0725 -0.0755
 1846PEP     CB70144  20.471   6.964   8.113  0.4514  0.0785  0.1105
 1846PEP     CB70145  20.289   7.347   8.238 -0.1284 -0.1271 -0.1783
 1846PEP     CB70146  20.194   7.314   8.674 -0.0297 -0.1866  0.3831
 1846PEP     CB70147  19.890   6.995   8.729  0.1483  0.3660  0.1313
 1846PEP     CB70148  19.835   6.793   8.360 -0.0004 -0.0683 -0.2335
 1846PEP     CB70149  19.971   6.983   8.042  0.0059 -0.0904 -0.0796
 1846PEP     CB70150  20.149   7.104   7.633 -0.0329  0.1898 -0.3102
 1846PEP     CB70151  20.249   7.341   7.365  0.3647 -0.0181  0.1573
 1846PEP     CB70152  20.133   7.645   7.082 -0.2395  0.2524  0.1133
 1846PEP     CB70153  19.850   8.042   6.948  0.2489 -0.2497 -0.2276
 1846PEP     CB70154  19.830   8.051   6.504 -0.3301 -0.0586 -0.0107
 1846PEP     CB70155  19.948   7.715   6.167 -0.2373  0.4970  0.0932
 1846PEP     CB70156  20.214   7.480   5.844  0.3495 -0.2727 -0.0087
 1846PEP     CB70157  20.600   7.276   5.742  0.1820 -0.0900  0.0374
 1846PEP     CB70158  20.827   6.986   5.932  0.0563 -0.0027 -0.1596
 1846PEP     CB70159  20.977   6.734   6.299  0.2841  0.5144 -0.2173
 1846PEP     CB70160  20.827   6.613   6.775 -0.5229 -0.1534 -0.2204
 1847PEP     CB70161  12.950   7.336   0.170  0.4582  0.4062  0.4830
 1847PEP     CB70162  13.294   7.390  -0.186 -0.1551  0.0608  0.1965
 1847PEP     CB70163  13.617   7.587  -0.164 -0.1965  0.1505 -0.2007
 1847PEP     CB70164  13.962   7.753   0.077  0.1477 -0.3947 -0.3929
 1847PEP     CB70165  14.197   8.067   0.035 -0.2692  0.0212  0.2997
 1847PEP     CB70166  14.418   8.130  -0.310 -0.0614  0.1745  0.2797
 1847PEP     CB70167  14.346   8.228  -0.732 -0.1438  0.0519  0.1422
 1847PEP     CB70168  14.206   8.568  -1.099 -0.1168 -0.1181 -0.2332
 1847PEP     CB70169  13.963   8.933  -1.253  0.2437  0.1204  0.2288
 1847PEP     CB70170  13.826   9.276  -1.150 -0.0446  0.2617  0.1463
 1847PEP     CB70171  13.654   9.696  -1.253 -0.1777  0.2422 -0.3439
 1847PEP     CB70172  13.731  10.127  -1.359  0.2015  0.3208  0.3936
 1847PEP     CB70173  13.854  10.565  -1.107  0.0054 -0.3690  0.2981
 1847PEP     CB70174  14.128  10.730  -0.771 -0.3210 -0.2987  0.1885
 1847PEP     CB70175  14.580  10.690  -0.612  0.2984 -0.3090 -0.1778
 1847PEP     CB70176  14.999  10.881  -0.577 -0.1197  0.4150 -0.2920
 1847PEP     CB70177  15.344  11.080  -0.884 -0.4790 -0.2897  0.2754
 1847PEP     CB70178  15.581  11.463  -0.791 -0.0929 -0.1152 -0.0256
 1847PEP     CB70179  15.462  11.892  -0.741  0.1718 -0.1346 -0.1052
 1847PEP     CB70180  15.077  12.020  -0.768  0.0762 -0.2710  0.2412
 1847PEP     CB70181  14.718  12.269  -0.891 -0.1221  0.0574  0.1655
 1847PEP     CB70182  14.672  12.624  -1.182  0.2073  0.2130 -0.0910
 1847PEP     CB70183  14.939  12.888  -1.353  0.4112 -0.4558  0.0028
 1847PEP     CB70184  15.352  13.095  -1.312 -0.0697 -0.0444  0.0038
 1847PEP     CB70185  15.451  13.435  -1.547  0.1671  0.0612  0.3207
 1847PEP     CB70186  15.507  13.781  -1.856 -0.4141 -0.1214  0.1052
 1847PEP     CB70187  15.470  14.180  -2.125 -0.0453 -0.2076  0.0291
 1847PEP     CB70188  15.293  14.317  -2.516  0.2911 -0.5699  0.1364
 1847PEP     CB70189  15.193  14.112  -2.868 -0.2827  0.0893  0.1683
 1847PEP     CB70190  15.430  13.803  -3.019 -0.1586  0.0460  0.1948
 1847PEP     CB70191  15.862  13.767  -3.076 -0.4440 -0.1706  0.4988
 1847PEP     CB70192  16.192  14.015  -3.060  0.0891 -0.2778 -0.0746
 1847PEP     CB70193  16.487  14.345  -2.842  0.2678  0.1521 -0.2951
 1847PEP     CB70194  16.961  14.599  -2.727 -0.2154 -0.1276 -0.2502
 1847PEP     CB70195  17.250  14.399  -2.400  0.2546  0.5036 -0.0022
 1847PEP     CB70196  17.188  13.952  -2.249 -0.0921  0.2107 -0.2604
 1847PEP     CB70197  16.799  13.819  -2.136  0.2221 -0.1743  0.1405
 1847PEP     CB70198  16.446  13.485  -2.047 -0.2298  0.4593  0.2014
 1847PEP     CB70199  16.309  13.067  -1.923  0.0010  0.4694 -0.2129
 1847PEP     CB70200  16.250  12.693  -2.109 -0.2331  0.1890 -0.0604
 1848PEP     CB70201   1.696   9.965  10.539  0.3174  0.0214  0.1477
 1848PEP     CB70202   1.369   9.897  10.159 -0.2257 -0.0661 -0.2124
 1848PEP     CB70203   1.479   9.724   9.765  0.1175  0.3430  0.0978
 1848PEP     CB70204   1.486   9.311   9.655  0.4033 -0.2093 -0.1801
 1848PEP     CB70205   1.301   8.999   9.830 -0.0348  0.1260  0.0697
 1848PEP     CB70206   0.860   8.941   9.955 -0.3628 -0.0526  0.2050
 1848PEP     CB70207   0.580   8.739  10.106 -0.1721  0.2788 -0.2155
 1848PEP     CB70208   0.196   8.435  10.097 -0.0536 -0.0583 -0.0228
 1848PEP     CB70209   0.010   8.016   9.903 -0.0595  0.5301 -0.1634
 1848PEP     CB70210  -0.084   7.915   9.553 -0.0348  0.1200  0.0930
 1848PEP     CB70211  -0.478   8.054   9.149 -0.4724  0.2172 -0.0309
 1848PEP     CB70212  -0.493   8.022   8.709  0.2391  0.1973 -0.2795
 1848PEP     CB70213  -0.151   7.970   8.491 -0.0286  0.0493  0.2565
 1848PEP     CB70214   0.211   8.007   8.442  0.0309 -0.0788  0.0173
 1848PEP     CB70215   0.709   8.027   8.544  0.3360 -0.0135  0.0457
 1848PEP     CB70216   1.135   8.191   8.633 -0.0891  0.0435  0.0816
 1848PEP     CB70217   1.412   8.425   8.419 -0.0236 -0.4145 -0.1884
 1848PEP     CB70218   1.832   8.516   8.138  0.2372 -0.1145 -0.1765
 1848PEP     CB70219   2.199   8.333   7.974  0.0565  0.1841 -0.3849
 1848PEP     CB70220   2.651   8.223   7.847  0.0776 -0.3383  0.0892
 1848PEP     CB70221   3.063   8.327   7.698 -0.0248 -0.0355  0.0167
 1848PEP     CB70222   3.504   8.439   7.645 -0.0742 -0.4094  0.0768
 1848PEP     CB70223   3.742   8.442   8.041  0.0478 -0.4670  0.1177
 1848PEP     CB70224   3.618   8.055   8.238  0.2302  0.2213 -0.2953
 1848PEP     CB70225   3.289   7.840   8.138  0.4947  0.0081  0.2399
 1848PEP     CB70226   2.878   7.871   8.019 -0.1831  0.0410 -0.0088
 1848PEP     CB70227   2.453   7.667   8.248 -0.0845  0.3007 -0.0756
 1848PEP     CB70228   2.355   7.381   8.513  0.2153  0.2597 -0.3073
 1848PEP     CB70229   1.990   7.289   8.779 -0.3347 -0.3695 -0.5383
 1848PEP     CB70230   1.584   7.497   8.858  0.0821  0.2590  0.1278
 1848PEP     CB70231   1.202   7.427   8.621 -0.1855  0.1463 -0.3781
 1848PEP     CB70232   1.180   7.124   8.352 -0.2592 -0.0749 -0.1789
 1848PEP     CB70233   1.081   6.694   8.145  0.3398 -0.1476  0.1322
 1848PEP     CB70234   0.819   6.423   8.172 -0.1681 -0.0427 -0.1904
 1848PEP     CB70235   0.372   6.340   8.194 -0.2011 -0.3213 -0.1405
 1848PEP     CB70236   0.104   6.272   7.907  0.3825 -0.0392 -0.0545
 1848PEP     CB70237  -0.327   5.976   7.784  0.2558  0.1490 -0.2022
 1848PEP     CB70238  -0.462   5.550   7.702  0.0364 -0.5063 -0.0541
 1848PEP     CB70239  -0.871   5.376   7.590  0.1840 -0.0804  0.0452
 1848PEP     CB70240  -1.122   5.220   7.341  0.1421 -0.0061 -0.1548
 1849PEP     CB70241  10.356  21.783  21.154 -0.1235 -0.5934 -0.3098
 1849PEP     CB70242  10.220  21.970  20.788  0.0866  0.3531 -0.4539
 1849PEP     CB70243   9.910  21.867  20.583  0.1763 -0.1642  0.1379
 1849PEP     CB70244   9.482  21.757  20.734 -0.2769 -0.1656  0.2746
 1849PEP     CB70245   9.150  21.409  20.633  0.0592 -0.2408  0.0563
 1849PEP     CB70246   9.171  20.921  20.632 -0.1792 -0.0143  0.4190
 1849PEP     CB70247   9.544  20.711  20.750 -0.2559  0.3881 -0.1829
 1849PEP     CB70248   9.942  20.937  21.040  0.1746  0.1292 -0.2213
 1849PEP     CB70249   9.958  21.283  21.416 -0.2351 -0.1331 -0.2166
 1849PEP     CB70250  10.023  21.417  21.820 -0.3673  0.1506  0.1115
 1849PEP     CB70251  10.195  21.486  22.219 -0.2508 -0.2130 -0.0793
 1849PEP     CB70252  10.474  21.422  22.491  0.3382  0.6842  0.0580
 1849PEP     CB70253  10.628  21.132  22.678 -0.4776 -0.1170  0.3673
 1849PEP     CB70254  10.979  21.141  23.036  0.2372  0.0973 -0.0405
 1849PEP     CB70255  11.229  21.403  23.300  0.2917 -0.0992 -0.3229
 1849PEP     CB70256  11.332  21.634  23.672 -0.1667 -0.1488  0.0944
 1849PEP     CB70257  11.548  21.613  24.116  0.2645  0.1231 -0.0067
 1849PEP     CB70258  11.931  21.675  24.353 -0.0528 -0.0015 -0.5978
 1849PEP     CB70259  12.369  21.740  24.517 -0.1990  0.4679  0.1264
 1849PEP     CB70260  12.622  21.994  24.724  0.3877  0.0807 -0.1316
 1849PEP     CB70261  12.849  22.029  25.089  0.0353 -0.2201 -0.3242
 1849PEP     CB70262  13.324  22.086  25.306 -0.0207 -0.3199 -0.0464
 1849PEP     CB70263  13.739  22.199  25.382 -0.1311  0.2033  0.0103
 1849PEP     CB70264  14.006  22.509  25.348 -0.0629 -0.0751 -0.1950
 1849PEP     CB70265  13.857  22.910  25.349  0.0453  0.0881  0.0985
 1849PEP     CB70266  13.474  23.088  25.155 -0.2365 -0.1589 -0.1663
 1849PEP     CB70267  13.131  23.301  24.943 -0.0538 -0.0187  0.2674
 1849PEP     CB70268  12.749  23.451  24.696  0.1637  0.2815 -0.0168
 1849PEP     CB70269  12.379  23.466  24.452 -0.2451  0.0373  0.0856
 1849PEP     CB70270  11.898  23.376  24.377 -0.2775 -0.0128 -0.3318
 1849PEP     CB70271  11.489  23.513  24.304 -0.0464  0.2136 -0.2046
 1849PEP     CB70272  11.234  23.852  24.316 -0.1348 -0.0546 -0.2280
 1849PEP     CB70273  11.052  24.087  24.495  0.1279  0.0636 -0.0408
 1849PEP     CB70274  11.031  24.162  24.901 -0.0917 -0.1444  0.3060
 1849PEP     CB70275  10.966  23.867  25.152 -0.2652 -0.1760 -0.0695
 1849PEP     CB70276  10.952  23.450  25.344  0.0257 -0.0231 -0.2561
 1849PEP     CB70277  11.054  23.188  25.586 -0.0326  0.3103 -0.1357
 1849PEP     CB70278  11.237  22.949  25.939 -0.1479 -0.1094  0.0775
 1849PEP     CB70279  11.576  22.777  26.001 -0.1085  0.0666 -0.0743
 1849PEP     CB70280  11.921  22.356  26.152  0.0715  0.0505 -0.4279
 1850PEP     CB70281  16.070  21.846  13.415 -0.1419  0.0161 -0.0698
 1850PEP     CB70282  15.782  21.927  13.132 -0.3951  0.1108 -0.0755
 1850PEP     CB70283  15.576  21.695  12.896 -0.0916 -0.3508  0.0435
 1850PEP     CB70284  15.396  21.284  12.961 -0.2197 -0.0022 -0.0405
 1850PEP     CB70285  15.310  20.969  13.145 -0.1022 -0.1426 -0.1331
 1850PEP     CB70286  15.090  20.637  13.335 -0.2741 -0.1347 -0.1527
 1850PEP     CB70287  14.852  20.388  13.689 -0.0830  0.2213 -0.0280
 1850PEP     CB70288  14.467  20.137  13.747 -0.1562  0.2831 -0.4060
 1850PEP     CB70289  14.130  19.812  13.879  0.0682 -0.3656 -0.3021
 1850PEP     CB70290  13.839  19.525  14.073  0.4181  0.3125 -0.1088
 1850PEP     CB70291  13.497  19.417  14.373  0.2004  0.4589 -0.0959
 1850PEP     CB70292  13.360  19.323  14.823  0.0062  0.4548  0.1706
 1850PEP     CB70293  13.109  19.100  15.034  0.2559 -0.0135 -0.4539
 1850PEP     CB70294  12.917  19.106  15.370 -0.2437  0.3675  0.3952
 1850PEP     CB70295  12.728  19.015  15.738  0.0396 -0.3651 -0.0544
 1850PEP     CB70296  12.600  18.879  16.179 -0.2285  0.1596  0.1519
 1850PEP     CB70297  12.532  18.984  16.576 -0.2704  0.0924 -0.1116
 1850PEP     CB70298  12.497  19.063  17.027 -0.2744  0.2986 -0.0949
 1850PEP     CB70299  12.696  19.044  17.446 -0.0393 -0.1250  0.4181
 1850PEP     CB70300  12.519  19.193  17.810 -0.2722 -0.2657  0.1184
 1850PEP     CB70301  12.073  19.167  17.919 -0.2562 -0.1451 -0.0851
 1850PEP     CB70302  11.738  19.121  18.168 -0.2528  0.0323  0.2221
 1850PEP     CB70303  11.537  18.736  18.382 -0.2151  0.0277 -0.1551
 1850PEP     CB70304  11.608  18.414  18.707  0.0417  0.0392  0.0019
 1850PEP     CB70305  11.354  18.263  18.916  0.2356 -0.0393  0.0607
 1850PEP     CB70306  11.007  18.454  19.127 -0.0330  0.0550 -0.1182
 1850PEP     CB70307  10.878  18.631  19.448  0.2517 -0.1255  0.1211
 1850PEP     CB70308  10.760  18.865  19.786 -0.5703 -0.1110  0.3067
 1850PEP     CB70309  10.557  18.887  20.218  0.0014 -0.0485 -0.4203
 1850PEP     CB70310  10.047  19.077  20.144 -0.3003  0.0287 -0.3095
 1850PEP     CB70311   9.879  19.441  19.921 -0.1707 -0.0775 -0.1188
 1850PEP     CB70312  10.010  19.653  19.722  0.0280 -0.0188 -0.0012
 1850PEP     CB70313  10.334  19.950  19.533  0.0077 -0.0109  0.1718
 1850PEP     CB70314  10.683  20.351  19.426  0.1337 -0.2714 -0.1555
 1850PEP     CB70315  11.048  20.435  19.665  0.2089 -0.0277  0.1524
 1850PEP     CB70316  11.364  20.406  20.071  0.3540  0.0936 -0.0902
 1850PEP     CB70317  11.394  20.420  20.574  0.3185  0.0508  0.1922
 1850PEP     CB70318  11.243  20.665  21.044 -0.2351 -0.0601  0.0537
 1850PEP     CB70319  11.278  20.785  21.574  0.2014  0.0687 -0.1341
 1850PEP     CB70320  11.258  20.869  22.000  0.2686  0.2220 -0.0007
 1851PEP     CB70321  21.986  14.527  20.359 -0.0180 -0.0027  0.2962
 1851PEP     CB70322  21.727  14.199  20.251 -0.1008 -0.4029  0.3885
 1851PEP     CB70323  21.817  14.061  19.797  0.0729  0.0141 -0.1500
 1851PEP     CB70324  22.226  14.013  19.644  0.0586 -0.1601  0.1316
 1851PEP     CB70325  22.526  13.845  19.962 -0.4296 -0.0713 -0.0099
 1851PEP     CB70326  22.902  13.725  20.077 -0.1086 -0.0802  0.2940
 1851PEP     CB70327  23.167  13.535  19.723 -0.1814 -0.0213  0.1537
 1851PEP     CB70328  22.968  13.415  19.322  0.0540 -0.2593  0.0398
 1851PEP     CB70329  22.772  13.666  18.993 -0.0720 -0.1358  0.0425
 1851PEP     CB70330  22.678  14.100  19.202  0.2091 -0.0573 -0.0180
 1851PEP     CB70331  22.305  14.304  19.282  0.0434  0.0214 -0.5643
 1851PEP     CB70332  21.893  14.406  19.385 -0.0724 -0.2164  0.1018
 1851PEP     CB70333  21.532  14.435  19.723  0.0864  0.3170  0.3698
 1851PEP     CB70334  21.320  14.398  20.094  0.4354  0.0127 -0.0140
 1851PEP     CB70335  20.982  14.380  20.437  0.1447 -0.0389 -0.0750
 1851PEP     CB70336  20.667  14.230  20.688 -0.1212  0.2145  0.1508
 1851PEP     CB70337  20.515  13.778  20.688 -0.0076 -0.1590  0.0711
 1851PEP     CB70338  20.396  13.454  20.582 -0.0304 -0.0733 -0.1215
 1851PEP     CB70339  20.219  13.034  20.523  0.0245 -0.1397  0.0140
 1851PEP     CB70340  20.347  12.667  20.700  0.1303 -0.0090 -0.1533
 1851PEP     CB70341  20.617  12.321  20.909  0.1490  0.1665 -0.1246
 1851PEP     CB70342  20.799  11.888  20.831  0.0241 -0.2142  0.4570
 1851PEP     CB70343  21.150  11.642  20.741 -0.2175 -0.2361  0.0898
 1851PEP     CB70344  21.269  11.253  20.548 -0.2247 -0.0780  0.0169
 1851PEP     CB70345  21.498  11.133  20.164  0.4121  0.1640 -0.0951
 1851PEP     CB70346  21.462  10.826  19.751 -0.3250  0.2277  0.1696
 1851PEP     CB70347  21.243  10.471  19.670 -0.3877  0.0785  0.0804
 1851PEP     CB70348  21.056  10.155  19.865 -0.3640  0.1206 -0.1498
 1851PEP     CB70349  21.061   9.734  19.962 -0.2379  0.1629 -0.3515
 1851PEP     CB70350  21.381   9.437  20.001 -0.0949  0.1093 -0.0296
 1851PEP     CB70351  21.706   9.112  19.637 -0.1385  0.0279  0.0390
 1851PEP     CB70352  21.650   8.748  19.379 -0.3638 -0.0640  0.4125
 1851PEP     CB70353  21.617   8.352  19.332  0.0943  0.1241 -0.6787
 1851PEP     CB70354  21.831   8.035  19.530 -0.3244  0.0667  0.1786
 1851PEP     CB70355  21.890   7.624  19.702 -0.0199 -0.6059  0.3010
 1851PEP     CB70356  21.843   7.427  20.068 -0.3829  0.2826  0.1107
 1851PEP     CB70357  21.731   7.174  20.372  0.0756 -0.0207  0.4450
 1851PEP     CB70358  21.472   7.185  20.687  0.1708 -0.0998  0.1355
 1851PEP     CB70359  21.583   7.396  21.054 -0.2630  0.0842 -0.5483
 1851PEP     CB70360  21.902   7.528  21.217  0.2673 -0.0915 -0.0307
 1852PEP     CB70361   9.798   1.598  15.803 -0.0392 -0.0217 -0.1837
 1852PEP     CB70362  10.151   1.327  15.727 -0.2776  0.0040 -0.0288
 1852PEP     CB70363  10.394   0.955  15.528 -0.1531 -0.0529  0.0419
 1852PEP     CB70364  10.621   0.641  15.434 -0.1734  0.4503 -0.1504
 1852PEP     CB70365  10.923   0.489  15.616  0.1225 -0.0069 -0.2609
 1852PEP     CB70366  11.289   0.548  15.517  0.2704 -0.5757  0.0189
 1852PEP     CB70367  11.819   0.686  15.418 -0.1264  0.0706 -0.5378
 1852PEP     CB70368  12.281   0.614  15.553 -0.4111  0.0888  0.2378
 1852PEP     CB70369  12.521   0.222  15.454 -0.1665 -0.1463 -0.0451
 1852PEP     CB70370  12.520   0.041  15.073 -0.0647 -0.0986  0.3815
 1852PEP     CB70371  12.692  -0.025  14.712 -0.0789 -0.0469 -0.2780
 1852PEP     CB70372  13.063   0.044  14.422  0.1465  0.2319 -0.1297
 1852PEP     CB70373  13.233  -0.157  13.983  0.3925 -0.2532 -0.2945
 1852PEP     CB70374  13.342   0.015  13.646  0.1779  0.0010 -0.3004
 1852PEP     CB70375  13.647   0.323  13.678 -0.0001  0.0486 -0.1109
 1852PEP     CB70376  13.532   0.713  13.893 -0.1277 -0.2258 -0.0648
 1852PEP     CB70377  13.425   0.817  14.310 -0.0349  0.0633 -0.2287
 1852PEP     CB70378  13.111   0.884  14.592 -0.7132  0.6243 -0.0460
 1852PEP     CB70379  12.700   0.801  14.493 -0.1590 -0.0275 -0.0344
 1852PEP     CB70380  12.212   0.682  14.349 -0.0093 -0.2278  0.1299
 1852PEP     CB70381  11.934   0.364  14.292  0.2410 -0.4441  0.2151
 1852PEP     CB70382  11.856  -0.031  14.126  0.2710 -0.1853  0.0483
 1852PEP     CB70383  11.838  -0.485  14.261  0.1741 -0.1868  0.0921
 1852PEP     CB70384  12.050  -0.607  14.694 -0.1096  0.2424 -0.2418
 1852PEP     CB70385  12.234  -0.449  15.064 -0.2303 -0.0284  0.2949
 1852PEP     CB70386  12.340  -0.252  15.457 -0.3022 -0.0503  0.4369
 1852PEP     CB70387  12.205  -0.330  15.874 -0.0214 -0.0220  0.0283
 1852PEP     CB70388  12.356  -0.709  16.228 -0.0453 -0.2700  0.0145
 1852PEP     CB70389  12.711  -0.901  16.311  0.1327  0.2152 -0.3851
 1852PEP     CB70390  12.886  -0.978  16.649  0.0308 -0.0722 -0.0925
 1852PEP     CB70391  12.773  -0.855  17.098  0.0514  0.2612 -0.0552
 1852PEP     CB70392  12.665  -0.478  17.240  0.0028  0.1566  0.0286
 1852PEP     CB70393  12.757  -0.010  17.173 -0.1171  0.2455 -0.1622
 1852PEP     CB70394  13.005   0.281  16.914  0.2417  0.3583  0.2587
 1852PEP     CB70395  13.300   0.521  16.647 -0.0232 -0.0563 -0.1308
 1852PEP     CB70396  13.609   0.474  16.299 -0.2044 -0.0934  0.1123
 1852PEP     CB70397  13.821   0.031  16.113 -0.1518  0.2228 -0.0406
 1852PEP     CB70398  13.626  -0.256  15.961 -0.0347 -0.1453  0.0080
 1852PEP     CB70399  13.376  -0.216  15.627 -0.1019 -0.3773 -0.0412
 1852PEP     CB70400  13.181   0.140  15.298  0.1120 -0.5564 -0.1543
 1853PEP     CB70401  15.367  13.374  16.665  0.3504 -0.3640  0.1629
 1853PEP     CB70402  15.728  13.387  16.926  0.2974 -0.0054  0.3864
 1853PEP     CB70403  15.972  13.250  17.323  0.0271  0.3628  0.0400
 1853PEP     CB70404  15.990  12.982  17.706 -0.4148 -0.1839  0.0106
 1853PEP     CB70405  15.951  12.591  18.011  0.1609 -0.0858 -0.2219
 1853PEP     CB70406  16.090  12.177  18.055  0.1616 -0.3233 -0.1346
 1853PEP     CB70407  16.168  11.699  18.194  0.0519  0.2210 -0.0037
 1853PEP     CB70408  16.047  11.328  18.182 -0.0651  0.0386 -0.3387
 1853PEP     CB70409  15.738  11.110  18.043  0.2167 -0.0019  0.2477
 1853PEP     CB70410  15.560  10.742  17.863  0.0896  0.2606  0.0324
 1853PEP     CB70411  15.443  10.333  17.507 -0.2841  0.0225  0.2228
 1853PEP     CB70412  15.501  10.494  17.121 -0.0904 -0.0352  0.1929
 1853PEP     CB70413  15.696  10.847  17.020  0.1547 -0.3639  0.2280
 1853PEP     CB70414  15.912  11.208  16.736  0.0322 -0.2537 -0.1854
 1853PEP     CB70415  16.089  11.571  16.476 -0.0364 -0.0314 -0.0703
 1853PEP     CB70416  16.210  11.982  16.367 -0.0013 -0.6681  0.0986
 1853PEP     CB70417  16.096  12.492  16.411  0.2755  0.2217 -0.1177
 1853PEP     CB70418  16.337  12.789  16.335 -0.3324  0.2101  0.0884
 1853PEP     CB70419  16.345  13.086  16.006 -0.2321 -0.1305 -0.0894
 1853PEP     CB70420  16.348  13.530  15.998  0.3038  0.2583 -0.0358
 1853PEP     CB70421  16.169  13.806  15.666 -0.1290  0.2301  0.4820
 1853PEP     CB70422  15.748  13.828  15.472 -0.0253 -0.1341  0.1408
 1853PEP     CB70423  15.353  13.676  15.366  0.2977 -0.2000 -0.1000
 1853PEP     CB70424  15.137  13.464  15.084 -0.3411  0.3873 -0.0479
 1853PEP     CB70425  15.183  13.374  14.705  0.0574 -0.1501  0.0730
 1853PEP     CB70426  15.357  13.657  14.394  0.2738  0.3264 -0.2950
 1853PEP     CB70427  15.362  14.091  14.476 -0.0878 -0.1520 -0.0185
 1853PEP     CB70428  15.130  14.361  14.606 -0.0337  0.2984 -0.1343
 1853PEP     CB70429  15.137  14.720  14.759  0.2686 -0.0401 -0.8729
 1853PEP     CB70430  15.418  15.048  14.885  0.1491  0.0253  0.2162
 1853PEP     CB70431  15.886  15.139  14.677 -0.1643 -0.0659 -0.0014
 1853PEP     CB70432  16.110  14.741  14.587 -0.1273  0.0778  0.2050
 1853PEP     CB70433  16.312  14.343  14.722 -0.2391 -0.0376  0.4887
 1853PEP     CB70434  16.499  13.978  14.997  0.4691  0.0503  0.2804
 1853PEP     CB70435  16.652  13.766  15.308 -0.2579 -0.1263  0.1559
 1853PEP     CB70436  16.503  13.377  15.584 -0.1921 -0.2775 -0.0779
 1853PEP     CB70437  16.393  13.090  15.315 -0.2270 -0.2535 -0.1261
 1853PEP     CB70438  16.532  13.293  14.894 -0.0822  0.0723 -0.2059
 1853PEP     CB70439  16.799  13.624  14.860 -0.0686  0.2033  0.2902
 1853PEP     CB70440  17.207  14.018  14.920 -0.1244 -0.1410  0.1463
 1854PEP     CB70441   5.451   4.554  17.437 -0.2403  0.1225  0.0969
 1854PEP     CB70442   5.858   4.697  17.263  0.1148 -0.0101  0.2070
 1854PEP     CB70443   5.979   4.916  16.874 -0.2944  0.2140 -0.2826
 1854PEP     CB70444   5.819   5.046  16.498 -0.2785 -0.4814 -0.2773
 1854PEP     CB70445   5.565   4.791  16.251  0.0825  0.2664 -0.0151
 1854PEP     CB70446   5.514   4.419  16.506 -0.3333 -0.2646  0.2258
 1854PEP     CB70447   5.608   4.376  16.972  0.0481 -0.0728 -0.0503
 1854PEP     CB70448   5.748   4.023  17.250  0.5205 -0.4178 -0.0219
 1854PEP     CB70449   5.724   3.645  17.380  0.1341  0.1707 -0.0516
 1854PEP     CB70450   5.495   3.304  17.500 -0.0250  0.0436 -0.0427
 1854PEP     CB70451   5.226   2.937  17.570  0.1496  0.0746  0.0390
 1854PEP     CB70452   5.140   2.718  17.962 -0.1445  0.0981 -0.0624
 1854PEP     CB70453   5.334   2.903  18.316  0.0402 -0.1995 -0.2803
 1854PEP     CB70454   5.302   3.312  18.476  0.0854 -0.0500 -0.2743
 1854PEP     CB70455   4.814   3.530  18.617 -0.4796 -0.1421  0.0931
 1854PEP     CB70456   4.413   3.424  18.746  0.3228 -0.2466 -0.1780
 1854PEP     CB70457   4.046   3.260  18.524  0.1875 -0.3457  0.0372
 1854PEP     CB70458   3.670   3.301  18.408 -0.0789  0.1751 -0.1964
 1854PEP     CB70459   3.297   3.129  18.264 -0.0584  0.0255  0.0335
 1854PEP     CB70460   2.849   3.040  18.228 -0.4845 -0.0828  0.2322
 1854PEP     CB70461   2.426   2.988  18.362  0.0266 -0.0339  0.0611
 1854PEP     CB70462   2.019   3.236  18.363 -0.2459  0.1554 -0.0431
 1854PEP     CB70463   1.702   3.549  18.213  0.1970  0.1634 -0.2214
 1854PEP     CB70464   1.663   3.835  17.788 -0.0183 -0.0465 -0.2871
 1854PEP     CB70465   1.464   3.852  17.370  0.0730  0.0602 -0.0784
 1854PEP     CB70466   1.747   3.711  17.010  0.1482  0.3837 -0.3323
 1854PEP     CB70467   2.116   3.412  16.900 -0.0212 -0.0183 -0.1228
 1854PEP     CB70468   2.408   3.112  16.985 -0.1289  0.4743 -0.0414
 1854PEP     CB70469   2.704   2.972  17.294 -0.2280 -0.3022 -0.0181
 1854PEP     CB70470   2.899   2.989  17.671 -0.4387  0.6460  0.0647
 1854PEP     CB70471   3.177   2.652  17.919  0.1528  0.3433  0.2755
 1854PEP     CB70472   3.597   2.459  18.103 -0.0983  0.0587 -0.1991
 1854PEP     CB70473   3.957   2.426  18.431  0.0375 -0.2371  0.1121
 1854PEP     CB70474   4.200   2.836  18.648  0.1758  0.0112  0.2937
 1854PEP     CB70475   4.484   3.038  18.447  0.4819 -0.0322  0.2638
 1854PEP     CB70476   4.526   3.383  18.175 -0.1317 -0.3058 -0.1412
 1854PEP     CB70477   4.740   3.576  17.785 -0.2551 -0.1063 -0.2978
 1854PEP     CB70478   4.930   3.916  17.539  0.0778  0.1380 -0.0922
 1854PEP     CB70479   5.301   4.055  17.141 -0.0452 -0.0290 -0.1354
 1854PEP     CB70480   5.318   4.041  16.668 -0.2715  0.1208 -0.3898
 1855PEP     CB70481   9.642   3.113  11.766  0.1606 -0.2682  0.2370
 1855PEP     CB70482   9.553   3.107  11.314 -0.3107  0.0685  0.1580
 1855PEP     CB70483   9.292   2.769  11.087  0.3750  0.1535 -0.1799
 1855PEP     CB70484   9.131   2.470  11.396  0.5442  0.3079  0.2649
 1855PEP     CB70485   8.984   2.430  11.801 -0.3301  0.2936 -0.0804
 1855PEP     CB70486   8.561   2.452  11.901  0.1222 -0.0676  0.2424
 1855PEP     CB70487   8.154   2.367  12.085 -0.2912  0.6503  0.3573
 1855PEP     CB70488   8.014   2.264  12.529 -0.4042 -0.3226 -0.4824
 1855PEP     CB70489   7.713   2.168  12.819  0.0518  0.2626  0.1524
 1855PEP     CB70490   7.664   1.939  13.198 -0.0790 -0.1248  0.0033
 1855PEP     CB70491   7.800   1.465  13.160  0.0557 -0.2360  0.0763
 1855PEP     CB70492   8.075   1.109  13.237 -0.2309 -0.2867 -0.3639
 1855PEP     CB70493   7.978   0.634  13.379  0.2510 -0.1219  0.0979
 1855PEP     CB70494   7.737   0.341  13.274  0.0030  0.1216  0.0142
 1855PEP     CB70495   7.332   0.163  13.447 -0.1551  0.2433 -0.3009
 1855PEP     CB70496   7.129  -0.138  13.631  0.0246 -0.0133 -0.1688
 1855PEP     CB70497   7.149  -0.554  13.827 -0.2774 -0.0637  0.1033
 1855PEP     CB70498   6.910  -0.961  13.954  0.0699  0.0883 -0.6716
 1855PEP     CB70499   6.788  -1.120  14.379  0.5414  0.1147 -0.0006
 1855PEP     CB70500   6.927  -0.832  14.707  0.0866  0.0364 -0.0001
 1855PEP     CB70501   7.118  -0.442  14.758 -0.1439 -0.1124 -0.0565
 1855PEP     CB70502   7.225  -0.011  14.600  0.1643 -0.0287 -0.2944
 1855PEP     CB70503   7.433   0.337  14.603 -0.1431  0.1772 -0.0158
 1855PEP     CB70504   7.499   0.585  14.943 -0.1475 -0.2257 -0.3608
 1855PEP     CB70505   7.760   0.665  15.277 -0.0535  0.2295 -0.1593
 1855PEP     CB70506   7.646   0.543  15.672  0.1753 -0.1185 -0.0695
 1855PEP     CB70507   7.507   0.573  16.120  0.2959 -0.3092  0.1298
 1855PEP     CB70508   7.334   0.399  16.396 -0.3032  0.0493 -0.0875
 1855PEP     CB70509   7.231   0.468  16.873  0.2492  0.1476 -0.0692
 1855PEP     CB70510   7.246   0.913  17.059  0.2384 -0.0979 -0.1012
 1855PEP     CB70511   7.496   1.310  17.127  0.3475  0.3198  0.3779
 1855PEP     CB70512   7.838   1.619  17.065 -0.2999 -0.0242 -0.2868
 1855PEP     CB70513   8.053   2.026  16.956 -0.4575 -0.0882 -0.0751
 1855PEP     CB70514   8.055   2.474  16.993  0.1662  0.0377 -0.1484
 1855PEP     CB70515   8.130   2.574  17.397 -0.3032  0.1359 -0.0707
 1855PEP     CB70516   8.193   2.211  17.663 -0.2922  0.2375 -0.1266
 1855PEP     CB70517   7.980   1.989  17.854  0.1906  0.0044  0.1251
 1855PEP     CB70518   7.672   1.935  18.094 -0.0146 -0.1317  0.1560
 1855PEP     CB70519   7.336   1.741  18.274 -0.0773 -0.1946  0.0956
 1855PEP     CB70520   7.064   1.567  18.442  0.2676  0.7806  0.3458
 1856PEP     CB70521  11.797   7.293  21.481  0.1010 -0.3389 -0.0816
 1856PEP     CB70522  11.416   7.280  21.379 -0.0257  0.2401 -0.0657
 1856PEP     CB70523  11.065   7.378  21.064  0.0234  0.0524  0.2335
 1856PEP     CB70524  10.759   7.571  20.816 -0.3167  0.0475 -0.3002
 1856PEP     CB70525  10.774   7.717  20.358 -0.3720 -0.0118  0.0352
 1856PEP     CB70526  10.642   7.602  19.934  0.0477 -0.2149 -0.2840
 1856PEP     CB70527  10.854   7.274  19.644 -0.2799  0.0215  0.1501
 1856PEP     CB70528  11.159   6.892  19.688  0.5552 -0.2991  0.0447
 1856PEP     CB70529  11.186   6.568  19.281 -0.0372  0.0151  0.1137
 1856PEP     CB70530  10.815   6.377  19.144  0.0582  0.1011  0.0937
 1856PEP     CB70531  10.374   6.447  19.105  0.2949 -0.0038 -0.0195
 1856PEP     CB70532   9.976   6.617  18.899  0.1088 -0.3990  0.3115
 1856PEP     CB70533   9.649   6.427  18.803 -0.4030  0.0448  0.3116
 1856PEP     CB70534   9.366   6.271  18.507  0.1400  0.0766  0.0283
 1856PEP     CB70535   9.222   6.324  18.078 -0.0426  0.2780 -0.0196
 1856PEP     CB70536   9.465   6.515  17.697 -0.0956 -0.0718 -0.0278
 1856PEP     CB70537   9.716   6.475  17.237  0.3389 -0.0879  0.1444
 1856PEP     CB70538   9.707   6.345  16.841  0.2603 -0.0813  0.0107
 1856PEP     CB70539   9.586   6.378  16.418  0.1041 -0.2089  0.0687
 1856PEP     CB70540   9.387   6.615  16.095 -0.0550 -0.1157 -0.3686
 1856PEP     CB70541   9.139   6.952  16.028  0.1316 -0.2494 -0.3985
 1856PEP     CB70542   8.650   7.057  15.958 -0.3499 -0.1375 -0.1757
 1856PEP     CB70543   8.430   7.358  15.861 -0.1765 -0.1384  0.0237
 1856PEP     CB70544   8.083   7.602  16.016  0.1742  0.0467 -0.1572
 1856PEP     CB70545   7.716   7.525  16.211  0.0076 -0.1582  0.0495
 1856PEP     CB70546   7.204   7.307  16.193 -0.1410 -0.0981  0.1666
 1856PEP     CB70547   6.974   6.931  16.241 -0.2796 -0.2694  0.0493
 1856PEP     CB70548   6.611   6.679  16.382  0.3726 -0.1030 -0.1941
 1856PEP     CB70549   6.321   6.367  16.431 -0.0213 -0.1058  0.3440
 1856PEP     CB70550   6.100   6.035  16.279  0.2657  0.0949  0.0114
 1856PEP     CB70551   5.958   5.771  15.909  0.0581  0.3472 -0.1978
 1856PEP     CB70552   6.208   5.463  15.566 -0.0595  0.3890 -0.0865
 1856PEP     CB70553   6.134   5.184  15.227 -0.2328  0.0746  0.1056
 1856PEP     CB70554   5.982   4.857  15.019 -0.1496  0.0667 -0.0360
 1856PEP     CB70555   5.703   4.577  15.107 -0.0743  0.0089 -0.2748
 1856PEP     CB70556   5.399   4.407  15.473 -0.0059 -0.3526  0.1275
 1856PEP     CB70557   4.966   4.238  15.601 -0.0454 -0.2234 -0.0206
 1856PEP     CB70558   4.668   4.379  15.900 -0.0211 -0.2648  0.1758
 1856PEP     CB70559   4.492   4.562  16.263  0.0133  0.0769 -0.1317
 1856PEP     CB70560   4.244   4.820  16.580 -0.3093 -0.0390 -0.0028
 1857PEP     CB70561  11.695  14.577  21.825 -0.1261 -0.1990 -0.0493
 1857PEP     CB70562  11.690  14.775  22.172 -0.0687  0.1742 -0.3060
 1857PEP     CB70563  11.424  15.163  22.246 -0.2338  0.0666  0.2251
 1857PEP     CB70564  11.110  15.421  22.297  0.2339  0.1723 -0.3554
 1857PEP     CB70565  10.729  15.638  22.400  0.3330  0.1611 -0.0386
 1857PEP     CB70566  10.380  15.552  22.772 -0.2029  0.0220  0.0169
 1857PEP     CB70567  10.571  15.481  23.188  0.0869  0.3007  0.1705
 1857PEP     CB70568  10.885  15.659  23.305  0.2095  0.1647 -0.2065
 1857PEP     CB70569  10.987  16.093  23.245  0.1413  0.0678  0.1585
 1857PEP     CB70570  10.792  16.406  22.964  0.2391  0.3875  0.0899
 1857PEP     CB70571  10.654  16.597  22.651  0.1437 -0.1343  0.2175
 1857PEP     CB70572  10.638  17.031  22.464 -0.0297  0.2292  0.0811
 1857PEP     CB70573  10.657  17.467  22.375  0.1640 -0.0418 -0.0791
 1857PEP     CB70574  10.552  17.931  22.406 -0.0358  0.1572 -0.2584
 1857PEP     CB70575  10.276  18.303  22.375 -0.1703  0.1200 -0.3743
 1857PEP     CB70576   9.846  18.487  22.375 -0.1354  0.1948 -0.3536
 1857PEP     CB70577   9.588  18.818  22.543  0.0928 -0.0107 -0.4489
 1857PEP     CB70578   9.356  19.214  22.617  0.1343  0.0741  0.1733
 1857PEP     CB70579   9.078  19.429  22.894 -0.2449 -0.1653  0.0408
 1857PEP     CB70580   8.813  19.701  23.103 -0.1443  0.3027 -0.1086
 1857PEP     CB70581   8.706  20.234  23.212 -0.0098  0.0036  0.2095
 1857PEP     CB70582   8.933  20.437  23.399 -0.2521  0.0593 -0.5927
 1857PEP     CB70583   9.056  20.718  23.620  0.1618  0.0621 -0.0851
 1857PEP     CB70584   8.987  21.144  23.596 -0.0321  0.0356 -0.1816
 1857PEP     CB70585   8.655  21.352  23.314 -0.3709 -0.1441 -0.1669
 1857PEP     CB70586   8.457  21.343  23.025  0.0924 -0.0046  0.2345
 1857PEP     CB70587   8.025  21.503  22.832 -0.4595 -0.1981 -0.2018
 1857PEP     CB70588   7.737  21.797  22.620  0.4489 -0.2668  0.1859
 1857PEP     CB70589   7.558  22.208  22.421 -0.0951  0.3340  0.0162
 1857PEP     CB70590   7.271  22.559  22.399  0.1200  0.0065 -0.1794
 1857PEP     CB70591   7.023  22.810  22.495  0.1831  0.2237 -0.1715
 1857PEP     CB70592   6.905  23.135  22.748  0.0415  0.1923  0.0996
 1857PEP     CB70593   6.536  23.338  22.732  0.1008 -0.1065  0.1656
 1857PEP     CB70594   6.144  23.096  22.737  0.1906  0.2519 -0.4189
 1857PEP     CB70595   5.722  23.011  22.524  0.1230  0.3569  0.3502
 1857PEP     CB70596   5.502  22.649  22.276 -0.3140  0.1164  0.0170
 1857PEP     CB70597   5.542  22.460  21.846  0.0123  0.3240 -0.1556
 1857PEP     CB70598   5.523  22.012  21.641 -0.1153 -0.0260 -0.6543
 1857PEP     CB70599   5.216  21.699  21.759  0.3223  0.2926  0.3852
 1857PEP     CB70600   4.987  21.359  21.492 -0.3200 -0.3458 -0.0926
 1858PEP     CB70601  13.430  14.357  21.008 -0.0776  0.0529 -0.0399
 1858PEP     CB70602  13.842  14.559  20.945  0.0758  0.1155  0.1692
 1858PEP     CB70603  14.062  14.892  20.849 -0.0469 -0.2382  0.3642
 1858PEP     CB70604  14.320  15.151  21.046  0.0433 -0.3042 -0.1069
 1858PEP     CB70605  14.782  15.275  21.184 -0.1494  0.4355  0.2998
 1858PEP     CB70606  15.153  15.265  21.449 -0.0908  0.2177  0.0677
 1858PEP     CB70607  15.542  15.289  21.625  0.1482  0.1621  0.3638
 1858PEP     CB70608  15.929  15.229  21.878  0.0233  0.0835  0.1611
 1858PEP     CB70609  16.203  15.229  22.203  0.0984 -0.2280  0.0232
 1858PEP     CB70610  16.334  15.444  22.586  0.0073 -0.0347 -0.4468
 1858PEP     CB70611  16.425  15.870  22.867 -0.1059  0.0707 -0.4601
 1858PEP     CB70612  16.459  16.296  23.004 -0.2780 -0.3376  0.0766
 1858PEP     CB70613  16.401  16.720  22.911 -0.0432 -0.2599 -0.1161
 1858PEP     CB70614  16.145  17.100  23.126 -0.2755 -0.3149 -0.2752
 1858PEP     CB70615  15.914  17.430  23.309 -0.0426 -0.4703  0.1792
 1858PEP     CB70616  15.566  17.691  23.318 -0.1309 -0.0101 -0.0289
 1858PEP     CB70617  15.281  17.912  23.294  0.3224  0.0559 -0.1033
 1858PEP     CB70618  15.008  18.205  23.176  0.0949 -0.1016  0.0971
 1858PEP     CB70619  14.827  18.667  23.295  0.1480 -0.0900 -0.4436
 1858PEP     CB70620  14.791  19.143  23.289  0.1741 -0.1316  0.1231
 1858PEP     CB70621  14.703  19.434  23.602 -0.3233  0.2403  0.0450
 1858PEP     CB70622  14.331  19.474  23.934  0.0681 -0.3461  0.3613
 1858PEP     CB70623  14.023  19.529  24.289 -0.0400  0.3234 -0.1175
 1858PEP     CB70624  13.707  19.651  24.502 -0.0238 -0.0193  0.4368
 1858PEP     CB70625  13.578  19.790  24.868  0.2872  0.2815 -0.1063
 1858PEP     CB70626  13.666  19.867  25.310 -0.4514 -0.2668 -0.1792
 1858PEP     CB70627  13.660  20.009  25.702  0.2437  0.1096  0.2495
 1858PEP     CB70628  13.492  20.123  26.086 -0.1816 -0.0856  0.1865
 1858PEP     CB70629  13.054  20.296  26.011 -0.0441 -0.1525  0.1963
 1858PEP     CB70630  12.818  20.283  25.686 -0.1224  0.1051 -0.3451
 1858PEP     CB70631  12.783  20.185  25.360 -0.1901 -0.2218  0.0045
 1858PEP     CB70632  12.855  19.822  25.012  0.1737  0.0988  0.1580
 1858PEP     CB70633  12.772  19.531  24.768  0.2669  0.0828 -0.1978
 1858PEP     CB70634  12.710  19.410  24.348  0.1990 -0.0032  0.5525
 1858PEP     CB70635  13.010  19.237  24.040  0.0042  0.2608 -0.3679
 1858PEP     CB70636  13.427  19.117  23.930  0.5528 -0.1419  0.1999
 1858PEP     CB70637  13.725  19.142  24.198 -0.1643  0.0094  0.2243
 1858PEP     CB70638  14.154  19.090  24.440  0.0663 -0.2240  0.2236
 1858PEP     CB70639  14.242  19.027  24.875  0.2030 -0.0439 -0.2108
 1858PEP     CB70640  14.383  18.898  25.295 -0.1995 -0.0029  0.0897
 1859PEP     CB70641   8.547  21.024  10.488  0.0521  0.0224 -0.4727
 1859PEP     CB70642   8.390  21.421  10.761 -0.0523  0.3035  0.1628
 1859PEP     CB70643   8.420  21.614  11.194  0.1550  0.5829 -0.0521
 1859PEP     CB70644   8.498  21.661  11.626  0.0853  0.2501 -0.0521
 1859PEP     CB70645   8.547  21.548  12.075 -0.2554  0.0916 -0.1019
 1859PEP     CB70646   8.231  21.444  12.336 -0.0167 -0.1105  0.0848
 1859PEP     CB70647   7.935  21.170  12.409 -0.0567  0.0148  0.0413
 1859PEP     CB70648   7.833  20.717  12.379  0.4966 -0.3888 -0.1538
 1859PEP     CB70649   7.724  20.312  12.152 -0.2468 -0.0922 -0.3101
 1859PEP     CB70650   7.365  20.113  12.086 -0.3326 -0.3614 -0.0429
 1859PEP     CB70651   7.181  19.867  12.317 -0.0639  0.2795  0.0554
 1859PEP     CB70652   7.026  19.673  12.726 -0.1507 -0.0791  0.2373
 1859PEP     CB70653   6.894  19.422  13.117  0.0203 -0.1017  0.0405
 1859PEP     CB70654   6.627  19.380  13.356 -0.0230  0.2500 -0.1495
 1859PEP     CB70655   6.216  19.548  13.606  0.1616 -0.4400  0.0868
 1859PEP     CB70656   5.846  19.654  13.368  0.3434  0.1672 -0.1774
 1859PEP     CB70657   5.733  19.539  12.900  0.3381 -0.1101 -0.1103
 1859PEP     CB70658   5.656  19.150  12.679 -0.0431 -0.4544  0.1949
 1859PEP     CB70659   5.616  18.810  12.387 -0.1060 -0.3152 -0.0524
 1859PEP     CB70660   5.438  18.404  12.299  0.2592  0.1582 -0.1405
 1859PEP     CB70661   5.662  17.967  12.335 -0.1832  0.5692 -0.1158
 1859PEP     CB70662   5.989  17.837  12.052  0.3514  0.1752 -0.1549
 1859PEP     CB70663   6.178  17.992  11.698 -0.0066  0.0159  0.0704
 1859PEP     CB70664   6.024  18.259  11.386 -0.0794  0.1009  0.1097
 1859PEP     CB70665   5.678  18.527  11.263  0.0963  0.0615  0.0913
 1859PEP     CB70666   5.559  18.930  11.200  0.4187  0.0967  0.2426
 1859PEP     CB70667   5.468  19.206  10.844 -0.1404 -0.1217 -0.1020
 1859PEP     CB70668   5.614  19.402  10.470  0.0715  0.0274 -0.1266
 1859PEP     CB70669   5.854  19.699  10.260 -0.2001 -0.0232 -0.4796
 1859PEP     CB70670   5.918  20.102  10.214 -0.4432 -0.0128 -0.2082
 1859PEP     CB70671   6.190  20.492  10.268 -0.0770 -0.1175  0.4347
 1859PEP     CB70672   6.209  20.995  10.173  0.1883 -0.1929  0.0245
 1859PEP     CB70673   6.030  21.338  10.331 -0.0621  0.1903  0.3439
 1859PEP     CB70674   5.863  21.347  10.744 -0.3179  0.0020  0.5727
 1859PEP     CB70675   6.071  21.107  11.115 -0.1188 -0.1423 -0.0775
 1859PEP     CB70676   6.542  21.133  11.159  0.5062  0.0461 -0.1227
 1859PEP     CB70677   6.753  21.492  10.930 -0.3410 -0.0029 -0.0785
 1859PEP     CB70678   6.886  21.691  10.486 -0.0082  0.2908  0.2036
 1859PEP     CB70679   6.900  21.795  10.085  0.4555 -0.0722 -0.2391
 1859PEP     CB70680   6.576  21.965   9.875 -0.2693  0.0339 -0.0120
 1860PEP     CB70681   4.245  14.077  11.406  0.4812  0.1357 -0.1858
 1860PEP     CB70682   4.237  14.441  11.663 -0.0856 -0.4917 -0.4400
 1860PEP     CB70683   4.247  14.632  12.104  0.4077 -0.1090  0.2144
 1860PEP     CB70684   4.490  14.874  12.492  0.0367 -0.3144 -0.0488
 1860PEP     CB70685   4.882  14.916  12.827 -0.0273 -0.1918  0.3098
 1860PEP     CB70686   5.280  14.919  13.044  0.2912  0.0668 -0.0712
 1860PEP     CB70687   5.602  14.948  13.333  0.3911  0.1128 -0.0216
 1860PEP     CB70688   5.888  15.192  13.663 -0.1217  0.2277 -0.1456
 1860PEP     CB70689   6.085  15.439  13.444 -0.1248  0.3276 -0.1008
 1860PEP     CB70690   5.998  15.834  13.448 -0.1922 -0.3382  0.0884
 1860PEP     CB70691   5.970  15.960  13.849 -0.2448 -0.0342  0.0916
 1860PEP     CB70692   5.968  15.619  14.156  0.2231 -0.3007  0.2380
 1860PEP     CB70693   5.704  15.297  14.071  0.0378 -0.0099 -0.0458
 1860PEP     CB70694   5.271  15.142  13.752  0.4001 -0.0010  0.0825
 1860PEP     CB70695   5.131  15.324  13.434 -0.0840 -0.6611 -0.0885
 1860PEP     CB70696   4.840  15.234  13.174  0.1061  0.1755  0.3662
 1860PEP     CB70697   4.383  15.229  12.926 -0.2556 -0.2214 -0.0349
 1860PEP     CB70698   4.039  15.489  12.944 -0.3482 -0.1013  0.0306
 1860PEP     CB70699   4.074  16.005  13.098 -0.1791  0.0980 -0.2857
 1860PEP     CB70700   4.342  16.252  13.376  0.0580  0.0021 -0.2492
 1860PEP     CB70701   4.548  16.396  13.718  0.1341 -0.1914  0.2939
 1860PEP     CB70702   4.704  16.619  14.064 -0.1732  0.3417  0.1693
 1860PEP     CB70703   4.816  16.898  14.409 -0.2560  0.0781  0.4621
 1860PEP     CB70704   5.032  17.309  14.498 -0.4314  0.1081  0.2110
 1860PEP     CB70705   5.133  17.684  14.246 -0.1680  0.3010  0.1254
 1860PEP     CB70706   5.258  17.832  13.896  0.1090 -0.0679 -0.1792
 1860PEP     CB70707   5.325  17.907  13.461 -0.5426 -0.0181 -0.0275
 1860PEP     CB70708   5.265  18.193  13.202  0.0241 -0.1146  0.0586
 1860PEP     CB70709   5.145  18.141  12.824 -0.2408 -0.0800  0.0838
 1860PEP     CB70710   4.960  17.787  12.667  0.2750  0.3086 -0.0782
 1860PEP     CB70711   5.038  17.393  12.837  0.3680  0.0465 -0.1658
 1860PEP     CB70712   5.486  17.248  13.012  0.4210  0.0987 -0.0298
 1860PEP     CB70713   5.886  17.084  12.955  0.0249 -0.3720  0.4229
 1860PEP     CB70714   6.317  16.952  12.918 -0.2825 -0.3209 -0.0717
 1860PEP     CB70715   6.559  16.811  12.503  0.0175  0.1587  0.1074
 1860PEP     CB70716   6.458  16.614  12.115 -0.2439  0.0564 -0.2763
 1860PEP     CB70717   6.108  16.403  11.957 -0.2656  0.3534  0.0407
 1860PEP     CB70718   5.802  16.297  11.589 -0.0733 -0.1645 -0.1145
 1860PEP     CB70719   5.542  16.034  11.364 -0.5026  0.0763 -0.4221
 1860PEP     CB70720   5.351  15.649  11.066  0.0224 -0.1126  0.2228
 1861PEP     CB70721  16.263   4.418   0.268  0.0504  0.0260  0.4565
 1861PEP     CB70722  15.972   4.687   0.035 -0.1513  0.4412 -0.1497
 1861PEP     CB70723  15.515   4.861  -0.176  0.0967 -0.2324  0.0642
 1861PEP     CB70724  15.173   5.181  -0.162 -0.2355 -0.2378  0.0637
 1861PEP     CB70725  15.078   5.453   0.146 -0.2407 -0.1603 -0.2686
 1861PEP     CB70726  14.947   5.692   0.535  0.2838 -0.4943  0.0252
 1861PEP     CB70727  14.948   5.921   0.952  0.0924 -0.1325  0.4307
 1861PEP     CB70728  15.075   5.976   1.312 -0.1458  0.0330  0.0433
 1861PEP     CB70729  15.167   5.745   1.684  0.1062  0.1757 -0.1885
 1861PEP     CB70730  15.075   5.474   2.038  0.1319  0.0267  0.1154
 1861PEP     CB70731  14.862   5.145   2.294  0.2700 -0.0138 -0.0697
 1861PEP     CB70732  14.567   4.995   2.642  0.0115 -0.0140 -0.1275
 1861PEP     CB70733  14.407   5.036   3.026 -0.0843 -0.2729  0.1212
 1861PEP     CB70734  14.406   5.108   3.432 -0.1353 -0.0727 -0.1243
 1861PEP     CB70735  14.186   5.253   3.766  0.2291  0.0215 -0.2146
 1861PEP     CB70736  13.830   5.431   3.841  0.1725 -0.2262  0.0228
 1861PEP     CB70737  13.502   5.653   3.996  0.0736  0.2366 -0.2060
 1861PEP     CB70738  13.235   5.970   4.063 -0.1997  0.1148  0.1967
 1861PEP     CB70739  13.019   6.385   4.223 -0.0881 -0.1424  0.1438
 1861PEP     CB70740  13.187   6.830   4.304 -0.0477 -0.1248 -0.3557
 1861PEP     CB70741  13.284   7.177   4.077  0.0836  0.1076  0.0046
 1861PEP     CB70742  13.302   7.400   3.722 -0.0176 -0.2749 -0.0837
 1861PEP     CB70743  13.166   7.707   3.517  0.1462  0.0176  0.0705
 1861PEP     CB70744  13.040   8.155   3.574 -0.1250  0.2272 -0.1406
 1861PEP     CB70745  13.333   8.534   3.696  0.2037 -0.1799 -0.0518
 1861PEP     CB70746  13.629   8.826   3.622 -0.2374 -0.2020 -0.1948
 1861PEP     CB70747  13.898   9.037   3.906  0.0154 -0.1149  0.0618
 1861PEP     CB70748  13.846   8.925   4.395 -0.0516  0.0863  0.0786
 1861PEP     CB70749  13.563   8.604   4.542 -0.0788 -0.3627 -0.0268
 1861PEP     CB70750  13.150   8.411   4.356 -0.2479  0.2146  0.3005
 1861PEP     CB70751  12.804   8.528   4.127 -0.1267  0.3515  0.0643
 1861PEP     CB70752  12.611   8.859   4.181  0.3701  0.2146 -0.1276
 1861PEP     CB70753  12.574   9.084   3.756  0.0569 -0.0895 -0.5041
 1861PEP     CB70754  12.421   8.951   3.298 -0.1059  0.0746  0.1088
 1861PEP     CB70755  12.086   8.745   3.086  0.0920  0.2483  0.1824
 1861PEP     CB70756  12.110   8.372   2.845 -0.4870  0.3659 -0.1382
 1861PEP     CB70757  12.425   8.059   2.751  0.0860 -0.0512  0.0977
 1861PEP     CB70758  12.725   7.843   2.584 -0.0291 -0.0634 -0.1443
 1861PEP     CB70759  13.167   7.837   2.468 -0.1421  0.1134  0.0627
 1861PEP     CB70760  13.413   8.134   2.232 -0.0708 -0.3692 -0.2866
 1862PEP     CB70761   7.763  20.579  13.906  0.0981 -0.3003 -0.1836
 1862PEP     CB70762   7.751  20.705  14.349 -0.2848 -0.0249  0.4117
 1862PEP     CB70763   7.790  20.870  14.692  0.0711  0.0167 -0.0853
 1862PEP     CB70764   7.773  20.729  15.081 -0.2474  0.0344  0.1071
 1862PEP     CB70765   7.564  20.601  15.501 -0.2053 -0.1563  0.4041
 1862PEP     CB70766   7.159  20.444  15.676  0.0753  0.4104 -0.0655
 1862PEP     CB70767   7.086  20.032  15.769 -0.1075 -0.3844  0.2370
 1862PEP     CB70768   7.204  19.675  15.539 -0.1501  0.7557  0.3917
 1862PEP     CB70769   7.388  19.620  15.116  0.0374 -0.1627 -0.1873
 1862PEP     CB70770   7.757  19.807  14.901  0.1533  0.0374  0.0847
 1862PEP     CB70771   8.067  20.051  14.754 -0.3619  0.2536  0.2535
 1862PEP     CB70772   8.259  20.459  14.865 -0.4354 -0.1168  0.0944
 1862PEP     CB70773   8.288  20.749  15.267 -0.3377  0.3627 -0.2476
 1862PEP     CB70774   7.983  20.599  15.646 -0.0374 -0.0606 -0.6685
 1862PEP     CB70775   8.041  20.350  16.049  0.1777  0.0222 -0.2423
 1862PEP     CB70776   8.155  20.388  16.473 -0.3140 -0.0469  0.4756
 1862PEP     CB70777   8.477  20.159  16.777  0.0845 -0.4455  0.3296
 1862PEP     CB70778   8.595  20.062  17.177 -0.2347  0.0715 -0.0697
 1862PEP     CB70779   8.931  19.998  17.489  0.0410 -0.1613 -0.0786
 1862PEP     CB70780   9.138  19.997  17.865  0.2821  0.1749 -0.0705
 1862PEP     CB70781   9.395  19.638  18.035  0.1801  0.0784 -0.3808
 1862PEP     CB70782   9.623  19.248  17.978  0.0591  0.3007 -0.1948
 1862PEP     CB70783   9.725  19.061  17.622  0.0878  0.4048 -0.0930
 1862PEP     CB70784   9.871  19.294  17.218  0.1327 -0.3767 -0.0944
 1862PEP     CB70785  10.268  19.473  17.063 -0.2390 -0.1128 -0.3272
 1862PEP     CB70786  10.366  19.961  17.020  0.4298  0.0064 -0.2241
 1862PEP     CB70787  10.093  20.327  16.718 -0.3482  0.1917  0.1631
 1862PEP     CB70788   9.908  20.635  16.483  0.3925 -0.0241  0.0445
 1862PEP     CB70789   9.722  20.996  16.350 -0.1098 -0.0097 -0.1710
 1862PEP     CB70790   9.462  21.175  16.104  0.1905  0.0514 -0.0449
 1862PEP     CB70791   9.237  21.396  15.822  0.0572 -0.1119 -0.1773
 1862PEP     CB70792   9.027  21.690  15.662  0.0079  0.1773  0.3587
 1862PEP     CB70793   8.708  22.014  15.780 -0.1878  0.1065 -0.0966
 1862PEP     CB70794   8.426  22.180  16.040 -0.4152  0.1848  0.0895
 1862PEP     CB70795   8.098  21.960  16.273  0.1510  0.0237 -0.0649
 1862PEP     CB70796   7.761  21.618  16.480 -0.1708  0.0327  0.3210
 1862PEP     CB70797   7.599  21.270  16.168 -0.0651  0.0862  0.2797
 1862PEP     CB70798   7.843  21.183  15.740  0.0632  0.1428 -0.3370
 1862PEP     CB70799   7.901  21.481  15.452 -0.2124  0.0348  0.0039
 1862PEP     CB70800   7.783  21.900  15.433 -0.3363 -0.1192 -0.2938
 1863PEP     CB70801  18.474   8.127   3.529 -0.2145 -0.1798  0.0644
 1863PEP     CB70802  18.841   8.276   3.441  0.0868  0.0731 -0.3055
 1863PEP     CB70803  19.174   8.130   3.609 -0.2094  0.0021  0.1111
 1863PEP     CB70804  19.542   7.913   3.694  0.0518  0.1196  0.2227
 1863PEP     CB70805  19.790   7.970   4.056 -0.5543  0.2380  0.0345
 1863PEP     CB70806  19.947   7.802   4.402 -0.2586 -0.2697 -0.3089
 1863PEP     CB70807  19.892   7.428   4.671  0.1357  0.0810  0.0642
 1863PEP     CB70808  19.867   6.954   4.423  0.3011 -0.0376  0.2223
 1863PEP     CB70809  19.665   6.633   4.246 -0.4063  0.1744  0.1932
 1863PEP     CB70810  19.532   6.118   4.294 -0.0708  0.2501  0.0434
 1863PEP     CB70811  19.531   5.648   4.250  0.1145 -0.2333  0.4596
 1863PEP     CB70812  19.372   5.293   4.415 -0.3967  0.0997 -0.1308
 1863PEP     CB70813  19.501   4.962   4.777 -0.0997  0.1054 -0.1220
 1863PEP     CB70814  19.535   4.775   5.276  0.1852  0.1273 -0.1725
 1863PEP     CB70815  19.406   4.633   5.733  0.3604 -0.0160  0.0310
 1863PEP     CB70816  19.348   4.455   6.117 -0.1388 -0.2966 -0.1946
 1863PEP     CB70817  19.339   4.418   6.536  0.1472 -0.1584 -0.0643
 1863PEP     CB70818  19.279   4.456   6.945 -0.0056 -0.0701  0.4761
 1863PEP     CB70819  19.494   4.583   7.280  0.0998 -0.1846 -0.0567
 1863PEP     CB70820  19.448   4.830   7.588 -0.4171 -0.1038 -0.0699
 1863PEP     CB70821  19.314   5.275   7.565  0.1332 -0.4458 -0.0770
 1863PEP     CB70822  19.297   5.595   7.218 -0.1661  0.0181  0.0774
 1863PEP     CB70823  19.339   5.332   6.856  0.0306  0.1734 -0.7015
 1863PEP     CB70824  19.536   4.821   6.829 -0.2972 -0.1093  0.0051
 1863PEP     CB70825  19.763   4.356   6.886  0.5811 -0.1843 -0.0903
 1863PEP     CB70826  20.051   4.046   6.972  0.2278  0.1978  0.0339
 1863PEP     CB70827  20.601   3.886   7.024  0.3098  0.1398  0.0238
 1863PEP     CB70828  21.039   3.741   7.141 -0.0909  0.2842  0.0044
 1863PEP     CB70829  21.372   4.008   7.315  0.0456  0.1410  0.0227
 1863PEP     CB70830  21.225   4.484   7.480  0.2384  0.0244 -0.0643
 1863PEP     CB70831  21.014   4.708   7.227 -0.2323 -0.1285  0.2104
 1863PEP     CB70832  20.671   4.923   7.035  0.1173 -0.1380  0.0761
 1863PEP     CB70833  20.287   5.117   7.133 -0.1519  0.3514  0.1027
 1863PEP     CB70834  20.023   5.385   7.444  0.1533 -0.3347 -0.3888
 1863PEP     CB70835  19.705   5.553   7.675  0.3051  0.3645  0.0729
 1863PEP     CB70836  19.295   5.863   7.817 -0.1162  0.1680 -0.1937
 1863PEP     CB70837  19.011   6.088   8.097 -0.3080 -0.1114  0.1026
 1863PEP     CB70838  18.905   6.456   8.369 -0.0923 -0.3862  0.3481
 1863PEP     CB70839  18.638   6.773   8.122 -0.3261 -0.1928 -0.1254
 1863PEP     CB70840  18.323   6.582   7.917  0.5286 -0.1033  0.1884
 1864PEP     CB70841  11.758  11.082   1.633  0.1201 -0.2503  0.1150
 1864PEP     CB70842  11.901  10.975   2.003 -0.1003  0.1677  0.0353
 1864PEP     CB70843  12.037  10.916   2.366 -0.0246 -0.3025 -0.2609
 1864PEP     CB70844  11.958  10.723   2.835  0.0423  0.0038  0.2417
 1864PEP     CB70845  12.210  10.506   3.178 -0.0759 -0.0603  0.1320
 1864PEP     CB70846  12.384  10.305   3.542  0.0106  0.2523 -0.3406
 1864PEP     CB70847  12.447   9.845   3.678  0.0865  0.2692 -0.2249
 1864PEP     CB70848  12.257   9.594   3.843 -0.0349  0.0111 -0.2746
 1864PEP     CB70849  12.311   9.337   4.166 -0.3931  0.2187 -0.3337
 1864PEP     CB70850  12.372   9.278   4.614 -0.2929 -0.5025 -0.1151
 1864PEP     CB70851  12.221   9.041   4.976 -0.1619  0.1143  0.2959
 1864PEP     CB70852  11.781   9.020   5.188 -0.0085 -0.0638  0.3899
 1864PEP     CB70853  11.363   9.197   5.080  0.5839  0.2154  0.4541
 1864PEP     CB70854  11.196   9.600   4.868 -0.0425 -0.0867  0.0916
 1864PEP     CB70855  10.854   9.812   4.557 -0.1952 -0.0181 -0.3130
 1864PEP     CB70856  10.416  10.006   4.490  0.2148  0.3775 -0.2057
 1864PEP     CB70857   9.903  10.090   4.416 -0.2730 -0.2769  0.6366
 1864PEP     CB70858   9.486   9.993   4.345 -0.2404 -0.0098  0.1707
 1864PEP     CB70859   9.040   9.893   4.399  0.0821 -0.2578  0.1710
 1864PEP     CB70860   8.714   9.783   4.713  0.0293  0.2745  0.2206
 1864PEP     CB70861   8.448   9.542   4.898  0.0582  0.0886  0.1939
 1864PEP     CB70862   8.515   9.131   4.785  0.2899 -0.0809 -0.4251
 1864PEP     CB70863   8.799   8.847   4.557  0.1322 -0.1946 -0.0290
 1864PEP     CB70864   8.988   8.710   4.160  0.0767 -0.1804 -0.0593
 1864PEP     CB70865   8.876   8.564   3.751 -0.4730  0.2418  0.1158
 1864PEP     CB70866   8.684   8.546   3.352 -0.0452 -0.0939  0.2070
 1864PEP     CB70867   8.378   8.576   3.071  0.4046  0.1296  0.1989
 1864PEP     CB70868   7.882   8.408   2.926 -0.0753  0.1937  0.4490
 1864PEP     CB70869   7.472   8.432   2.786  0.3360 -0.3311 -0.1078
 1864PEP     CB70870   7.033   8.278   2.706  0.4248 -0.1106 -0.4813
 1864PEP     CB70871   6.583   8.076   2.629 -0.1624 -0.1921  0.0927
 1864PEP     CB70872   6.057   8.093   2.707 -0.2571 -0.2147  0.4513
 1864PEP     CB70873   5.704   7.944   2.781  0.0413 -0.4012 -0.0496
 1864PEP     CB70874   5.541   7.687   3.122 -0.1577  0.2009 -0.1854
 1864PEP     CB70875   5.620   7.224   3.337  0.4353 -0.3726 -0.1966
 1864PEP     CB70876   5.554   6.802   3.431 -0.1715  0.0683 -0.0466
 1864PEP     CB70877   5.607   6.392   3.525 -0.2323 -0.4180  0.0551
 1864PEP     CB70878   5.776   6.032   3.234  0.1991 -0.2759 -0.1110
 1864PEP     CB70879   5.609   6.010   2.756  0.0627 -0.3365 -0.0578
 1864PEP     CB70880   5.287   6.273   2.611 -0.2079 -0.1267 -0.1728
 1865PEP     CB70881  20.336  21.430   0.062  0.1638  0.1994 -0.0141
 1865PEP     CB70882  20.407  21.255   0.457  0.0425 -0.4268  0.0784
 1865PEP     CB70883  20.403  21.148   0.898  0.1137 -0.2545  0.0902
 1865PEP     CB70884  20.843  21.124   1.092 -0.2271 -0.3609  0.2337
 1865PEP     CB70885  21.273  21.176   0.865 -0.0524  0.0601  0.0807
 1865PEP     CB70886  21.349  21.435   0.505  0.0199 -0.1196 -0.1263
 1865PEP     CB70887  21.071  21.413   0.186 -0.1804 -0.1375 -0.2464
 1865PEP     CB70888  20.732  21.145   0.075 -0.4552  0.3392  0.2386
 1865PEP     CB70889  20.890  20.727  -0.137 -0.1172 -0.1859  0.1057
 1865PEP     CB70890  21.166  20.737  -0.569  0.1709  0.0558  0.0796
 1865PEP     CB70891  21.186  21.091  -0.900 -0.0408  0.1446  0.4262
 1865PEP     CB70892  20.885  21.236  -1.170  0.2004 -0.0879  0.0530
 1865PEP     CB70893  20.438  21.084  -1.214  0.1604 -0.1462 -0.1343
 1865PEP     CB70894  20.075  20.802  -1.098  0.2020 -0.1142 -0.1676
 1865PEP     CB70895  19.587  20.839  -1.046 -0.1327  0.0283  0.0257
 1865PEP     CB70896  19.397  21.189  -0.972 -0.2049  0.0436 -0.0863
 1865PEP     CB70897  19.462  21.634  -1.126  0.5794 -0.2943 -0.3547
 1865PEP     CB70898  19.367  22.055  -1.258  0.2723 -0.2635 -0.4348
 1865PEP     CB70899  19.635  22.367  -1.480  0.0362 -0.1672  0.2707
 1865PEP     CB70900  19.777  22.695  -1.711 -0.2955  0.2787 -0.4517
 1865PEP     CB70901  19.825  23.141  -1.769  0.4052  0.2273  0.1045
 1865PEP     CB70902  19.695  23.481  -2.052 -0.1125  0.1059 -0.2658
 1865PEP     CB70903  19.371  23.461  -2.380  0.0920 -0.1994  0.0297
 1865PEP     CB70904  19.037  23.630  -2.525 -0.0921  0.1156  0.0985
 1865PEP     CB70905  18.894  23.712  -2.936  0.0681 -0.2950  0.2970
 1865PEP     CB70906  18.721  23.468  -3.259  0.1264  0.3073 -0.0958
 1865PEP     CB70907  18.796  23.292  -3.614 -0.2009  0.3288 -0.1017
 1865PEP     CB70908  18.937  23.339  -3.949 -0.1091 -0.1354 -0.4953
 1865PEP     CB70909  19.430  23.474  -4.079  0.2670  0.6502 -0.0756
 1865PEP     CB70910  19.868  23.636  -3.966 -0.1767 -0.2223  0.1332
 1865PEP     CB70911  20.129  23.658  -3.730 -0.1708 -0.1916  0.3166
 1865PEP     CB70912  20.272  23.825  -3.271  0.1382  0.3047  0.2952
 1865PEP     CB70913  20.507  24.016  -2.945 -0.0607 -0.1587  0.0288
 1865PEP     CB70914  20.862  23.882  -2.682  0.0134  0.0616  0.3185
 1865PEP     CB70915  21.073  23.428  -2.537 -0.0582  0.0521  0.1932
 1865PEP     CB70916  20.982  22.998  -2.276  0.1335  0.0874 -0.0703
 1865PEP     CB70917  21.173  22.857  -1.961 -0.1034 -0.1255 -0.3831
 1865PEP     CB70918  21.283  23.092  -1.535  0.1979 -0.0848 -0.0967
 1865PEP     CB70919  21.076  23.539  -1.367 -0.2212 -0.0104  0.0752
 1865PEP     CB70920  20.702  23.620  -1.675 -0.0943 -0.0200 -0.0805
 1866PEP     CB70921   9.013  14.395  18.660 -0.0620 -0.1957  0.1049
 1866PEP     CB70922   9.227  14.388  18.294 -0.0441 -0.2091 -0.1291
 1866PEP     CB70923   9.409  14.300  17.943 -0.3484  0.5445  0.2328
 1866PEP     CB70924   9.712  13.969  17.806  0.1281  0.0250 -0.0336
 1866PEP     CB70925   9.913  13.656  17.544  0.2019  0.3609  0.2435
 1866PEP     CB70926  10.020  13.629  17.060  0.1456 -0.2619  0.1362
 1866PEP     CB70927   9.924  13.972  16.706  0.1271 -0.0081 -0.0736
 1866PEP     CB70928   9.893  14.005  16.323 -0.2313 -0.8301  0.0137
 1866PEP     CB70929   9.777  14.169  15.905 -0.1266 -0.0959  0.4596
 1866PEP     CB70930   9.926  14.018  15.502  0.0939  0.2456  0.0761
 1866PEP     CB70931  10.150  13.711  15.410 -0.0871 -0.1868  0.1594
 1866PEP     CB70932  10.541  13.661  15.522 -0.3503 -0.2012 -0.0466
 1866PEP     CB70933  10.809  13.798  15.821  0.2442 -0.4892  0.5750
 1866PEP     CB70934  10.797  13.920  16.243  0.0439  0.0845  0.0297
 1866PEP     CB70935  10.444  14.143  16.451  0.1874  0.0492  0.0394
 1866PEP     CB70936  10.155  14.493  16.451  0.1176 -0.1333 -0.1850
 1866PEP     CB70937   9.945  14.834  16.535  0.4915  0.0253  0.0042
 1866PEP     CB70938   9.638  15.039  16.510 -0.0336 -0.2239  0.0425
 1866PEP     CB70939   9.255  15.231  16.706 -0.1277  0.1790 -0.4057
 1866PEP     CB70940   8.924  15.547  16.911 -0.0079 -0.2184 -0.1583
 1866PEP     CB70941   8.607  15.822  17.028 -0.1139  0.0518 -0.4053
 1866PEP     CB70942   8.397  16.234  17.268 -0.2640 -0.2789 -0.1824
 1866PEP     CB70943   8.207  16.263  17.703  0.0266  0.2603 -0.1162
 1866PEP     CB70944   8.142  16.642  18.019 -0.4888  0.2076 -0.1520
 1866PEP     CB70945   8.072  17.121  18.190 -0.1874  0.2992 -0.3026
 1866PEP     CB70946   8.124  17.522  18.317  0.1491 -0.3208 -0.1357
 1866PEP     CB70947   8.351  17.848  18.544 -0.1244  0.5293  0.2810
 1866PEP     CB70948   8.460  18.143  18.761 -0.3848 -0.1235  0.0303
 1866PEP     CB70949   8.556  18.587  18.898  0.0456  0.0981  0.1489
 1866PEP     CB70950   8.484  18.950  18.875  0.0655  0.1986  0.0047
 1866PEP     CB70951   8.374  19.219  18.546 -0.1427 -0.2994 -0.1378
 1866PEP     CB70952   8.378  19.594  18.277  0.3130 -0.1420  0.2619
 1866PEP     CB70953   8.226  19.881  18.028 -0.1313  0.0154  0.0672
 1866PEP     CB70954   8.006  20.231  17.830  0.3107  0.5605  0.2397
 1866PEP     CB70955   7.694  20.130  17.529  0.2803  0.1357 -0.2860
 1866PEP     CB70956   7.725  19.867  17.084  0.1582 -0.2273  0.4784
 1866PEP     CB70957   7.907  19.710  16.697  0.1975  0.0929  0.1267
 1866PEP     CB70958   7.971  19.490  16.442  0.2851 -0.0198  0.1469
 1866PEP     CB70959   7.717  19.381  16.055 -0.1071  0.1464 -0.2004
 1866PEP     CB70960   7.361  19.238  15.913  0.2793 -0.0916  0.2820
 1867PEP     CB70961  18.656   9.139  15.980 -0.0351  0.1025 -0.1258
 1867PEP     CB70962  19.007   8.949  16.203 -0.5141 -0.1257 -0.2585
 1867PEP     CB70963  19.176   8.751  16.602  0.0469  0.2879  0.0583
 1867PEP     CB70964  19.225   8.299  16.705 -0.1931  0.1057 -0.5270
 1867PEP     CB70965  19.217   7.974  17.022  0.3255 -0.4293  0.2717
 1867PEP     CB70966  18.868   7.765  17.173 -0.2757 -0.2751 -0.3209
 1867PEP     CB70967  18.464   7.919  17.266 -0.2994 -0.0813  0.1013
 1867PEP     CB70968  18.322   8.379  17.362 -0.2606 -0.1737  0.0766
 1867PEP     CB70969  18.232   8.847  17.347  0.0334 -0.0259  0.1359
 1867PEP     CB70970  17.898   9.077  17.213  0.1806 -0.1560 -0.1262
 1867PEP     CB70971  17.786   8.948  16.804 -0.1186  0.4485  0.2872
 1867PEP     CB70972  17.727   8.922  16.372 -0.0407 -0.0483  0.1108
 1867PEP     CB70973  17.773   8.766  15.960  0.1273 -0.3447 -0.2019
 1867PEP     CB70974  17.676   8.775  15.578  0.0051  0.1199 -0.2046
 1867PEP     CB70975  17.765   8.500  15.193 -0.2119  0.0098  0.0390
 1867PEP     CB70976  17.843   8.061  15.221 -0.5027 -0.0968 -0.0317
 1867PEP     CB70977  18.191   7.740  15.252 -0.0078 -0.1652  0.1461
 1867PEP     CB70978  18.441   7.410  15.411 -0.1289  0.1919  0.1098
 1867PEP     CB70979  18.851   7.409  15.678  0.3540 -0.4122 -0.2299
 1867PEP     CB70980  18.920   7.601  16.085  0.5391 -0.0497  0.3086
 1867PEP     CB70981  18.620   7.841  16.228  0.0745 -0.0371 -0.6394
 1867PEP     CB70982  18.086   7.739  16.191 -0.0329  0.1315  0.2745
 1867PEP     CB70983  17.895   7.348  16.136  0.0533 -0.0343  0.2223
 1867PEP     CB70984  17.981   6.926  16.227 -0.0079  0.1153  0.1153
 1867PEP     CB70985  18.252   6.802  16.494 -0.4611  0.2220  0.1591
 1867PEP     CB70986  18.592   6.956  16.294  0.3519  0.0235  0.1953
 1867PEP     CB70987  18.459   7.258  16.004  0.0969  0.1499  0.2755
 1867PEP     CB70988  18.417   7.674  15.823  0.1838 -0.0352  0.1583
 1867PEP     CB70989  18.419   8.086  15.657  0.0022  0.0103  0.3480
 1867PEP     CB70990  18.384   8.253  15.253 -0.3418 -0.1123 -0.1022
 1867PEP     CB70991  18.186   8.362  14.914 -0.1260 -0.0762 -0.1908
 1867PEP     CB70992  18.073   8.208  14.518  0.1144  0.0985  0.2668
 1867PEP     CB70993  17.719   8.173  14.168  0.1147 -0.1615  0.1915
 1867PEP     CB70994  17.628   8.567  13.914 -0.3398 -0.0211  0.1113
 1867PEP     CB70995  17.987   8.844  13.818 -0.0988  0.0861  0.2409
 1867PEP     CB70996  18.475   8.808  13.587 -0.1371 -0.4950 -0.1660
 1867PEP     CB70997  18.964   8.803  13.610  0.0157 -0.0760 -0.2077
 1867PEP     CB70998  19.359   8.617  13.590 -0.4614 -0.0346  0.2929
 1867PEP     CB70999  19.642   8.242  13.479 -0.2510  0.4333 -0.1373
 1867PEP     CB71000  19.823   7.823  13.722 -0.5688  0.0210  0.0554
 1868PEP     CB71001   3.804   7.030   9.332  0.2405  0.1720  0.2334
 1868PEP     CB71002   4.105   7.278   9.619 -0.3847 -0.1031  0.2196
 1868PEP     CB71003   4.359   7.540   9.765 -0.0021  0.4098  0.0144
 1868PEP     CB71004   4.643   7.965   9.688 -0.3900 -0.1533 -0.0946
 1868PEP     CB71005   5.084   7.941   9.622 -0.2056 -0.0953  0.1451
 1868PEP     CB71006   5.427   7.662   9.847 -0.2522 -0.0162 -0.2807
 1868PEP     CB71007   5.344   7.417  10.129  0.1432 -0.0900  0.1668
 1868PEP     CB71008   4.942   7.391  10.411 -0.2093 -0.1086 -0.0673
 1868PEP     CB71009   4.765   7.737  10.610 -0.0132  0.1274 -0.0959
 1868PEP     CB71010   4.690   8.168  10.605  0.2639  0.0045 -0.2929
 1868PEP     CB71011   4.294   8.476  10.848  0.3799  0.1810 -0.1900
 1868PEP     CB71012   4.098   8.397  11.265 -0.2486  0.0849  0.2834
 1868PEP     CB71013   4.199   8.025  11.461  0.2577 -0.2729 -0.0483
 1868PEP     CB71014   4.319   7.589  11.371 -0.0852  0.1294 -0.2297
 1868PEP     CB71015   4.042   7.296  11.320 -0.1186 -0.3700  0.2105
 1868PEP     CB71016   3.625   7.395  11.098 -0.1442  0.0722 -0.0138
 1868PEP     CB71017   3.420   7.844  11.037 -0.0019 -0.4593  0.0531
 1868PEP     CB71018   3.244   8.143  10.728 -0.2103  0.0543 -0.3841
 1868PEP     CB71019   3.178   8.344  10.330 -0.1062 -0.1309  0.0593
 1868PEP     CB71020   2.913   8.723  10.134  0.0266 -0.0771  0.2393
 1868PEP     CB71021   3.007   9.180   9.964 -0.0723  0.3508  0.0798
 1868PEP     CB71022   3.241   9.447   9.775  0.1157 -0.2133 -0.1811
 1868PEP     CB71023   3.360   9.841   9.781  0.1320  0.0931  0.0082
 1868PEP     CB71024   3.233  10.258   9.678 -0.1785 -0.0374 -0.0732
 1868PEP     CB71025   3.176  10.545   9.393 -0.6268 -0.0213 -0.1014
 1868PEP     CB71026   3.146  10.941   9.227  0.1058 -0.1409 -0.1436
 1868PEP     CB71027   2.820  11.043   8.926 -0.4364 -0.1397  0.1245
 1868PEP     CB71028   2.652  10.944   8.563  0.1474  0.4401 -0.1414
 1868PEP     CB71029   2.647  10.948   8.226 -0.0541 -0.2705  0.2959
 1868PEP     CB71030   2.814  11.147   7.926 -0.0939 -0.0522 -0.0800
 1868PEP     CB71031   3.223  11.376   7.931  0.3856 -0.1499 -0.0781
 1868PEP     CB71032   3.306  11.627   8.234 -0.0593 -0.1417  0.1907
 1868PEP     CB71033   2.945  11.947   8.398 -0.7568 -0.0509  0.2122
 1868PEP     CB71034   2.537  11.912   8.333 -0.2689 -0.0761 -0.2072
 1868PEP     CB71035   2.371  11.524   8.058  0.0676  0.2837  0.1110
 1868PEP     CB71036   2.368  11.214   7.727 -0.0393  0.0046 -0.1758
 1868PEP     CB71037   2.281  10.815   7.721  0.0521  0.1121  0.1260
 1868PEP     CB71038   2.413  10.521   8.091  0.0247  0.2641  0.0500
 1868PEP     CB71039   2.426  10.237   8.358  0.5709 -0.1379  0.2925
 1868PEP     CB71040   2.431   9.903   8.602  0.4044  0.1325 -0.0061
 1869PEP     CB71041   7.351   2.410   6.599  0.1492  0.2617  0.1177
 1869PEP     CB71042   7.514   2.514   6.236 -0.0272  0.1843  0.1143
 1869PEP     CB71043   7.459   2.209   5.835 -0.1951  0.1303 -0.1289
 1869PEP     CB71044   7.354   1.735   6.010  0.4823  0.2738 -0.0847
 1869PEP     CB71045   7.261   1.674   6.435 -0.0266 -0.5282  0.0610
 1869PEP     CB71046   7.162   1.889   6.826 -0.2478  0.0299 -0.1360
 1869PEP     CB71047   6.832   2.209   6.976  0.0471  0.1316  0.5958
 1869PEP     CB71048   6.429   2.144   6.892  0.0559  0.2214 -0.1879
 1869PEP     CB71049   6.271   1.796   6.594  0.3417  0.2959  0.3730
 1869PEP     CB71050   6.482   1.362   6.511  0.4174 -0.2282 -0.1718
 1869PEP     CB71051   6.664   0.935   6.768  0.3232  0.1111 -0.0480
 1869PEP     CB71052   6.410   0.690   7.093 -0.1343  0.0546 -0.0687
 1869PEP     CB71053   6.083   0.332   7.107 -0.0345  0.3331 -0.1422
 1869PEP     CB71054   6.098   0.027   6.907  0.3385 -0.1481  0.1676
 1869PEP     CB71055   6.393   0.064   6.617  0.3433 -0.4349 -0.1421
 1869PEP     CB71056   6.520   0.533   6.528  0.1500  0.4138 -0.0370
 1869PEP     CB71057   6.248   0.834   6.391 -0.3795 -0.3047  0.0798
 1869PEP     CB71058   6.014   0.676   6.058  0.2873  0.0626 -0.0243
 1869PEP     CB71059   6.116   0.546   5.637 -0.3328  0.5977 -0.1239
 1869PEP     CB71060   6.539   0.398   5.238  0.2539  0.0207  0.2185
 1869PEP     CB71061   6.825   0.045   5.145  0.3161 -0.4384  0.1209
 1869PEP     CB71062   7.155   0.243   4.949  0.1048  0.1088 -0.1641
 1869PEP     CB71063   7.097   0.499   4.609  0.3546 -0.3051 -0.4667
 1869PEP     CB71064   6.626   0.395   4.497 -0.4774 -0.2812 -0.1484
 1869PEP     CB71065   6.413   0.127   4.724 -0.2335  0.0670 -0.1516
 1869PEP     CB71066   6.523  -0.312   4.752  0.2057 -0.1897 -0.0149
 1869PEP     CB71067   6.952  -0.442   4.646 -0.0646  0.1617  0.3183
 1869PEP     CB71068   7.302  -0.109   4.436 -0.1496 -0.2503 -0.0414
 1869PEP     CB71069   7.508   0.318   4.482 -0.3416  0.2116  0.0909
 1869PEP     CB71070   7.922   0.504   4.437  0.4227 -0.1814  0.0537
 1869PEP     CB71071   8.178   0.855   4.182 -0.1244 -0.2466 -0.0471
 1869PEP     CB71072   8.286   1.094   3.891  0.0897  0.1396  0.1056
 1869PEP     CB71073   8.454   1.401   3.610 -0.4364 -0.0748 -0.2268
 1869PEP     CB71074   8.688   1.876   3.590  0.4433  0.2940  0.2202
 1869PEP     CB71075   8.821   2.324   3.593 -0.0121 -0.1512 -0.1294
 1869PEP     CB71076   8.667   2.747   3.399 -0.1581 -0.1646  0.1273
 1869PEP     CB71077   8.427   2.829   3.008  0.1415  0.3664  0.1632
 1869PEP     CB71078   8.341   2.506   2.724  0.2957  0.1120 -0.0884
 1869PEP     CB71079   8.270   2.113   2.813  0.4101 -0.0497  0.2506
 1869PEP     CB71080   8.468   1.795   2.778  0.0331 -0.1571  0.0426
 1870PEP     CB71081   9.255  18.494   5.623  0.5063 -0.0278 -0.0824
 1870PEP     CB71082   9.516  18.611   6.044  0.0765 -0.0083  0.1135
 1870PEP     CB71083   9.919  18.378   6.255 -0.0732 -0.2282 -0.2447
 1870PEP     CB71084  10.046  18.023   6.486 -0.1704 -0.0671  0.2268
 1870PEP     CB71085  10.116  18.085   6.925 -0.1755  0.4694 -0.0852
 1870PEP     CB71086   9.961  18.419   7.282  0.0697  0.0546 -0.1036
 1870PEP     CB71087   9.994  18.830   7.521 -0.0915 -0.1683  0.1011
 1870PEP     CB71088   9.728  19.298   7.469 -0.5190  0.1601 -0.1085
 1870PEP     CB71089   9.397  19.598   7.305  0.2499  0.3107 -0.0218
 1870PEP     CB71090   8.890  19.524   7.240 -0.0681  0.3215  0.1385
 1870PEP     CB71091   8.678  19.251   7.419  0.1676  0.0720 -0.0217
 1870PEP     CB71092   8.927  18.995   7.677 -0.4747 -0.1562  0.1171
 1870PEP     CB71093   9.037  19.161   8.043  0.3491  0.2673 -0.2510
 1870PEP     CB71094   9.010  19.617   8.187 -0.1247  0.0901 -0.0467
 1870PEP     CB71095   8.670  19.825   8.138 -0.0944  0.1705  0.0829
 1870PEP     CB71096   8.240  19.728   8.108 -0.0967  0.1614 -0.3144
 1870PEP     CB71097   7.890  19.764   8.027 -0.1119  0.0546 -0.0117
 1870PEP     CB71098   7.461  19.903   8.102  0.1850 -0.2658  0.0822
 1870PEP     CB71099   7.497  20.301   8.326  0.1150  0.1208  0.0440
 1870PEP     CB71100   7.746  20.432   8.643 -0.0664 -0.0050 -0.2335
 1870PEP     CB71101   8.172  20.401   8.845  0.2059 -0.1478  0.1206
 1870PEP     CB71102   8.484  20.526   9.112  0.0603 -0.3931 -0.2330
 1870PEP     CB71103   8.898  20.663   9.110 -0.0839 -0.0416 -0.2306
 1870PEP     CB71104   9.359  20.764   9.074 -0.2854 -0.2568  0.0350
 1870PEP     CB71105   9.719  20.747   9.220 -0.1196  0.1026 -0.2284
 1870PEP     CB71106  10.148  20.868   9.227 -0.0627  0.5284 -0.0840
 1870PEP     CB71107  10.559  20.941   9.008 -0.1541 -0.3806 -0.3364
 1870PEP     CB71108  10.877  21.293   9.110  0.0915 -0.1636  0.3027
 1870PEP     CB71109  10.771  21.606   9.475  0.2989 -0.6447 -0.0029
 1870PEP     CB71110  10.848  21.599   9.883  0.1197 -0.3674  0.0864
 1870PEP     CB71111  10.890  21.196  10.138 -0.5341  0.0825  0.0490
 1870PEP     CB71112  10.713  20.836  10.539 -0.2711  0.0752  0.1473
 1870PEP     CB71113  10.481  20.477  10.740 -0.4014 -0.1733 -0.3543
 1870PEP     CB71114  10.057  20.377  10.860  0.2959  0.0080  0.1585
 1870PEP     CB71115   9.600  20.420  10.665  0.0815  0.1944  0.0505
 1870PEP     CB71116   9.345  20.467  10.343  0.2401 -0.1667 -0.1591
 1870PEP     CB71117   9.269  20.636   9.884  0.2589  0.0233 -0.3888
 1870PEP     CB71118   9.430  20.458   9.476  0.3340  0.1194 -0.1910
 1870PEP     CB71119   9.820  20.217   9.360 -0.2847 -0.0394  0.3494
 1870PEP     CB71120  10.174  20.079   9.858 -0.1319 -0.3676 -0.3050
 1871PEP     CB71121   6.920   3.273   7.470 -0.0895  0.3718 -0.4645
 1871PEP     CB71122   7.340   3.007   7.377  0.0176 -0.2896  0.1760
 1871PEP     CB71123   7.706   2.752   7.330  0.3569  0.0376  0.0336
 1871PEP     CB71124   8.027   2.932   7.058 -0.3068 -0.1040 -0.2829
 1871PEP     CB71125   8.244   3.298   7.075  0.1251  0.1123 -0.1870
 1871PEP     CB71126   8.122   3.772   6.904  0.1901  0.1821 -0.1549
 1871PEP     CB71127   8.173   3.874   6.456  0.1819 -0.0247  0.1905
 1871PEP     CB71128   8.196   3.540   6.164  0.0690  0.0108  0.2130
 1871PEP     CB71129   7.791   3.312   6.092 -0.2847 -0.0358 -0.1732
 1871PEP     CB71130   7.516   3.425   6.366 -0.2202  0.3752  0.0080
 1871PEP     CB71131   7.626   3.788   6.599  0.1718 -0.0660  0.2062
 1871PEP     CB71132   7.740   4.178   6.363  0.0291  0.0403 -0.2442
 1871PEP     CB71133   7.931   4.564   6.392  0.2289 -0.2873 -0.3219
 1871PEP     CB71134   8.194   4.868   6.524 -0.2771 -0.1888 -0.3661
 1871PEP     CB71135   8.534   4.930   6.482  0.3650  0.2835  0.2165
 1871PEP     CB71136   8.857   4.623   6.484 -0.1995  0.0936 -0.0165
 1871PEP     CB71137   8.868   4.203   6.342 -0.0530  0.4622 -0.1192
 1871PEP     CB71138   8.671   3.840   6.415 -0.0657  0.0743  0.0645
 1871PEP     CB71139   8.557   3.462   6.687 -0.1431 -0.0641  0.2282
 1871PEP     CB71140   8.423   3.101   6.679  0.0793  0.3154  0.1473
 1871PEP     CB71141   8.532   2.605   6.668 -0.0800  0.1906  0.4226
 1871PEP     CB71142   8.603   2.106   6.530  0.0438  0.0929  0.1616
 1871PEP     CB71143   8.923   1.727   6.504  0.1559 -0.1780 -0.0340
 1871PEP     CB71144   9.120   1.424   6.739 -0.0309  0.3464  0.0026
 1871PEP     CB71145   9.423   1.128   6.769 -0.4234 -0.0392 -0.0961
 1871PEP     CB71146   9.668   0.910   6.348 -0.1096 -0.1621 -0.0277
 1871PEP     CB71147   9.606   0.671   5.986 -0.2316  0.1413 -0.0736
 1871PEP     CB71148   9.487   0.245   5.900  0.0760  0.1168 -0.0010
 1871PEP     CB71149   9.719  -0.033   5.961 -0.0783  0.1751  0.1664
 1871PEP     CB71150  10.136   0.046   6.185  0.0045 -0.2696  0.5127
 1871PEP     CB71151  10.479   0.322   6.220  0.1947 -0.0199 -0.1893
 1871PEP     CB71152  10.721   0.698   6.021  0.0388 -0.3468 -0.1936
 1871PEP     CB71153  10.546   1.076   5.888 -0.1830 -0.3112  0.2785
 1871PEP     CB71154  10.718   1.442   5.771 -0.2374  0.1328  0.1975
 1871PEP     CB71155  11.145   1.477   5.808 -0.0206  0.3336 -0.2904
 1871PEP     CB71156  11.352   1.211   6.149  0.2421  0.5363  0.1669
 1871PEP     CB71157  11.175   0.804   6.347 -0.6173 -0.2511  0.0415
 1871PEP     CB71158  10.865   0.545   6.475 -0.0991 -0.0001  0.3167
 1871PEP     CB71159  10.421   0.573   6.725 -0.2632  0.1374  0.4308
 1871PEP     CB71160  10.033   0.623   6.641  0.0290  0.0794 -0.0072
 1872PEP     CB71161   6.574  19.872  13.440  0.2295  0.1289  0.3991
 1872PEP     CB71162   6.349  20.197  13.261  0.1401 -0.0402  0.0914
 1872PEP     CB71163   6.101  20.502  13.370 -0.2116  0.1368  0.0377
 1872PEP     CB71164   5.687  20.633  13.423 -0.0467 -0.4263  0.0411
 1872PEP     CB71165   5.520  20.969  13.093 -0.1036  0.2813 -0.0556
 1872PEP     CB71166   5.935  21.061  12.860 -0.2317 -0.0796  0.0938
 1872PEP     CB71167   6.334  20.992  12.985 -0.1648 -0.0449  0.1183
 1872PEP     CB71168   6.676  21.008  13.196  0.3941 -0.0098 -0.2438
 1872PEP     CB71169   7.009  20.921  13.455 -0.0245  0.2340 -0.0963
 1872PEP     CB71170   7.199  20.573  13.409 -0.0564 -0.0582 -0.3281
 1872PEP     CB71171   7.335  20.265  13.069  0.2291 -0.0984 -0.1158
 1872PEP     CB71172   7.210  20.148  12.675 -0.0174 -0.2815  0.2944
 1872PEP     CB71173   6.837  20.221  12.275  0.1852 -0.1734 -0.0150
 1872PEP     CB71174   6.498  20.170  11.931  0.1952 -0.2160  0.5618
 1872PEP     CB71175   6.293  19.817  11.742  0.3627  0.0950 -0.3638
 1872PEP     CB71176   6.089  19.344  11.846 -0.1366  0.0146 -0.1970
 1872PEP     CB71177   5.857  19.075  11.890  0.2969 -0.0380 -0.1561
 1872PEP     CB71178   5.600  18.751  11.842 -0.0502  0.1146  0.0750
 1872PEP     CB71179   5.495  18.368  11.657 -0.3548  0.3197  0.1251
 1872PEP     CB71180   5.243  18.104  11.570  0.2124  0.3180  0.2180
 1872PEP     CB71181   5.230  17.723  11.424 -0.2056  0.1436 -0.4362
 1872PEP     CB71182   5.396  17.274  11.340  0.3225  0.0574  0.1857
 1872PEP     CB71183   5.715  16.907  11.398 -0.0006 -0.3314  0.3238
 1872PEP     CB71184   6.041  16.693  11.566  0.3931 -0.1654 -0.0167
 1872PEP     CB71185   6.544  16.560  11.603  0.1242  0.0641  0.1622
 1872PEP     CB71186   6.957  16.702  11.473 -0.0707 -0.0676  0.0353
 1872PEP     CB71187   7.057  17.147  11.396 -0.1871  0.0754  0.2049
 1872PEP     CB71188   6.931  17.556  11.593  0.0647 -0.1856  0.4163
 1872PEP     CB71189   6.761  17.934  11.815 -0.0909 -0.2080 -0.0389
 1872PEP     CB71190   6.756  18.331  11.693  0.1273  0.1132  0.0488
 1872PEP     CB71191   6.765  18.746  11.921 -0.0892  0.2071  0.2590
 1872PEP     CB71192   7.028  18.843  12.207 -0.2318 -0.3848  0.1072
 1872PEP     CB71193   7.079  18.752  12.618  0.4487  0.0442 -0.1852
 1872PEP     CB71194   6.931  18.430  12.820  0.1761  0.3177 -0.0474
 1872PEP     CB71195   6.788  18.074  12.606 -0.1910 -0.1109  0.0285
 1872PEP     CB71196   6.538  18.080  12.227  0.0799 -0.4482 -0.1015
 1872PEP     CB71197   6.362  18.410  12.038  0.1946 -0.2621 -0.4139
 1872PEP     CB71198   6.341  18.945  12.006  0.0317  0.0651  0.0511
 1872PEP     CB71199   6.676  19.249  12.228 -0.3681 -0.0383 -0.1178
 1872PEP     CB71200   6.997  19.188  12.507  0.0150 -0.2249 -0.3342
 1873PEP     CB71201   1.140  18.362   0.601 -0.5472  0.1784 -0.2125
 1873PEP     CB71202   1.394  18.072   0.355  0.1837  0.4575 -0.0029
 1873PEP     CB71203   1.474  17.922  -0.099  0.1317 -0.2026 -0.0658
 1873PEP     CB71204   1.298  18.074  -0.495  0.1568 -0.1635  0.1487
 1873PEP     CB71205   1.147  18.042  -0.869  0.0926 -0.0623 -0.2598
 1873PEP     CB71206   0.915  18.193  -1.147  0.0599  0.1864 -0.1937
 1873PEP     CB71207   0.595  18.263  -1.499  0.1059  0.0064 -0.1465
 1873PEP     CB71208   0.355  17.985  -1.704  0.1063 -0.3420 -0.6384
 1873PEP     CB71209  -0.046  17.791  -1.954 -0.2245 -0.0506  0.3126
 1873PEP     CB71210  -0.487  17.854  -2.052 -0.1479  0.3453 -0.0046
 1873PEP     CB71211  -0.687  17.870  -2.469 -0.0428  0.0343 -0.0655
 1873PEP     CB71212  -0.601  18.246  -2.738 -0.6255  0.0511  0.0244
 1873PEP     CB71213  -0.424  18.273  -3.138  0.0525 -0.0447 -0.2406
 1873PEP     CB71214  -0.355  17.880  -3.374 -0.0653 -0.0531 -0.3693
 1873PEP     CB71215  -0.602  17.498  -3.385 -0.0308 -0.0604 -0.1156
 1873PEP     CB71216  -0.837  17.203  -3.037 -0.1898  0.0571 -0.0832
 1873PEP     CB71217  -1.148  17.084  -2.739  0.2022 -0.1322  0.1402
 1873PEP     CB71218  -1.475  17.100  -2.494 -0.2717 -0.2806  0.6255
 1873PEP     CB71219  -1.969  17.144  -2.502 -0.2921  0.0734  0.0663
 1873PEP     CB71220  -2.285  17.416  -2.610  0.2425 -0.2559 -0.2136
 1873PEP     CB71221  -2.618  17.402  -2.871 -0.2201 -0.0648  0.4086
 1873PEP     CB71222  -2.726  17.489  -3.266 -0.2328 -0.2300 -0.3512
 1873PEP     CB71223  -2.618  17.486  -3.736  0.2179 -0.0656  0.1088
 1873PEP     CB71224  -2.811  17.572  -4.192  0.1276 -0.1337  0.0591
 1873PEP     CB71225  -3.224  17.597  -4.288  0.5423  0.0014 -0.0108
 1873PEP     CB71226  -3.557  17.577  -4.003  0.0239  0.1415  0.2397
 1873PEP     CB71227  -3.492  17.326  -3.610 -0.0164 -0.4364 -0.0736
 1873PEP     CB71228  -3.390  16.955  -3.470  0.0264 -0.2559 -0.0339
 1873PEP     CB71229  -2.929  16.890  -3.300  0.0873 -0.0833 -0.0831
 1873PEP     CB71230  -2.478  16.915  -3.504  0.1068  0.0983  0.1258
 1873PEP     CB71231  -2.527  17.009  -3.969 -0.0617  0.1304  0.1588
 1873PEP     CB71232  -2.868  17.063  -4.223  0.0400 -0.0083 -0.0206
 1873PEP     CB71233  -3.329  17.089  -4.097  0.3471  0.2261  0.2767
 1873PEP     CB71234  -3.797  17.161  -3.984  0.1409  0.3864 -0.0431
 1873PEP     CB71235  -4.256  17.033  -4.050  0.2920  0.1697  0.3118
 1873PEP     CB71236  -4.615  16.953  -4.272  0.1678  0.1372  0.2568
 1873PEP     CB71237  -5.037  16.995  -4.329 -0.0608 -0.0691  0.2012
 1873PEP     CB71238  -5.443  16.897  -4.471 -0.1941 -0.2736 -0.1935
 1873PEP     CB71239  -5.412  16.558  -4.750 -0.0240  0.1904 -0.2185
 1873PEP     CB71240  -5.254  16.613  -5.162 -0.1314 -0.0274 -0.2853
 1874PEP     CB71241   8.007   3.842  12.349  0.4233  0.1756 -0.3169
 1874PEP     CB71242   8.228   3.739  12.706 -0.1172 -0.0396  0.1399
 1874PEP     CB71243   8.613   3.628  13.065  0.1856  0.2120 -0.0928
 1874PEP     CB71244   8.995   3.479  13.094  0.0700 -0.1078 -0.5183
 1874PEP     CB71245   9.263   3.172  13.261 -0.0231 -0.4338 -0.0366
 1874PEP     CB71246   9.545   2.836  13.334 -0.1788  0.0498  0.0271
 1874PEP     CB71247   9.930   2.601  13.396  0.0767 -0.0698  0.0058
 1874PEP     CB71248  10.166   2.386  13.643 -0.0672  0.0153  0.2878
 1874PEP     CB71249  10.211   2.165  14.004  0.4594 -0.0266  0.3195
 1874PEP     CB71250  10.348   2.201  14.376  0.1485  0.2654  0.3364
 1874PEP     CB71251  10.755   2.263  14.448  0.0032  0.2305 -0.1564
 1874PEP     CB71252  11.118   2.278  14.177 -0.1305 -0.0105 -0.0192
 1874PEP     CB71253  11.457   2.037  14.030  0.1089 -0.0566 -0.0895
 1874PEP     CB71254  11.697   1.618  13.968  0.0185 -0.1970 -0.4867
 1874PEP     CB71255  11.782   1.298  13.690  0.0362  0.3954  0.0019
 1874PEP     CB71256  11.828   1.212  13.227  0.3343  0.1016 -0.0705
 1874PEP     CB71257  11.981   1.184  12.835 -0.0055  0.2120  0.0497
 1874PEP     CB71258  12.319   1.315  12.603 -0.1370 -0.4339 -0.1690
 1874PEP     CB71259  12.703   1.407  12.634  0.3924 -0.2823  0.0413
 1874PEP     CB71260  13.103   1.123  12.797  0.0656  0.0031  0.4983
 1874PEP     CB71261  13.345   0.768  12.838  0.1542  0.1461  0.0579
 1874PEP     CB71262  13.723   0.587  12.545 -0.0723 -0.0585 -0.1499
 1874PEP     CB71263  13.676   0.536  12.080  0.0899 -0.1057 -0.0310
 1874PEP     CB71264  13.386   0.696  11.860  0.1363 -0.0856 -0.3676
 1874PEP     CB71265  13.127   1.062  11.891  0.1493  0.2635  0.0702
 1874PEP     CB71266  13.256   1.463  11.764  0.5433  0.0018 -0.0233
 1874PEP     CB71267  13.647   1.482  11.685  0.0229  0.0228 -0.4431
 1874PEP     CB71268  13.947   1.262  11.603 -0.2500 -0.2770 -0.1035
 1874PEP     CB71269  14.243   0.989  11.861 -0.1368  0.0876 -0.1429
 1874PEP     CB71270  14.517   0.653  11.950 -0.3094  0.0651 -0.1724
 1874PEP     CB71271  14.823   0.306  11.991 -0.5928  0.2469 -0.1673
 1874PEP     CB71272  15.085  -0.025  12.221  0.0173  0.0895 -0.3423
 1874PEP     CB71273  15.115  -0.279  12.623  0.3063  0.3640  0.0979
 1874PEP     CB71274  15.053  -0.358  13.025 -0.3689  0.3146 -0.1918
 1874PEP     CB71275  15.306  -0.223  13.356  0.3326 -0.1524 -0.1246
 1874PEP     CB71276  15.619  -0.043  13.579  0.0757  0.0843  0.1112
 1874PEP     CB71277  15.835  -0.102  13.991 -0.0408 -0.1226 -0.3249
 1874PEP     CB71278  15.744  -0.037  14.385  0.0066 -0.0773 -0.1952
 1874PEP     CB71279  15.403   0.208  14.573 -0.2749 -0.0779 -0.3494
 1874PEP     CB71280  15.078   0.439  14.569  0.2583  0.0161 -0.0924
 1875PEP     CB71281   1.783  12.831  17.854 -0.0980 -0.0469 -0.1691
 1875PEP     CB71282   1.742  13.326  17.828 -0.0052 -0.1960  0.5371
 1875PEP     CB71283   1.771  13.610  17.514 -0.2307 -0.0916  0.0966
 1875PEP     CB71284   1.720  13.887  17.172 -0.1697 -0.1478 -0.0358
 1875PEP     CB71285   1.644  14.247  16.888  0.0241 -0.3054 -0.1178
 1875PEP     CB71286   1.356  14.518  16.823  0.1134 -0.0726  0.0209
 1875PEP     CB71287   1.244  14.912  16.533  0.2784  0.3826  0.0458
 1875PEP     CB71288   1.228  14.849  16.074  0.0391  0.0597  0.1090
 1875PEP     CB71289   1.367  14.492  15.893  0.1041  0.1462  0.0126
 1875PEP     CB71290   1.370  14.207  16.113 -0.4107  0.2570  0.2530
 1875PEP     CB71291   1.198  14.179  16.481  0.2836 -0.1622 -0.1992
 1875PEP     CB71292   1.051  13.988  16.876  0.0209 -0.1254  0.0870
 1875PEP     CB71293   0.725  13.974  17.166 -0.3407  0.1647  0.0472
 1875PEP     CB71294   0.390  13.845  17.548 -0.3193 -0.0368 -0.1872
 1875PEP     CB71295   0.362  13.605  17.896 -0.1414 -0.1425  0.4389
 1875PEP     CB71296   0.546  13.584  18.302  0.1228  0.1997  0.0561
 1875PEP     CB71297   0.507  13.368  18.663 -0.0540  0.3659 -0.2468
 1875PEP     CB71298   0.279  13.398  19.087 -0.3966  0.3607 -0.1428
 1875PEP     CB71299   0.352  13.593  19.496  0.0078  0.0813 -0.1099
 1875PEP     CB71300   0.070  13.394  19.823  0.1841 -0.1664  0.5565
 1875PEP     CB71301  -0.277  13.197  20.176 -0.2112  0.1312 -0.5354
 1875PEP     CB71302  -0.659  13.064  20.297 -0.0720  0.0331 -0.1456
 1875PEP     CB71303  -0.677  12.767  20.520  0.2036 -0.1840 -0.0963
 1875PEP     CB71304  -0.396  12.445  20.779 -0.2371 -0.0038  0.1327
 1875PEP     CB71305  -0.112  12.291  21.113  0.2237  0.2561 -0.2420
 1875PEP     CB71306   0.415  12.279  21.191  0.0717  0.1486  0.1103
 1875PEP     CB71307   0.703  12.230  20.952 -0.1083 -0.5319  0.0484
 1875PEP     CB71308   0.955  11.923  20.823  0.4293  0.1637  0.1824
 1875PEP     CB71309   1.158  11.598  21.066  0.0217 -0.0881 -0.0238
 1875PEP     CB71310   1.057  11.289  21.469  0.1214  0.3755 -0.0920
 1875PEP     CB71311   1.172  11.051  21.830 -0.3539 -0.4088 -0.0651
 1875PEP     CB71312   1.303  10.853  22.244 -0.1112 -0.5938 -0.0439
 1875PEP     CB71313   1.304  10.429  22.490 -0.2532 -0.0890  0.1681
 1875PEP     CB71314   0.961  10.249  22.667  0.2346  0.1173  0.2481
 1875PEP     CB71315   0.595  10.360  22.772 -0.2077 -0.1350 -0.0683
 1875PEP     CB71316   0.420  10.656  23.093 -0.2624 -0.0708  0.3313
 1875PEP     CB71317   0.376  11.028  23.317 -0.3648  0.1997 -0.1440
 1875PEP     CB71318   0.289  11.481  23.286 -0.4536 -0.3068  0.2409
 1875PEP     CB71319   0.002  11.756  23.256 -0.5527 -0.0677 -0.2559
 1875PEP     CB71320  -0.368  11.724  23.006  0.1628 -0.1137 -0.0115
 1876PEP     CB71321  19.012   2.298  14.607 -0.1926  0.0626 -0.5618
 1876PEP     CB71322  19.317   2.067  14.945 -0.3702  0.2777 -0.0607
 1876PEP     CB71323  19.670   1.728  14.994 -0.0516  0.5125  0.3728
 1876PEP     CB71324  19.811   1.339  14.985 -0.4688 -0.0702 -0.0577
 1876PEP     CB71325  20.164   1.073  14.791  0.0807 -0.1947  0.0237
 1876PEP     CB71326  20.435   0.676  14.720 -0.2433  0.0576  0.3629
 1876PEP     CB71327  20.626   0.231  14.758  0.1611  0.0593 -0.4004
 1876PEP     CB71328  20.737  -0.258  14.639  0.0338  0.1871  0.1988
 1876PEP     CB71329  20.591  -0.655  14.808 -0.2226  0.1004  0.1183
 1876PEP     CB71330  20.459  -1.117  14.795 -0.0684  0.1252  0.3425
 1876PEP     CB71331  20.359  -1.559  14.810  0.3144  0.1258 -0.0546
 1876PEP     CB71332  20.277  -2.039  14.752 -0.0350 -0.0463  0.2217
 1876PEP     CB71333  20.252  -2.361  15.008 -0.0166 -0.0105  0.1801
 1876PEP     CB71334  20.085  -2.664  15.468  0.2343 -0.0124  0.1689
 1876PEP     CB71335  19.787  -2.739  15.716  0.2229 -0.0166  0.0284
 1876PEP     CB71336  19.480  -2.700  16.038  0.6351 -0.2403  0.0363
 1876PEP     CB71337  19.439  -2.425  16.405  0.0023 -0.2708  0.3042
 1876PEP     CB71338  19.179  -2.255  16.631 -0.0741  0.1616 -0.0856
 1876PEP     CB71339  18.799  -2.140  16.611  0.4119  0.1682  0.1708
 1876PEP     CB71340  18.396  -1.777  16.640 -0.0456 -0.3042 -0.0835
 1876PEP     CB71341  18.380  -1.474  16.382  0.0149  0.0431  0.4591
 1876PEP     CB71342  18.257  -1.594  15.987 -0.2084  0.2138 -0.0498
 1876PEP     CB71343  18.090  -1.993  15.894  0.1664  0.2380  0.1808
 1876PEP     CB71344  18.078  -2.478  16.063 -0.0711  0.1245  0.0673
 1876PEP     CB71345  18.426  -2.736  16.317  0.0772 -0.2398  0.3374
 1876PEP     CB71346  18.695  -2.999  16.307  0.2168 -0.3416 -0.3285
 1876PEP     CB71347  18.904  -3.342  16.104 -0.3023  0.3425 -0.1061
 1876PEP     CB71348  19.262  -3.696  15.906  0.1182 -0.0099 -0.2234
 1876PEP     CB71349  19.660  -3.859  16.146  0.2548 -0.3429  0.1571
 1876PEP     CB71350  19.833  -4.021  16.572  0.2042  0.0753  0.1380
 1876PEP     CB71351  20.199  -4.211  16.666 -0.2424  0.0733  0.1956
 1876PEP     CB71352  20.624  -3.977  16.586 -0.4170  0.0016  0.0580
 1876PEP     CB71353  20.672  -3.640  16.376  0.5163 -0.1273 -0.1496
 1876PEP     CB71354  20.440  -3.601  15.929  0.0683  0.4205  0.0131
 1876PEP     CB71355  20.243  -3.234  15.806 -0.4554  0.2530 -0.2903
 1876PEP     CB71356  20.189  -2.883  16.009  0.3208  0.3422 -0.3895
 1876PEP     CB71357  20.323  -2.665  16.394 -0.0384  0.2161 -0.0711
 1876PEP     CB71358  20.204  -2.440  16.713  0.3071  0.3230 -0.0493
 1876PEP     CB71359  20.230  -2.175  17.062 -0.4178  0.2702 -0.2362
 1876PEP     CB71360  20.364  -2.303  17.415 -0.2930 -0.1643 -0.4869
 1877PEP     CB71361  21.888   9.459   5.506 -0.1094  0.1209 -0.0520
 1877PEP     CB71362  21.852   8.982   5.433 -0.0922 -0.1146  0.2461
 1877PEP     CB71363  21.552   8.690   5.167  0.1453 -0.1916 -0.2765
 1877PEP     CB71364  21.291   8.937   4.922  0.0408  0.1031  0.0765
 1877PEP     CB71365  21.282   9.408   5.116 -0.0823 -0.2214 -0.7532
 1877PEP     CB71366  21.381   9.457   5.552  0.0851  0.2467  0.2018
 1877PEP     CB71367  21.603   9.454   6.002 -0.1702  0.0427  0.2506
 1877PEP     CB71368  21.793   9.383   6.374 -0.0196 -0.2466  0.3234
 1877PEP     CB71369  21.998   9.482   6.705  0.2491 -0.0756 -0.2186
 1877PEP     CB71370  22.022   9.783   7.006 -0.0654 -0.2058 -0.2136
 1877PEP     CB71371  22.111   9.940   7.382 -0.1184 -0.2591  0.5368
 1877PEP     CB71372  22.002   9.806   7.787  0.6053  0.3164  0.0068
 1877PEP     CB71373  21.823   9.900   8.182 -0.0453 -0.1741 -0.0607
 1877PEP     CB71374  21.933   9.921   8.637  0.1054 -0.1605  0.2589
 1877PEP     CB71375  21.930  10.040   9.105 -0.1773 -0.0891  0.2663
 1877PEP     CB71376  21.980   9.846   9.522  0.1283  0.1861 -0.3919
 1877PEP     CB71377  22.038  10.030   9.911 -0.3764 -0.0454  0.3133
 1877PEP     CB71378  22.313  10.048  10.283  0.0286  0.0572  0.2548
 1877PEP     CB71379  22.330  10.325  10.626 -0.0736  0.1034  0.0836
 1877PEP     CB71380  22.381  10.503  11.008 -0.1138  0.0873 -0.2318
 1877PEP     CB71381  22.529  10.839  11.317 -0.3875  0.1412 -0.0889
 1877PEP     CB71382  22.335  11.220  11.458 -0.2375 -0.1421  0.2900
 1877PEP     CB71383  21.980  11.320  11.314  0.0184 -0.2116 -0.0378
 1877PEP     CB71384  21.548  11.179  11.459  0.0452 -0.0525  0.1816
 1877PEP     CB71385  21.254  11.209  11.558  0.1367 -0.2706 -0.0273
 1877PEP     CB71386  20.838  11.066  11.597  0.1765 -0.1226 -0.1571
 1877PEP     CB71387  20.459  11.081  11.909 -0.0188  0.3164 -0.0218
 1877PEP     CB71388  20.096  11.307  11.970 -0.3817 -0.0198  0.2703
 1877PEP     CB71389  19.616  11.395  11.979  0.3554 -0.0762  0.1198
 1877PEP     CB71390  19.195  11.480  11.973 -0.0067 -0.2278  0.0149
 1877PEP     CB71391  18.785  11.603  11.716 -0.6533  0.3508 -0.1354
 1877PEP     CB71392  18.604  11.766  11.310  0.3266 -0.5226 -0.0630
 1877PEP     CB71393  18.798  11.773  10.918 -0.0011 -0.0108  0.0004
 1877PEP     CB71394  18.786  11.440  10.615 -0.1378  0.6344 -0.1551
 1877PEP     CB71395  18.738  11.042  10.698  0.0848  0.4174 -0.1291
 1877PEP     CB71396  18.608  10.908  11.062  0.1042 -0.2601  0.2934
 1877PEP     CB71397  18.582  10.715  11.440  0.4828  0.0792  0.0982
 1877PEP     CB71398  18.341  10.777  11.900  0.2626 -0.1443 -0.1935
 1877PEP     CB71399  18.041  10.991  12.105 -0.3377 -0.1564  0.1183
 1877PEP     CB71400  17.653  11.200  12.261 -0.0184 -0.1933  0.3108
 1878PEP     CB71401  21.839  12.590   9.606  0.3161 -0.1592  0.0756
 1878PEP     CB71402  21.929  13.045   9.596  0.0776 -0.0034  0.0145
 1878PEP     CB71403  22.218  13.422   9.673  0.0308 -0.0971  0.1036
 1878PEP     CB71404  22.544  13.544   9.576  0.2848 -0.2765 -0.1341
 1878PEP     CB71405  22.591  13.429   9.249  0.0800 -0.1355 -0.0901
 1878PEP     CB71406  22.229  13.238   9.110 -0.1624 -0.1507  0.1507
 1878PEP     CB71407  21.755  13.412   9.276  0.1850 -0.3360  0.3753
 1878PEP     CB71408  21.331  13.703   9.270 -0.1515  0.1802 -0.1501
 1878PEP     CB71409  21.125  13.937   8.920 -0.2954  0.2549  0.1468
 1878PEP     CB71410  21.208  14.127   8.497  0.0290 -0.0743  0.3083
 1878PEP     CB71411  21.424  14.137   8.193 -0.2196  0.1315 -0.3469
 1878PEP     CB71412  21.502  13.739   7.949 -0.0392 -0.2642  0.0798
 1878PEP     CB71413  21.483  13.246   8.061 -0.1343 -0.0722  0.2020
 1878PEP     CB71414  21.517  13.142   8.433 -0.1807  0.1585  0.0111
 1878PEP     CB71415  21.772  13.309   8.691 -0.1156 -0.1336 -0.1893
 1878PEP     CB71416  22.244  13.485   8.629 -0.1423  0.3193 -0.3267
 1878PEP     CB71417  22.525  13.472   8.332 -0.0922 -0.3982  0.5523
 1878PEP     CB71418  22.890  13.383   8.225  0.2828  0.2624  0.2656
 1878PEP     CB71419  23.163  13.149   8.454 -0.0528  0.1395  0.0176
 1878PEP     CB71420  23.428  12.906   8.599  0.2519  0.4028  0.0716
 1878PEP     CB71421  23.867  12.967   8.677 -0.3319  0.2373 -0.4933
 1878PEP     CB71422  24.281  13.055   8.585  0.0825  0.1779  0.1039
 1878PEP     CB71423  24.358  13.373   8.339  0.0064 -0.0256  0.1833
 1878PEP     CB71424  24.352  13.750   8.121 -0.0348  0.0730  0.0597
 1878PEP     CB71425  24.024  14.004   8.265  0.1211 -0.2265  0.1993
 1878PEP     CB71426  23.802  14.335   8.484  0.0817 -0.0559  0.0403
 1878PEP     CB71427  23.697  14.390   8.866 -0.1273  0.8074 -0.3069
 1878PEP     CB71428  23.888  14.312   9.293 -0.1135  0.0980  0.0103
 1878PEP     CB71429  23.904  14.258   9.819 -0.0425 -0.1133 -0.1075
 1878PEP     CB71430  24.101  14.218  10.197  0.1004 -0.0364  0.0234
 1878PEP     CB71431  24.363  14.420  10.442 -0.3035 -0.1209  0.5480
 1878PEP     CB71432  24.632  14.771  10.530  0.4749 -0.0632 -0.1382
 1878PEP     CB71433  24.545  15.232  10.290  0.1025  0.2017  0.0463
 1878PEP     CB71434  24.346  15.628  10.205 -0.3121 -0.3452 -0.1464
 1878PEP     CB71435  23.875  15.696  10.066 -0.3154 -0.1647 -0.0473
 1878PEP     CB71436  23.585  15.969  10.150 -0.1850 -0.2433  0.4091
 1878PEP     CB71437  23.135  15.897  10.340 -0.1055 -0.5383  0.0528
 1878PEP     CB71438  23.082  15.692  10.744 -0.2266  0.3915  0.2529
 1878PEP     CB71439  23.474  15.662  11.053  0.1909  0.1800  0.2953
 1878PEP     CB71440  23.737  15.837  11.410 -0.1632 -0.2972 -0.3125
 1879PEP     CB71441  11.271   2.780  12.991 -0.3109  0.0211 -0.2149
 1879PEP     CB71442  10.923   2.540  13.004  0.2108  0.0609  0.1576
 1879PEP     CB71443  10.594   2.553  12.636 -0.1042  0.1264  0.0666
 1879PEP     CB71444  10.698   2.740  12.280  0.1661  0.2906 -0.0361
 1879PEP     CB71445  10.817   3.073  12.232 -0.1586 -0.0363  0.0216
 1879PEP     CB71446  11.219   3.296  12.154 -0.1451  0.0007 -0.0279
 1879PEP     CB71447  11.721   3.206  12.209  0.2335  0.3143 -0.1209
 1879PEP     CB71448  12.175   3.250  12.341  0.2588  0.0522 -0.0782
 1879PEP     CB71449  12.401   3.645  12.485 -0.2752 -0.1715 -0.0193
 1879PEP     CB71450  12.243   4.009  12.672 -0.0413 -0.2639  0.0134
 1879PEP     CB71451  11.704   4.039  12.721  0.1401  0.0288 -0.1213
 1879PEP     CB71452  11.366   3.861  12.393  0.0582  0.0051  0.2565
 1879PEP     CB71453  11.415   3.932  11.948 -0.3351  0.0997 -0.5714
 1879PEP     CB71454  11.557   3.826  11.499  0.0017 -0.1430  0.1168
 1879PEP     CB71455  11.583   3.760  11.096  0.1906 -0.4515  0.0203
 1879PEP     CB71456  11.558   3.491  10.655  0.1079 -0.0451  0.2014
 1879PEP     CB71457  11.742   3.273  10.271 -0.1355  0.1379  0.0569
 1879PEP     CB71458  11.666   3.125   9.837  0.0162 -0.3759  0.5364
 1879PEP     CB71459  11.946   2.952   9.423 -0.0855 -0.3445  0.3376
 1879PEP     CB71460  12.234   3.078   9.100 -0.0440 -0.2498  0.5006
 1879PEP     CB71461  12.497   2.883   8.749  0.0087 -0.1299  0.1425
 1879PEP     CB71462  12.714   2.453   8.716  0.3009 -0.2004 -0.1077
 1879PEP     CB71463  13.001   2.184   8.433  0.0234  0.1242 -0.0212
 1879PEP     CB71464  13.252   1.938   8.112 -0.3833  0.5937  0.1282
 1879PEP     CB71465  13.505   1.565   7.951  0.1974  0.1073  0.1597
 1879PEP     CB71466  13.770   1.431   7.695  0.1311 -0.1462 -0.0387
 1879PEP     CB71467  13.795   1.558   7.245  0.1270  0.1525 -0.2482
 1879PEP     CB71468  13.438   1.615   7.013  0.0736 -0.3031  0.0758
 1879PEP     CB71469  13.185   1.269   6.738 -0.1523  0.1795  0.1977
 1879PEP     CB71470  13.205   0.966   6.353  0.1364  0.0472  0.3030
 1879PEP     CB71471  13.217   0.886   5.965 -0.1646 -0.0334  0.0775
 1879PEP     CB71472  13.056   1.073   5.653  0.2593  0.1167  0.0241
 1879PEP     CB71473  13.184   1.403   5.493 -0.0748  0.2970 -0.0706
 1879PEP     CB71474  13.195   1.830   5.267 -0.0667 -0.1803  0.5136
 1879PEP     CB71475  13.415   2.007   4.933 -0.3828  0.3440  0.0402
 1879PEP     CB71476  13.444   2.010   4.426 -0.1759 -0.1400  0.3922
 1879PEP     CB71477  13.468   1.685   4.247 -0.0191 -0.1031  0.0313
 1879PEP     CB71478  13.662   1.315   4.263 -0.0527 -0.2660  0.1601
 1879PEP     CB71479  13.833   0.974   4.435  0.1531 -0.0627 -0.2044
 1879PEP     CB71480  13.707   0.870   4.801 -0.2622 -0.0855  0.0367
 1880PEP     CB71481  21.119   8.606  15.778 -0.3380 -0.2499 -0.2531
 1880PEP     CB71482  21.353   8.209  15.744 -0.3100  0.0103 -0.0168
 1880PEP     CB71483  21.444   7.805  15.492 -0.1762  0.0703  0.1459
 1880PEP     CB71484  21.342   7.727  15.041 -0.0945 -0.0919 -0.0222
 1880PEP     CB71485  21.273   8.052  14.741  0.1020  0.0729 -0.4109
 1880PEP     CB71486  21.608   8.442  14.664  0.1378 -0.3344  0.3394
 1880PEP     CB71487  22.090   8.348  14.487  0.2842 -0.2945 -0.1044
 1880PEP     CB71488  22.373   8.315  14.722  0.1567 -0.0173  0.0764
 1880PEP     CB71489  22.701   8.364  15.091  0.0429 -0.2840 -0.0376
 1880PEP     CB71490  23.004   8.495  15.329  0.2460  0.4122 -0.2672
 1880PEP     CB71491  22.853   8.847  15.562  0.0882 -0.5077  0.4109
 1880PEP     CB71492  22.508   9.029  15.663  0.1514 -0.1060 -0.3253
 1880PEP     CB71493  22.376   9.516  15.587  0.3503  0.0835  0.0593
 1880PEP     CB71494  22.380   9.870  15.293 -0.0371 -0.2449  0.0298
 1880PEP     CB71495  22.233  10.269  15.188 -0.0221 -0.3442  0.0980
 1880PEP     CB71496  22.007  10.373  14.880  0.2327  0.3857 -0.0857
 1880PEP     CB71497  21.871  10.686  14.556  0.1756 -0.2042 -0.0102
 1880PEP     CB71498  21.625  10.648  14.149  0.1101  0.0012 -0.3899
 1880PEP     CB71499  21.406  10.392  13.897  0.0802 -0.3534 -0.3960
 1880PEP     CB71500  21.169  10.187  13.570 -0.1566 -0.1092 -0.0054
 1880PEP     CB71501  20.908  10.173  13.316  0.4068  0.3178  0.0604
 1880PEP     CB71502  20.614  10.169  13.151  0.0653 -0.3093  0.3014
 1880PEP     CB71503  20.238  10.322  13.086  0.5744  0.2268 -0.0602
 1880PEP     CB71504  19.886  10.246  13.050 -0.2372  0.2228  0.0703
 1880PEP     CB71505  19.471  10.139  12.971  0.0683  0.0082 -0.3698
 1880PEP     CB71506  19.096  10.083  13.186 -0.1524 -0.1183 -0.2397
 1880PEP     CB71507  18.900   9.676  13.255 -0.1319 -0.0247  0.1714
 1880PEP     CB71508  18.867   9.301  13.042  0.1663  0.0707  0.3998
 1880PEP     CB71509  18.697   8.952  12.790 -0.1079  0.1667  0.2699
 1880PEP     CB71510  18.277   8.897  12.614 -0.1336 -0.1607  0.0063
 1880PEP     CB71511  17.863   9.243  12.760  0.0649 -0.0293 -0.4193
 1880PEP     CB71512  17.665   9.713  12.983 -0.0477 -0.2214  0.3897
 1880PEP     CB71513  17.345  10.014  12.936  0.1687  0.2923  0.2703
 1880PEP     CB71514  17.014  10.278  12.692 -0.2863 -0.2034 -0.0188
 1880PEP     CB71515  16.889  10.219  12.288 -0.2237 -0.3861  0.0857
 1880PEP     CB71516  17.040  10.346  11.857  0.1023  0.1281  0.0159
 1880PEP     CB71517  17.423  10.302  11.608 -0.1152 -0.0102  0.0676
 1880PEP     CB71518  17.743  10.128  11.720 -0.1397 -0.1749  0.4139
 1880PEP     CB71519  18.133  10.026  12.014  0.1893  0.0634 -0.1024
 1880PEP     CB71520  18.512   9.787  12.195 -0.1618 -0.1281 -0.3061
 1881PEP     CB71521  17.604   9.526   2.655  0.1403 -0.1462 -0.2625
 1881PEP     CB71522  17.195   9.680   2.804  0.0914  0.4635  0.1513
 1881PEP     CB71523  16.758   9.715   3.040  0.0160 -0.3574 -0.2506
 1881PEP     CB71524  16.422   9.549   3.228  0.0546  0.2194  0.0522
 1881PEP     CB71525  15.975   9.477   3.223 -0.0931  0.0928 -0.1318
 1881PEP     CB71526  15.607   9.172   3.246  0.0701 -0.1150 -0.3178
 1881PEP     CB71527  15.305   8.880   3.263 -0.1084 -0.4129  0.1229
 1881PEP     CB71528  14.844   8.939   3.387  0.0949  0.1523 -0.0165
 1881PEP     CB71529  14.649   9.282   3.657  0.3251  0.2101 -0.2409
 1881PEP     CB71530  14.432   9.667   3.781 -0.0850  0.1434  0.0226
 1881PEP     CB71531  14.481  10.088   3.943 -0.0599 -0.1976 -0.3833
 1881PEP     CB71532  14.906  10.275   4.082 -0.1817  0.4601  0.0151
 1881PEP     CB71533  15.311  10.208   3.798  0.0561 -0.0476  0.1009
 1881PEP     CB71534  15.550  10.248   3.413 -0.2288 -0.0886 -0.0036
 1881PEP     CB71535  16.015  10.530   3.290 -0.3419 -0.2330  0.1369
 1881PEP     CB71536  16.136  10.898   3.477 -0.2619 -0.5627 -0.1283
 1881PEP     CB71537  15.999  11.074   3.871 -0.0177 -0.0841  0.0509
 1881PEP     CB71538  15.999  11.308   4.208 -0.1240 -0.0653  0.0715
 1881PEP     CB71539  16.072  11.621   4.532 -0.0584 -0.1413 -0.1171
 1881PEP     CB71540  16.339  11.822   4.889  0.0975  0.4633 -0.3124
 1881PEP     CB71541  16.518  11.787   5.251  0.0451  0.2938 -0.0482
 1881PEP     CB71542  16.503  11.426   5.405 -0.1219 -0.1000 -0.0169
 1881PEP     CB71543  16.042  11.157   5.550  0.1487  0.2511 -0.0404
 1881PEP     CB71544  15.660  11.452   5.663  0.1492  0.0451 -0.1477
 1881PEP     CB71545  15.497  11.845   5.420  0.5630  0.0482 -0.0037
 1881PEP     CB71546  15.482  12.145   5.147 -0.0155 -0.4579 -0.3354
 1881PEP     CB71547  15.467  12.549   4.818  0.1113  0.3018 -0.0429
 1881PEP     CB71548  15.478  12.880   4.520  0.0461  0.0584 -0.2146
 1881PEP     CB71549  15.399  13.269   4.385  0.2183 -0.1646  0.0646
 1881PEP     CB71550  15.176  13.641   4.602 -0.0941 -0.1032  0.1416
 1881PEP     CB71551  15.229  14.092   4.484 -0.1688 -0.3573 -0.2222
 1881PEP     CB71552  15.405  14.416   4.433 -0.0066 -0.1184 -0.0055
 1881PEP     CB71553  15.493  14.868   4.311 -0.3669 -0.1787  0.1274
 1881PEP     CB71554  15.595  15.302   4.209  0.0234 -0.3529 -0.1362
 1881PEP     CB71555  15.403  15.632   4.011 -0.1364 -0.4212 -0.0150
 1881PEP     CB71556  14.953  15.776   3.884 -0.0339 -0.5775 -0.0123
 1881PEP     CB71557  14.653  16.119   3.828 -0.2654 -0.0124  0.1985
 1881PEP     CB71558  14.381  16.371   3.752 -0.1509  0.0666 -0.0579
 1881PEP     CB71559  14.069  16.479   3.465 -0.4047  0.0138  0.4110
 1881PEP     CB71560  13.653  16.473   3.369  0.1683  0.2083 -0.0301
 1882PEP     CB71561   3.466   8.729  13.392 -0.1358  0.0260 -0.0351
 1882PEP     CB71562   3.139   8.617  13.234 -0.0825 -0.4518  0.2249
 1882PEP     CB71563   2.825   8.840  13.079 -0.1286  0.4727 -0.0107
 1882PEP     CB71564   2.525   9.125  12.805 -0.2792 -0.0797 -0.3188
 1882PEP     CB71565   2.296   9.244  12.460 -0.1491  0.1474  0.1487
 1882PEP     CB71566   2.083   9.074  12.108 -0.1551  0.3014 -0.0543
 1882PEP     CB71567   1.887   8.861  11.865 -0.3297  0.1923 -0.1253
 1882PEP     CB71568   1.512   8.721  11.566 -0.2398  0.0374 -0.2336
 1882PEP     CB71569   1.490   8.736  11.061 -0.1302  0.2140 -0.0550
 1882PEP     CB71570   1.474   8.587  10.678  0.3452 -0.1049  0.4314
 1882PEP     CB71571   1.655   8.488  10.298 -0.2720 -0.3581 -0.0382
 1882PEP     CB71572   1.469   8.369   9.982  0.2253 -0.1395  0.2001
 1882PEP     CB71573   1.033   8.432   9.769 -0.0448  0.3532 -0.3022
 1882PEP     CB71574   0.585   8.423   9.623  0.2212 -0.0169 -0.0693
 1882PEP     CB71575   0.311   8.374   9.217 -0.3240  0.2406  0.3869
 1882PEP     CB71576   0.252   8.457   8.726 -0.2552  0.0485 -0.2539
 1882PEP     CB71577   0.539   8.515   8.389  0.0596  0.1634 -0.3938
 1882PEP     CB71578   0.892   8.346   8.118 -0.1219 -0.1393  0.2263
 1882PEP     CB71579   1.311   8.097   8.081 -0.2104  0.2085  0.1561
 1882PEP     CB71580   1.492   7.748   8.361 -0.0722  0.5650 -0.2662
 1882PEP     CB71581   1.712   7.373   8.354 -0.2775  0.1135  0.0142
 1882PEP     CB71582   1.946   7.205   8.057  0.1174 -0.3067  0.1183
 1882PEP     CB71583   1.799   7.190   7.666  0.1998  0.1915  0.2476
 1882PEP     CB71584   1.426   7.125   7.392  0.1375  0.2267 -0.0417
 1882PEP     CB71585   1.222   6.746   7.124  0.0453 -0.0430 -0.1253
 1882PEP     CB71586   1.417   6.450   6.891  0.0319 -0.0356 -0.1904
 1882PEP     CB71587   1.831   6.295   6.769 -0.0528 -0.2041  0.2659
 1882PEP     CB71588   2.138   6.085   6.623  0.1684 -0.1498 -0.2021
 1882PEP     CB71589   2.340   6.191   6.248  0.1656 -0.3150 -0.1729
 1882PEP     CB71590   2.280   6.238   5.783 -0.3466  0.2050 -0.0798
 1882PEP     CB71591   2.106   6.047   5.461  0.0630 -0.1620 -0.1620
 1882PEP     CB71592   1.820   5.995   5.065  0.1323 -0.1036 -0.6668
 1882PEP     CB71593   1.852   6.046   4.597 -0.0531 -0.4672  0.0624
 1882PEP     CB71594   1.989   6.421   4.292  0.4821 -0.1157  0.1003
 1882PEP     CB71595   2.044   6.709   3.957 -0.3527 -0.0364  0.2900
 1882PEP     CB71596   1.976   6.844   3.505  0.2764  0.1453 -0.3910
 1882PEP     CB71597   2.021   7.212   3.225 -0.0417  0.1865  0.0406
 1882PEP     CB71598   1.784   7.502   3.016 -0.2084 -0.1087  0.2498
 1882PEP     CB71599   1.363   7.596   3.062  0.3622 -0.2247 -0.4921
 1882PEP     CB71600   1.076   7.566   3.442 -0.1329  0.1129  0.1495
 1883PEP     CB71601  20.907   1.626  17.790  0.2414 -0.2846 -0.0989
 1883PEP     CB71602  20.723   2.015  18.038 -0.1276 -0.1724 -0.1034
 1883PEP     CB71603  20.394   2.196  18.229 -0.0582  0.1371 -0.0732
 1883PEP     CB71604  20.005   2.250  18.451 -0.2916 -0.3512  0.2694
 1883PEP     CB71605  19.561   2.076  18.400 -0.1222  0.1988  0.0892
 1883PEP     CB71606  19.127   2.249  18.399  0.0025  0.2352  0.0197
 1883PEP     CB71607  18.897   2.519  18.151  0.2704 -0.0402  0.2150
 1883PEP     CB71608  18.714   2.811  17.875  0.1815  0.1260  0.0961
 1883PEP     CB71609  18.417   2.921  17.571  0.0691  0.1222 -0.0550
 1883PEP     CB71610  17.971   2.756  17.401 -0.3719  0.2640  0.1214
 1883PEP     CB71611  17.720   2.897  17.165  0.1192  0.1129 -0.0841
 1883PEP     CB71612  17.578   2.893  16.851  0.0846 -0.3583  0.1570
 1883PEP     CB71613  17.517   3.111  16.510 -0.1756  0.1960 -0.0018
 1883PEP     CB71614  17.836   3.255  16.318  0.1368 -0.2201  0.1363
 1883PEP     CB71615  18.262   3.324  16.155  0.2210 -0.0924  0.1850
 1883PEP     CB71616  18.628   3.074  16.061 -0.1406  0.1490  0.1864
 1883PEP     CB71617  18.979   2.786  16.024  0.0722 -0.2122  0.2916
 1883PEP     CB71618  19.334   2.687  16.215 -0.0306 -0.3543 -0.0790
 1883PEP     CB71619  19.787   2.891  16.212  0.1317  0.0049  0.1937
 1883PEP     CB71620  19.992   3.236  16.324 -0.1296 -0.3849  0.2336
 1883PEP     CB71621  20.007   3.572  16.652 -0.1252  0.2186 -0.2651
 1883PEP     CB71622  20.211   3.601  17.072 -0.5035 -0.2552  0.0868
 1883PEP     CB71623  20.262   3.270  17.409  0.2046 -0.2170 -0.1247
 1883PEP     CB71624  20.073   2.834  17.528  0.3563 -0.0743 -0.3185
 1883PEP     CB71625  20.185   2.490  17.321 -0.5642 -0.0109  0.0375
 1883PEP     CB71626  20.532   2.575  16.943  0.3070  0.0930 -0.1459
 1883PEP     CB71627  20.943   2.633  16.963  0.3706  0.0233  0.0830
 1883PEP     CB71628  21.107   2.552  17.304  0.0440  0.1803  0.3641
 1883PEP     CB71629  20.919   2.613  17.799  0.1714  0.0206  0.4686
 1883PEP     CB71630  20.627   2.920  17.866  0.1367 -0.0742  0.0014
 1883PEP     CB71631  20.580   3.371  17.793 -0.0293  0.4846 -0.1414
 1883PEP     CB71632  20.393   3.704  17.547  0.1339  0.1950 -0.3215
 1883PEP     CB71633  20.284   4.057  17.339 -0.2597  0.0842 -0.2298
 1883PEP     CB71634  20.099   4.466  17.305 -0.2752 -0.4071  0.0321
 1883PEP     CB71635  19.910   4.773  17.343 -0.2875 -0.1599  0.0543
 1883PEP     CB71636  19.986   5.270  17.309 -0.1225  0.0520  0.0583
 1883PEP     CB71637  20.234   5.590  17.392  0.2439  0.1180  0.0239
 1883PEP     CB71638  20.591   5.855  17.374 -0.1911  0.2027 -0.0275
 1883PEP     CB71639  20.971   6.059  17.480 -0.1467  0.4531  0.2013
 1883PEP     CB71640  21.340   5.804  17.679 -0.3461  0.0654  0.2237
 1884PEP     CB71641  19.019  19.274   0.363 -0.2232  0.2920 -0.0059
 1884PEP     CB71642  18.561  19.360   0.476  0.1920 -0.0177 -0.2428
 1884PEP     CB71643  18.179  19.406   0.297  0.1712  0.1860 -0.1525
 1884PEP     CB71644  17.904  19.535  -0.057  0.0000  0.2446  0.0140
 1884PEP     CB71645  17.798  19.829  -0.374  0.0813 -0.1186 -0.0142
 1884PEP     CB71646  17.430  20.075  -0.606  0.0496 -0.3505 -0.3439
 1884PEP     CB71647  16.951  20.155  -0.455 -0.0829 -0.2162  0.5193
 1884PEP     CB71648  16.655  19.897  -0.370  0.1580 -0.0223 -0.1424
 1884PEP     CB71649  16.585  19.487  -0.503  0.1567 -0.1251  0.2314
 1884PEP     CB71650  16.603  19.235  -0.830 -0.3702  0.0001 -0.0060
 1884PEP     CB71651  16.624  19.109  -1.253 -0.1392  0.3181 -0.2005
 1884PEP     CB71652  16.634  18.849  -1.538  0.0091 -0.0324  0.1367
 1884PEP     CB71653  16.683  18.558  -1.886  0.0657  0.2432  0.4589
 1884PEP     CB71654  16.428  18.565  -2.344 -0.1305  0.4277 -0.0966
 1884PEP     CB71655  16.186  18.858  -2.475 -0.3371  0.0508 -0.4107
 1884PEP     CB71656  15.901  19.145  -2.524 -0.0347  0.5050  0.3168
 1884PEP     CB71657  15.530  19.423  -2.486 -0.0909 -0.0103  0.0648
 1884PEP     CB71658  15.340  19.785  -2.382 -0.0189  0.0072 -0.1145
 1884PEP     CB71659  15.104  20.056  -2.079  0.1124 -0.0842 -0.0013
 1884PEP     CB71660  15.105  19.985  -1.612 -0.0354  0.3992 -0.0933
 1884PEP     CB71661  14.960  20.045  -1.138  0.0820  0.5024 -0.0955
 1884PEP     CB71662  15.120  20.296  -0.824 -0.1779  0.1248 -0.0096
 1884PEP     CB71663  15.419  20.687  -0.841  0.0878  0.0177 -0.1932
 1884PEP     CB71664  15.827  20.723  -1.028 -0.4885 -0.4315  0.0747
 1884PEP     CB71665  15.962  20.408  -1.225  0.0240  0.2174 -0.2502
 1884PEP     CB71666  16.066  20.297  -1.636  0.2607 -0.1937 -0.1339
 1884PEP     CB71667  15.952  20.594  -1.900  0.0881 -0.0143  0.4618
 1884PEP     CB71668  16.121  21.078  -1.824 -0.1581  0.4075  0.0980
 1884PEP     CB71669  16.572  21.255  -1.846  0.2101  0.2619 -0.1163
 1884PEP     CB71670  16.912  21.246  -2.128 -0.1192 -0.2313  0.2402
 1884PEP     CB71671  17.168  21.589  -2.304 -0.1905  0.0359 -0.0372
 1884PEP     CB71672  16.869  22.075  -2.326  0.0347  0.0411  0.0532
 1884PEP     CB71673  16.420  21.988  -2.113 -0.0827  0.2280 -0.2101
 1884PEP     CB71674  16.321  21.708  -1.851  0.1535 -0.4157  0.0232
 1884PEP     CB71675  16.282  21.504  -1.460 -0.1913 -0.0777 -0.1274
 1884PEP     CB71676  16.092  21.080  -1.334  0.4880 -0.1204 -0.3900
 1884PEP     CB71677  15.738  20.842  -1.507  0.2126 -0.2579  0.2884
 1884PEP     CB71678  15.485  21.154  -1.912  0.1536 -0.1536  0.0147
 1884PEP     CB71679  15.200  21.439  -1.877 -0.1313 -0.0951 -0.2406
 1884PEP     CB71680  15.023  21.613  -1.497 -0.0635  0.0159 -0.2048
 1885PEP     CB71681  20.685  18.512   1.071  0.0873  0.2322  0.0746
 1885PEP     CB71682  20.263  18.477   0.904  0.1122  0.0712 -0.1392
 1885PEP     CB71683  19.908  18.244   0.772 -0.0593  0.2443  0.5538
 1885PEP     CB71684  19.461  18.227   0.537 -0.0426  0.2275 -0.1879
 1885PEP     CB71685  19.155  18.317   0.298  0.3371  0.2991 -0.1029
 1885PEP     CB71686  18.854  18.312   0.017  0.0306 -0.3435 -0.0811
 1885PEP     CB71687  18.411  18.194  -0.137  0.2602 -0.2885  0.0633
 1885PEP     CB71688  18.018  18.049  -0.080 -0.0546  0.2591 -0.2053
 1885PEP     CB71689  17.722  17.799  -0.184 -0.2484  0.0366  0.2743
 1885PEP     CB71690  17.346  17.667  -0.165 -0.5796 -0.1218  0.1230
 1885PEP     CB71691  16.974  17.681  -0.366 -0.1242 -0.3713  0.2614
 1885PEP     CB71692  16.642  17.670  -0.632 -0.0651  0.1285 -0.2751
 1885PEP     CB71693  16.263  17.472  -0.760 -0.1091  0.1806 -0.0334
 1885PEP     CB71694  15.899  17.683  -0.496 -0.1555 -0.1790  0.2568
 1885PEP     CB71695  15.659  17.731  -0.262 -0.2039 -0.0966  0.0267
 1885PEP     CB71696  15.410  17.333  -0.237 -0.0059 -0.2497 -0.0674
 1885PEP     CB71697  15.091  17.077  -0.423  0.1933 -0.1871  0.2213
 1885PEP     CB71698  14.949  16.791  -0.781  0.0673 -0.1488 -0.1155
 1885PEP     CB71699  14.919  16.478  -1.163 -0.4096  0.1061  0.0084
 1885PEP     CB71700  14.930  16.220  -1.591 -0.0732 -0.4020  0.0611
 1885PEP     CB71701  14.727  16.147  -1.872 -0.0317  0.2463  0.1957
 1885PEP     CB71702  14.358  16.223  -2.173 -0.0010 -0.3411 -0.1805
 1885PEP     CB71703  13.965  16.198  -2.321 -0.1266 -0.0356 -0.1721
 1885PEP     CB71704  13.624  16.083  -2.453 -0.3176  0.2602  0.1793
 1885PEP     CB71705  13.220  15.907  -2.438  0.2243 -0.0730 -0.2246
 1885PEP     CB71706  12.920  15.556  -2.490 -0.0090  0.2608 -0.0927
 1885PEP     CB71707  12.519  15.337  -2.535  0.0137 -0.2134 -0.2673
 1885PEP     CB71708  12.256  14.912  -2.609  0.2964  0.0398  0.3190
 1885PEP     CB71709  12.159  14.602  -2.579 -0.3130  0.0714  0.4926
 1885PEP     CB71710  11.838  14.222  -2.474  0.2617  0.2515 -0.2929
 1885PEP     CB71711  11.574  13.822  -2.433  0.1540 -0.1038  0.0554
 1885PEP     CB71712  11.203  13.606  -2.546  0.0893 -0.0545  0.4464
 1885PEP     CB71713  10.788  13.757  -2.477 -0.1141  0.0593  0.0895
 1885PEP     CB71714  10.661  14.135  -2.194  0.1427  0.1727  0.1409
 1885PEP     CB71715  11.063  14.252  -1.815 -0.2096 -0.6094 -0.1779
 1885PEP     CB71716  11.305  14.147  -1.473  0.2804  0.3828 -0.0473
 1885PEP     CB71717  11.681  14.071  -1.163  0.1253  0.4713  0.0077
 1885PEP     CB71718  11.804  14.151  -0.817 -0.1421 -0.0302 -0.0388
 1885PEP     CB71719  11.661  14.112  -0.362 -0.1763 -0.0784 -0.1602
 1885PEP     CB71720  11.289  14.204  -0.211  0.1587 -0.0438 -0.2088
 1886PEP     CB71721   8.397   6.121   3.418  0.2102 -0.0992 -0.0191
 1886PEP     CB71722   8.033   5.851   3.581  0.2949 -0.2596 -0.0096
 1886PEP     CB71723   7.678   5.549   3.594  0.3323  0.0142 -0.2367
 1886PEP     CB71724   7.311   5.456   3.862 -0.0005  0.0370  0.2423
 1886PEP     CB71725   7.233   5.605   4.248 -0.2572 -0.2444 -0.0200
 1886PEP     CB71726   7.538   5.982   4.492 -0.3093  0.0183 -0.1600
 1886PEP     CB71727   7.750   6.251   4.248 -0.2546 -0.2694 -0.0704
 1886PEP     CB71728   7.805   6.222   3.833 -0.4107 -0.3237 -0.0290
 1886PEP     CB71729   7.610   6.062   3.546 -0.0718  0.4155  0.0124
 1886PEP     CB71730   7.160   5.998   3.508  0.4963 -0.3372  0.2430
 1886PEP     CB71731   6.764   6.202   3.480  0.1221  0.2816  0.0457
 1886PEP     CB71732   6.383   6.358   3.237 -0.3507 -0.1601  0.1442
 1886PEP     CB71733   6.243   6.248   2.847 -0.5812 -0.1093  0.0629
 1886PEP     CB71734   6.101   5.884   2.735 -0.0149 -0.1827  0.1377
 1886PEP     CB71735   5.814   5.567   2.810 -0.0569  0.1824 -0.0381
 1886PEP     CB71736   5.619   5.305   2.801 -0.0790 -0.4378  0.3720
 1886PEP     CB71737   5.562   4.941   2.461 -0.1707  0.2476 -0.0746
 1886PEP     CB71738   5.822   4.603   2.245  0.1069  0.0285  0.2818
 1886PEP     CB71739   6.111   4.568   1.919 -0.2753 -0.4655  0.0237
 1886PEP     CB71740   6.446   4.233   1.793 -0.0589  0.1857  0.0462
 1886PEP     CB71741   6.872   3.963   1.684  0.3271 -0.0794 -0.2312
 1886PEP     CB71742   7.275   3.825   1.763  0.2296  0.2578 -0.0014
 1886PEP     CB71743   7.558   3.598   2.031  0.0694  0.0907 -0.2631
 1886PEP     CB71744   7.535   3.436   2.500 -0.3769  0.3064 -0.1117
 1886PEP     CB71745   7.335   3.035   2.697  0.2657  0.1124  0.0072
 1886PEP     CB71746   7.502   2.660   3.036  0.1875 -0.3577  0.1254
 1886PEP     CB71747   7.562   2.680   3.426 -0.0146 -0.1795  0.3656
 1886PEP     CB71748   7.496   2.997   3.714  0.2461  0.0165 -0.2075
 1886PEP     CB71749   7.759   3.144   4.030 -0.0463  0.0504  0.0569
 1886PEP     CB71750   7.990   3.162   4.395 -0.3177  0.1940  0.2683
 1886PEP     CB71751   8.277   2.970   4.686 -0.0260  0.2053 -0.1005
 1886PEP     CB71752   8.564   2.631   4.703 -0.2318 -0.0819  0.0923
 1886PEP     CB71753   8.984   2.696   4.838  0.2215 -0.2966  0.0254
 1886PEP     CB71754   9.340   2.757   4.612 -0.3781 -0.1354 -0.3404
 1886PEP     CB71755   9.754   2.704   4.351  0.1284 -0.2166  0.0936
 1886PEP     CB71756  10.059   2.477   4.246 -0.2174  0.0289 -0.0267
 1886PEP     CB71757  10.206   2.056   4.310  0.1559 -0.4011  0.0930
 1886PEP     CB71758  10.022   1.820   4.579 -0.1611  0.0757 -0.0912
 1886PEP     CB71759   9.787   1.920   4.972  0.0733 -0.3133 -0.1986
 1886PEP     CB71760   9.421   2.032   5.122  0.3328 -0.0845  0.1789
 1887PEP     CB71761   5.011   3.828   9.106  0.0199  0.0621  0.1157
 1887PEP     CB71762   5.155   4.306   8.928 -0.3106  0.1017 -0.2757
 1887PEP     CB71763   5.106   4.718   8.576 -0.1180  0.2663 -0.3945
 1887PEP     CB71764   5.189   4.826   8.209 -0.1216 -0.0392  0.0474
 1887PEP     CB71765   5.414   4.720   7.814  0.2751  0.4065  0.3660
 1887PEP     CB71766   5.269   4.464   7.475 -0.2332  0.5315  0.0601
 1887PEP     CB71767   5.001   4.221   7.326  0.0258 -0.4012 -0.1177
 1887PEP     CB71768   4.657   4.101   7.180 -0.0558 -0.1494  0.1140
 1887PEP     CB71769   4.508   3.716   7.071 -0.0756 -0.2194 -0.1322
 1887PEP     CB71770   4.585   3.333   6.763  0.2139  0.2993  0.1425
 1887PEP     CB71771   4.305   3.002   6.413 -0.0021 -0.0222  0.0528
 1887PEP     CB71772   4.089   3.068   6.052  0.1506  0.0047 -0.1421
 1887PEP     CB71773   3.970   2.913   5.666 -0.3670 -0.2927 -0.1077
 1887PEP     CB71774   3.889   2.706   5.301  0.0702 -0.2144 -0.0329
 1887PEP     CB71775   3.924   2.828   4.867 -0.1977  0.0981  0.4786
 1887PEP     CB71776   4.013   3.289   4.597 -0.2319 -0.1214  0.2574
 1887PEP     CB71777   4.025   3.609   4.478 -0.0194 -0.0727 -0.2511
 1887PEP     CB71778   4.350   3.991   4.335 -0.2856  0.2008  0.0704
 1887PEP     CB71779   4.540   4.245   4.261 -0.1809  0.0175  0.0344
 1887PEP     CB71780   4.810   4.526   4.324 -0.2691  0.0916 -0.1813
 1887PEP     CB71781   5.253   4.792   4.332 -0.0107  0.1839 -0.0858
 1887PEP     CB71782   5.620   4.709   4.468  0.2063 -0.0773 -0.3494
 1887PEP     CB71783   6.012   4.544   4.745 -0.2391  0.1680  0.0915
 1887PEP     CB71784   6.284   4.228   4.835  0.0075 -0.1831  0.2588
 1887PEP     CB71785   6.450   4.091   5.217 -0.1757 -0.4082 -0.4692
 1887PEP     CB71786   6.291   4.094   5.650 -0.1491 -0.0108  0.0237
 1887PEP     CB71787   6.209   3.866   5.975 -0.1680 -0.3494  0.3906
 1887PEP     CB71788   6.193   3.586   6.287 -0.0132  0.4505  0.0456
 1887PEP     CB71789   6.190   3.168   6.567 -0.2257 -0.2565 -0.0214
 1887PEP     CB71790   6.301   2.814   6.653 -0.1649  0.1590  0.1406
 1887PEP     CB71791   6.574   2.501   6.602  0.0276  0.5583 -0.0235
 1887PEP     CB71792   6.840   2.167   6.405  0.0704  0.2679  0.0503
 1887PEP     CB71793   6.885   2.012   6.014  0.1338  0.1053 -0.0911
 1887PEP     CB71794   7.054   1.950   5.593 -0.1060 -0.1185  0.0783
 1887PEP     CB71795   7.182   2.314   5.458 -0.3182 -0.1816  0.4102
 1887PEP     CB71796   7.177   2.797   5.595  0.0592  0.1153 -0.0371
 1887PEP     CB71797   6.819   3.007   5.716  0.1438  0.1293  0.1148
 1887PEP     CB71798   6.473   2.941   5.547  0.3357  0.0091  0.1517
 1887PEP     CB71799   6.262   2.564   5.460 -0.0595 -0.2320  0.0357
 1887PEP     CB71800   5.923   2.345   5.415 -0.4913  0.1071  0.2108
 1888PEP     CB71801   9.204   0.152   6.847  0.1710 -0.2342  0.0150
 1888PEP     CB71802   9.354   0.565   7.011  0.1778  0.0919 -0.1695
 1888PEP     CB71803   9.439   0.993   7.199  0.1824 -0.0163 -0.0109
 1888PEP     CB71804   9.420   1.520   7.196 -0.1909  0.4323 -0.4966
 1888PEP     CB71805   9.707   1.810   7.201  0.1542 -0.2927  0.2172
 1888PEP     CB71806  10.196   1.840   7.099 -0.0853  0.3379 -0.1010
 1888PEP     CB71807  10.519   1.730   6.781  0.2404  0.0951  0.1623
 1888PEP     CB71808  10.526   1.542   6.468 -0.4065 -0.2676 -0.0377
 1888PEP     CB71809  10.230   1.396   6.038 -0.2574  0.0291 -0.1822
 1888PEP     CB71810   9.927   1.494   5.667 -0.2719  0.0906  0.3401
 1888PEP     CB71811   9.825   1.404   5.255  0.1074  0.2230  0.4537
 1888PEP     CB71812   9.824   1.409   4.753  0.2699 -0.0152  0.0601
 1888PEP     CB71813  10.048   1.381   4.379  0.5137 -0.0718  0.1037
 1888PEP     CB71814  10.261   1.060   4.126  0.1476  0.0324 -0.0847
 1888PEP     CB71815  10.481   0.791   3.805 -0.0337  0.1527  0.0744
 1888PEP     CB71816  10.625   0.396   3.590 -0.0651 -0.2433 -0.0918
 1888PEP     CB71817  10.705  -0.036   3.408 -0.0252 -0.0796 -0.0917
 1888PEP     CB71818  10.644  -0.357   3.231  0.2879 -0.0748 -0.3951
 1888PEP     CB71819  10.595  -0.750   3.449 -0.2991 -0.0546  0.2618
 1888PEP     CB71820  10.302  -1.129   3.690 -0.0398  0.0769 -0.1089
 1888PEP     CB71821  10.216  -1.472   3.904 -0.1898  0.1573  0.0903
 1888PEP     CB71822  10.468  -1.757   4.024 -0.0931 -0.2414 -0.3755
 1888PEP     CB71823  10.605  -2.088   4.292 -0.1181  0.2328  0.3112
 1888PEP     CB71824  10.740  -2.441   4.442 -0.1853  0.1853  0.1058
 1888PEP     CB71825  10.505  -2.682   4.797 -0.3720 -0.0228 -0.1278
 1888PEP     CB71826  10.192  -3.053   4.802  0.1623 -0.0122  0.0387
 1888PEP     CB71827   9.992  -3.434   4.823  0.2572 -0.2960  0.0839
 1888PEP     CB71828   9.672  -3.767   4.791 -0.0829  0.0491  0.0291
 1888PEP     CB71829   9.616  -4.080   4.944 -0.4144  0.1622  0.1889
 1888PEP     CB71830   9.274  -4.394   5.135 -0.3005  0.1834 -0.0425
 1888PEP     CB71831   9.024  -4.420   5.585  0.0602 -0.3778 -0.0948
 1888PEP     CB71832   9.019  -4.237   6.015 -0.2780  0.2118  0.0275
 1888PEP     CB71833   9.185  -3.920   6.416 -0.3283 -0.3720  0.2434
 1888PEP     CB71834   9.401  -3.919   6.809  0.5719 -0.0120  0.2679
 1888PEP     CB71835   9.195  -3.896   7.193  0.1240 -0.1393 -0.2518
 1888PEP     CB71836   8.765  -3.993   7.401  0.2377 -0.0726  0.2783
 1888PEP     CB71837   8.657  -4.506   7.675 -0.1362 -0.0765 -0.1786
 1888PEP     CB71838   8.881  -4.760   7.803  0.1543 -0.2892  0.1489
 1888PEP     CB71839   9.279  -4.891   7.471 -0.3205  0.2474 -0.5159
 1888PEP     CB71840   9.488  -5.116   7.250  0.3198 -0.0163  0.2859
 1889PEP     CB71841  14.790  12.923   0.249 -0.0662 -0.1364  0.0700
 1889PEP     CB71842  14.512  12.633   0.472  0.6455 -0.0864  0.0639
 1889PEP     CB71843  14.318  12.459   0.877  0.1763 -0.0131 -0.0459
 1889PEP     CB71844  13.964  12.306   0.986  0.0728  0.0497  0.0267
 1889PEP     CB71845  13.574  12.642   1.129 -0.2144 -0.1927  0.0446
 1889PEP     CB71846  13.659  13.062   1.233 -0.1742  0.0640 -0.0119
 1889PEP     CB71847  13.532  13.146   1.721 -0.1384  0.1352 -0.1857
 1889PEP     CB71848  13.476  12.849   2.050  0.0110 -0.2245  0.2658
 1889PEP     CB71849  13.611  12.518   2.264  0.2749 -0.1193  0.2687
 1889PEP     CB71850  14.059  12.338   2.224 -0.0165  0.2062  0.0220
 1889PEP     CB71851  14.268  12.043   1.892  0.0693  0.0842 -0.5104
 1889PEP     CB71852  14.386  11.680   1.685 -0.1430  0.3876  0.0352
 1889PEP     CB71853  14.517  11.380   1.483  0.0738 -0.1709  0.3616
 1889PEP     CB71854  14.746  11.235   1.117 -0.1551 -0.1182 -0.0195
 1889PEP     CB71855  14.652  10.990   0.770  0.0471  0.2316 -0.0687
 1889PEP     CB71856  14.404  10.658   0.702 -0.1047  0.0982  0.0564
 1889PEP     CB71857  14.118  10.341   0.863  0.4374 -0.2536  0.0815
 1889PEP     CB71858  14.296  10.078   1.192 -0.1196  0.0782  0.2126
 1889PEP     CB71859  14.623   9.887   1.346 -0.0608 -0.1582  0.0042
 1889PEP     CB71860  15.073   9.856   1.049 -0.1371  0.1233 -0.1583
 1889PEP     CB71861  15.300  10.140   0.793  0.2600  0.0421 -0.1518
 1889PEP     CB71862  15.647  10.213   0.485  0.1146 -0.2745  0.2139
 1889PEP     CB71863  16.135  10.137   0.423  0.1221  0.3697  0.2705
 1889PEP     CB71864  16.493  10.003   0.293  0.0996 -0.1355 -0.0868
 1889PEP     CB71865  16.957  10.086   0.259 -0.0408  0.0519  0.0530
 1889PEP     CB71866  17.225   9.851   0.160 -0.0165  0.2484 -0.1641
 1889PEP     CB71867  17.233   9.519   0.509 -0.3814  0.1896  0.0161
 1889PEP     CB71868  17.007   9.454   0.896 -0.3346  0.3500  0.3152
 1889PEP     CB71869  16.851   9.052   1.039 -0.0400 -0.0699  0.2972
 1889PEP     CB71870  16.806   8.663   0.767  0.1582  0.1944 -0.1226
 1889PEP     CB71871  16.625   8.345   0.352 -0.1080 -0.4510  0.3590
 1889PEP     CB71872  16.566   8.037   0.094 -0.1804 -0.0033 -0.1087
 1889PEP     CB71873  16.561   7.584  -0.247 -0.2811  0.4804  0.4128
 1889PEP     CB71874  16.515   7.316  -0.505 -0.0191  0.0126 -0.2292
 1889PEP     CB71875  16.689   6.940  -0.707 -0.0343 -0.0698 -0.0598
 1889PEP     CB71876  16.622   6.508  -0.895  0.1453  0.1620 -0.1249
 1889PEP     CB71877  16.502   6.067  -0.957  0.2725  0.1708 -0.1597
 1889PEP     CB71878  16.299   5.793  -0.669  0.1092 -0.4021 -0.3952
 1889PEP     CB71879  16.340   5.496  -0.349  0.1752  0.0151  0.1725
 1889PEP     CB71880  16.340   5.022  -0.310  0.1119  0.1996  0.0159
 1890PEP     CB71881  21.726   0.643  12.116  0.3068  0.3328  0.3054
 1890PEP     CB71882  21.729   0.279  11.838 -0.0193  0.0222  0.3085
 1890PEP     CB71883  21.676  -0.093  11.593 -0.1154 -0.1267  0.4736
 1890PEP     CB71884  21.600  -0.311  11.217  0.0738 -0.2029  0.2771
 1890PEP     CB71885  21.456  -0.302  10.805  0.1375 -0.0553  0.2017
 1890PEP     CB71886  21.450  -0.110  10.454 -0.1793 -0.2024 -0.2114
 1890PEP     CB71887  21.460   0.022  10.094  0.2525  0.2031  0.3144
 1890PEP     CB71888  21.659   0.140   9.725  0.0167 -0.3974 -0.0276
 1890PEP     CB71889  21.600   0.419   9.306  0.0639  0.6197  0.2322
 1890PEP     CB71890  21.221   0.412   9.045  0.1898 -0.2575  0.1848
 1890PEP     CB71891  20.966   0.000   8.977  0.1021 -0.2306  0.0906
 1890PEP     CB71892  21.069  -0.432   8.980 -0.1656 -0.2696 -0.1723
 1890PEP     CB71893  21.383  -0.662   9.086 -0.5209  0.4206 -0.2604
 1890PEP     CB71894  21.838  -0.760   9.137  0.0096 -0.2060  0.1782
 1890PEP     CB71895  22.276  -0.742   9.338 -0.0240 -0.2122  0.1294
 1890PEP     CB71896  22.574  -0.433   9.346 -0.2627  0.0424 -0.3974
 1890PEP     CB71897  22.746   0.014   9.394  0.1715 -0.0225  0.1962
 1890PEP     CB71898  22.731   0.480   9.330 -0.0315 -0.0191 -0.1207
 1890PEP     CB71899  22.713   0.818   9.169 -0.0447 -0.0398 -0.1620
 1890PEP     CB71900  22.828   1.223   9.092  0.1118  0.0837 -0.0356
 1890PEP     CB71901  23.109   1.456   8.751  0.3972 -0.1966 -0.2938
 1890PEP     CB71902  23.191   1.498   8.296 -0.0287 -0.0967 -0.1422
 1890PEP     CB71903  23.050   1.897   7.913 -0.1034  0.3832  0.2156
 1890PEP     CB71904  22.903   2.336   8.030  0.3450 -0.2394 -0.0699
 1890PEP     CB71905  23.143   2.539   8.367 -0.1085  0.2589 -0.2462
 1890PEP     CB71906  23.428   2.371   8.638  0.0125  0.3455  0.0490
 1890PEP     CB71907  23.830   2.484   8.728 -0.2388  0.0400  0.4197
 1890PEP     CB71908  24.144   2.562   9.139  0.0344  0.0586  0.3382
 1890PEP     CB71909  24.539   2.381   9.299 -0.2205  0.1246 -0.2152
 1890PEP     CB71910  24.690   1.979   9.457 -0.2766  0.1127  0.0933
 1890PEP     CB71911  24.612   1.646   9.662 -0.2128 -0.2990  0.2660
 1890PEP     CB71912  24.348   1.587  10.063 -0.0516  0.1008 -0.3145
 1890PEP     CB71913  24.158   1.484  10.477 -0.1142 -0.1578 -0.2581
 1890PEP     CB71914  24.125   1.520  10.930 -0.1661  0.1164 -0.1458
 1890PEP     CB71915  23.904   1.594  11.290 -0.3484  0.1021  0.4310
 1890PEP     CB71916  23.454   1.746  11.439  0.1404  0.3677 -0.2220
 1890PEP     CB71917  22.966   1.659  11.609 -0.0221 -0.2001 -0.0014
 1890PEP     CB71918  22.675   1.273  11.645  0.0838  0.2298 -0.0596
 1890PEP     CB71919  22.587   0.825  11.606 -0.0112  0.0074  0.1490
 1890PEP     CB71920  22.381   0.495  11.822 -0.3608  0.1257  0.0368
 1891PEP     CB71921   4.976   8.513   3.151 -0.5902  0.1111  0.0536
 1891PEP     CB71922   5.098   8.700   2.751  0.2759 -0.2227 -0.0700
 1891PEP     CB71923   5.075   8.554   2.323 -0.1951 -0.1831  0.4621
 1891PEP     CB71924   4.885   8.215   2.082  0.4295  0.0981 -0.4351
 1891PEP     CB71925   5.002   7.924   1.760  0.1368 -0.0090 -0.2156
 1891PEP     CB71926   4.930   7.588   1.491 -0.0031  0.2169 -0.2018
 1891PEP     CB71927   4.686   7.268   1.263  0.1411  0.3280 -0.5282
 1891PEP     CB71928   4.561   7.047   0.937  0.1440 -0.0970 -0.1322
 1891PEP     CB71929   4.642   6.569   0.772 -0.1234 -0.0436  0.0642
 1891PEP     CB71930   4.824   6.329   0.518  0.0218 -0.0134  0.3203
 1891PEP     CB71931   5.173   6.265   0.336 -0.3249 -0.0774 -0.3750
 1891PEP     CB71932   5.603   6.417   0.170  0.3029 -0.0121 -0.0504
 1891PEP     CB71933   5.800   6.457  -0.175  0.2909 -0.0707  0.1096
 1891PEP     CB71934   6.149   6.418  -0.425  0.0178 -0.3740  0.0560
 1891PEP     CB71935   6.221   6.208  -0.766 -0.2711  0.2346  0.5220
 1891PEP     CB71936   6.615   6.026  -0.897 -0.3166  0.3220  0.2773
 1891PEP     CB71937   6.759   5.566  -0.991  0.5372 -0.0542  0.1760
 1891PEP     CB71938   6.750   5.226  -1.315 -0.1633  0.0284  0.0812
 1891PEP     CB71939   6.610   5.352  -1.728  0.1989  0.1489  0.0600
 1891PEP     CB71940   6.502   5.417  -2.177 -0.0158  0.1220 -0.5110
 1891PEP     CB71941   6.457   5.254  -2.620  0.4372  0.4458 -0.2322
 1891PEP     CB71942   6.707   5.348  -3.027  0.1809 -0.0242  0.0126
 1891PEP     CB71943   6.803   5.598  -3.362  0.3403 -0.0522 -0.0954
 1891PEP     CB71944   7.021   5.942  -3.296 -0.1089 -0.2555 -0.1695
 1891PEP     CB71945   7.077   6.126  -2.971 -0.1581  0.2170 -0.1461
 1891PEP     CB71946   6.786   6.413  -2.736  0.4005 -0.2808  0.1673
 1891PEP     CB71947   6.505   6.193  -2.330 -0.1700  0.1721  0.2787
 1891PEP     CB71948   6.147   5.872  -2.294 -0.3284 -0.2198 -0.1479
 1891PEP     CB71949   5.664   5.932  -2.178  0.3200  0.2416  0.3125
 1891PEP     CB71950   5.395   6.210  -2.375  0.0247  0.3667 -0.1010
 1891PEP     CB71951   5.241   6.309  -2.741 -0.4731 -0.0940 -0.5589
 1891PEP     CB71952   4.818   6.191  -2.971 -0.0974 -0.4226  0.2781
 1891PEP     CB71953   4.569   5.791  -3.014  0.0153 -0.0231 -0.1979
 1891PEP     CB71954   4.571   5.453  -3.341  0.0756  0.0016 -0.3071
 1891PEP     CB71955   4.336   5.132  -3.489 -0.3670  0.0976  0.1041
 1891PEP     CB71956   4.105   4.751  -3.396  0.1012 -0.0318 -0.1225
 1891PEP     CB71957   4.368   4.464  -3.336  0.3739  0.1707 -0.1364
 1891PEP     CB71958   4.717   4.397  -3.702  0.4846 -0.1506  0.4704
 1891PEP     CB71959   4.654   4.221  -4.174  0.0145  0.0070  0.0395
 1891PEP     CB71960   4.790   4.367  -4.555 -0.1060  0.2855 -0.0609
 1892PEP     CB71961  21.316  14.849   9.183 -0.5024 -0.1178 -0.1237
 1892PEP     CB71962  21.478  14.617   8.898 -0.0683  0.1733  0.0898
 1892PEP     CB71963  21.679  14.453   8.532 -0.0056  0.3135 -0.0234
 1892PEP     CB71964  21.960  14.134   8.313  0.1640  0.0614 -0.1268
 1892PEP     CB71965  21.878  13.621   8.302 -0.1665 -0.1689 -0.1406
 1892PEP     CB71966  22.004  13.259   8.240  0.2567 -0.1268 -0.0380
 1892PEP     CB71967  21.969  12.830   8.612 -0.1596  0.3085  0.2677
 1892PEP     CB71968  21.571  12.819   8.844 -0.2496 -0.4363  0.0408
 1892PEP     CB71969  21.376  12.937   9.206  0.0622 -0.0276  0.5282
 1892PEP     CB71970  21.414  12.859   9.636 -0.0834  0.0203 -0.0981
 1892PEP     CB71971  21.263  12.702  10.036 -0.3233  0.1183 -0.1589
 1892PEP     CB71972  20.901  12.674  10.157  0.0026 -0.2307 -0.0507
 1892PEP     CB71973  20.520  12.269   9.994  0.0753  0.2278 -0.1072
 1892PEP     CB71974  20.284  12.279   9.623 -0.1011  0.0067 -0.2665
 1892PEP     CB71975  19.900  12.366   9.383  0.0389 -0.0402 -0.1252
 1892PEP     CB71976  19.811  12.466   8.887  0.0930  0.0485 -0.4823
 1892PEP     CB71977  19.962  12.621   8.417 -0.2442  0.1829 -0.2015
 1892PEP     CB71978  19.833  12.396   8.022 -0.0420  0.1179 -0.2341
 1892PEP     CB71979  19.755  12.025   7.797 -0.1086 -0.0714  0.0308
 1892PEP     CB71980  19.674  11.665   7.629 -0.3579 -0.1112 -0.1753
 1892PEP     CB71981  19.398  11.346   7.446  0.0821  0.1995 -0.0092
 1892PEP     CB71982  19.204  11.440   7.055 -0.0423  0.0020 -0.0134
 1892PEP     CB71983  19.447  11.530   6.613 -0.1491 -0.0439  0.0112
 1892PEP     CB71984  19.866  11.714   6.494 -0.4468 -0.3801 -0.0738
 1892PEP     CB71985  20.183  11.996   6.755 -0.2549 -0.1255 -0.0516
 1892PEP     CB71986  20.054  12.363   6.907  0.0866  0.1312 -0.1248
 1892PEP     CB71987  20.064  12.751   6.843 -0.1044  0.0002 -0.3164
 1892PEP     CB71988  19.816  13.025   6.651  0.0462  0.2412  0.2310
 1892PEP     CB71989  19.357  12.964   6.569 -0.3143 -0.0712  0.3215
 1892PEP     CB71990  19.030  12.692   6.760  0.2579 -0.1417 -0.1917
 1892PEP     CB71991  19.010  12.439   7.205 -0.0986  0.0433 -0.2747
 1892PEP     CB71992  18.834  12.412   7.629  0.0170  0.0033 -0.1616
 1892PEP     CB71993  18.840  12.139   7.996  0.0700  0.0405  0.2349
 1892PEP     CB71994  18.622  12.001   8.322  0.3387  0.0152 -0.4097
 1892PEP     CB71995  18.210  11.807   8.413  0.3247  0.1677 -0.0125
 1892PEP     CB71996  18.061  11.380   8.497 -0.4523  0.0011  0.4568
 1892PEP     CB71997  18.173  10.966   8.484  0.2340  0.2511 -0.0173
 1892PEP     CB71998  18.432  10.704   8.202  0.0396 -0.0237  0.3120
 1892PEP     CB71999  18.456  10.279   8.204  0.3801  0.1557  0.2537
 1892PEP     CB72000  18.187   9.927   8.333 -0.3707 -0.2648 -0.3238
 1893PEP     CB72001   7.548   4.997  14.699 -0.1595  0.1383  0.2318
 1893PEP     CB72002   7.695   5.392  14.524  0.2212  0.5999 -0.1658
 1893PEP     CB72003   8.091   5.437  14.400  0.0077  0.4109 -0.0625
 1893PEP     CB72004   8.483   5.725  14.295 -0.5375  0.4960 -0.0605
 1893PEP     CB72005   8.889   5.911  14.334 -0.2888 -0.1594  0.2711
 1893PEP     CB72006   9.332   6.010  14.254  0.3975  0.0266 -0.1826
 1893PEP     CB72007   9.632   6.342  14.201  0.1725  0.3590 -0.0001
 1893PEP     CB72008   9.943   6.578  14.110  0.0796 -0.1344  0.0291
 1893PEP     CB72009  10.245   6.782  14.257  0.4325 -0.1364 -0.0880
 1893PEP     CB72010  10.583   7.006  14.483  0.1277  0.1286 -0.1351
 1893PEP     CB72011  10.778   7.292  14.700 -0.0095  0.1329  0.0498
 1893PEP     CB72012  10.764   7.659  14.925  0.1496 -0.0568 -0.1180
 1893PEP     CB72013  10.549   7.996  14.959  0.2177  0.5063  0.0976
 1893PEP     CB72014  10.309   8.194  15.316 -0.2660  0.1225  0.4053
 1893PEP     CB72015   9.869   8.126  15.577  0.3756  0.0959 -0.0424
 1893PEP     CB72016   9.439   8.219  15.576  0.1295 -0.2788 -0.0798
 1893PEP     CB72017   9.100   8.488  15.404  0.3090  0.4438 -0.4010
 1893PEP     CB72018   8.756   8.645  15.231  0.0413  0.4152 -0.3075
 1893PEP     CB72019   8.351   8.787  15.424 -0.1373  0.1887  0.1277
 1893PEP     CB72020   8.046   8.756  15.738 -0.0863  0.3833  0.3153
 1893PEP     CB72021   7.799   8.663  16.154 -0.2303 -0.1641 -0.1330
 1893PEP     CB72022   7.737   8.479  16.617  0.0289  0.2248  0.1397
 1893PEP     CB72023   7.661   8.207  16.844  0.1463 -0.1358  0.1245
 1893PEP     CB72024   7.447   7.805  16.629 -0.0088 -0.0602 -0.1382
 1893PEP     CB72025   7.303   7.797  16.213 -0.3334  0.1577  0.0423
 1893PEP     CB72026   7.047   7.711  15.959 -0.0202 -0.1908  0.0142
 1893PEP     CB72027   7.046   7.712  15.433  0.0235  0.2892  0.0475
 1893PEP     CB72028   6.786   7.682  15.025  0.0767 -0.0857 -0.1280
 1893PEP     CB72029   6.536   7.427  15.066  0.1055  0.0787 -0.1549
 1893PEP     CB72030   6.488   7.351  15.479 -0.4236 -0.1431  0.0155
 1893PEP     CB72031   6.614   7.663  15.792 -0.0184  0.0176 -0.1589
 1893PEP     CB72032   6.641   8.035  15.782 -0.0908 -0.0484  0.3831
 1893PEP     CB72033   6.300   8.228  15.706  0.4118  0.2191  0.2411
 1893PEP     CB72034   5.959   8.042  15.618  0.4547  0.3196  0.1338
 1893PEP     CB72035   5.553   7.793  15.588  0.3635  0.0961  0.2114
 1893PEP     CB72036   5.238   7.612  15.321 -0.2565 -0.0694  0.0609
 1893PEP     CB72037   4.837   7.664  15.103  0.1779  0.4267 -0.1197
 1893PEP     CB72038   4.390   7.604  15.286  0.0036  0.1181 -0.3017
 1893PEP     CB72039   4.014   7.669  15.435  0.1451 -0.1165  0.1448
 1893PEP     CB72040   3.628   7.657  15.572 -0.2669 -0.0621 -0.3304
 1894PEP     CB72041   9.354   1.488   5.141  0.1911 -0.4432  0.1141
 1894PEP     CB72042   9.445   1.144   4.864 -0.1067 -0.4180 -0.3400
 1894PEP     CB72043   9.619   0.717   4.895 -0.3538  0.2884 -0.0466
 1894PEP     CB72044   9.822   0.518   5.258  0.0314 -0.4907  0.0361
 1894PEP     CB72045   9.915   0.769   5.508 -0.1153 -0.1860  0.3883
 1894PEP     CB72046  10.184   1.143   5.564  0.1869  0.0711  0.0110
 1894PEP     CB72047  10.357   1.398   5.236  0.0911 -0.2237  0.0248
 1894PEP     CB72048  10.368   1.377   4.744 -0.2968 -0.1189  0.2938
 1894PEP     CB72049  10.600   0.954   4.563 -0.3855 -0.5106 -0.0217
 1894PEP     CB72050  11.062   0.763   4.355 -0.1636  0.1555  0.0248
 1894PEP     CB72051  11.454   0.925   4.478  0.1963 -0.1524 -0.0435
 1894PEP     CB72052  11.756   1.193   4.698  0.0267  0.2486  0.4278
 1894PEP     CB72053  11.936   1.601   4.865 -0.3079 -0.2906  0.1198
 1894PEP     CB72054  11.758   2.049   4.808  0.3842  0.1620  0.0685
 1894PEP     CB72055  11.356   2.194   4.811  0.0226  0.2322  0.1065
 1894PEP     CB72056  10.868   2.137   4.844  0.0617 -0.0973 -0.0720
 1894PEP     CB72057  10.497   1.951   4.882  0.1473 -0.1583 -0.0569
 1894PEP     CB72058  10.221   1.964   5.266  0.2831 -0.3005 -0.1111
 1894PEP     CB72059   9.833   2.067   5.504  0.0457  0.0419 -0.2299
 1894PEP     CB72060   9.691   1.825   5.940  0.3211 -0.2817  0.4134
 1894PEP     CB72061   9.791   1.511   6.244  0.1314  0.3127  0.0520
 1894PEP     CB72062  10.050   1.254   6.475  0.0333 -0.0484 -0.1695
 1894PEP     CB72063  10.377   1.256   6.849 -0.3021  0.0263  0.4732
 1894PEP     CB72064  10.813   1.267   6.982 -0.0710  0.2908  0.3327
 1894PEP     CB72065  11.206   0.904   6.940 -0.0964 -0.0423 -0.2997
 1894PEP     CB72066  11.393   0.487   6.733  0.3464 -0.0177 -0.2131
 1894PEP     CB72067  11.228   0.044   6.717 -0.3670 -0.0046 -0.3464
 1894PEP     CB72068  11.082  -0.394   6.652 -0.3022 -0.2723  0.0023
 1894PEP     CB72069  10.918  -0.844   6.590  0.1444  0.1456  0.0881
 1894PEP     CB72070  10.988  -1.246   6.711  0.0236  0.0179  0.1492
 1894PEP     CB72071  11.254  -1.594   6.718 -0.1108  0.1114 -0.2990
 1894PEP     CB72072  11.556  -1.774   7.021 -0.0983  0.3475  0.2345
 1894PEP     CB72073  11.611  -1.654   7.438 -0.2421  0.0854  0.1619
 1894PEP     CB72074  11.805  -1.315   7.619  0.5971 -0.2772 -0.1507
 1894PEP     CB72075  12.026  -1.032   7.876  0.3010  0.3038 -0.1981
 1894PEP     CB72076  12.061  -0.860   8.313 -0.0783 -0.3830  0.5438
 1894PEP     CB72077  11.876  -0.635   8.689 -0.2821 -0.0730  0.1047
 1894PEP     CB72078  11.480  -0.713   8.895 -0.3794  0.5410 -0.3984
 1894PEP     CB72079  11.219  -0.963   8.813 -0.1328  0.5320  0.0837
 1894PEP     CB72080  10.850  -0.935   8.538  0.0739 -0.4364  0.0112
 1895PEP     CB72081  13.191  19.136   0.009 -0.0436 -0.0690  0.1255
 1895PEP     CB72082  12.956  18.767  -0.183 -0.0954  0.1302 -0.2703
 1895PEP     CB72083  12.884  18.476  -0.418 -0.1221 -0.2859 -0.1027
 1895PEP     CB72084  12.940  18.072  -0.533  0.3790  0.2242 -0.2939
 1895PEP     CB72085  13.244  17.702  -0.806  0.2109  0.1359  0.3375
 1895PEP     CB72086  13.461  17.415  -0.901  0.0818 -0.3237  0.4434
 1895PEP     CB72087  13.836  17.160  -1.130  0.1140 -0.2688  0.1047
 1895PEP     CB72088  13.944  16.779  -1.021 -0.4263  0.1597  0.1726
 1895PEP     CB72089  13.965  16.328  -0.864 -0.0717  0.0517  0.1917
 1895PEP     CB72090  14.179  16.041  -0.686  0.1322 -0.2234  0.4002
 1895PEP     CB72091  14.156  15.655  -0.525 -0.0875  0.1657 -0.0218
 1895PEP     CB72092  14.045  15.270  -0.582  0.0091 -0.2360 -0.2726
 1895PEP     CB72093  13.946  14.913  -0.592  0.0564  0.2121  0.4207
 1895PEP     CB72094  14.135  14.485  -0.715 -0.0919 -0.0281  0.1130
 1895PEP     CB72095  14.437  14.096  -0.652 -0.5359  0.0138 -0.3807
 1895PEP     CB72096  14.239  13.769  -0.488  0.3513 -0.2554  0.2190
 1895PEP     CB72097  13.828  13.614  -0.399  0.4056 -0.1600  0.0539
 1895PEP     CB72098  13.449  13.731  -0.651  0.4397 -0.0191 -0.0356
 1895PEP     CB72099  13.247  13.834  -0.947 -0.0887 -0.0190 -0.1387
 1895PEP     CB72100  13.395  13.895  -1.344 -0.1611  0.1621 -0.4442
 1895PEP     CB72101  13.750  13.767  -1.534 -0.1606  0.0669  0.5043
 1895PEP     CB72102  14.142  13.848  -1.603  0.1895  0.0724  0.1157
 1895PEP     CB72103  14.414  14.098  -1.802  0.4407 -0.5320  0.1452
 1895PEP     CB72104  14.459  13.947  -2.221  0.1180  0.1686 -0.3642
 1895PEP     CB72105  14.630  13.479  -2.304  0.0047  0.2261  0.4229
 1895PEP     CB72106  14.366  13.086  -2.333  0.0271 -0.3752  0.4858
 1895PEP     CB72107  14.036  12.812  -2.487  0.2312 -0.1831 -0.2020
 1895PEP     CB72108  13.570  12.839  -2.418  0.0863 -0.2286  0.2323
 1895PEP     CB72109  13.271  13.217  -2.236 -0.2543 -0.0338  0.2976
 1895PEP     CB72110  13.296  13.683  -2.246 -0.3970 -0.5034 -0.1733
 1895PEP     CB72111  13.397  14.169  -2.371 -0.1719  0.0517  0.0850
 1895PEP     CB72112  13.754  14.508  -2.568 -0.1658 -0.0992 -0.2061
 1895PEP     CB72113  13.698  15.003  -2.666 -0.0209  0.0537  0.3283
 1895PEP     CB72114  13.189  15.123  -2.666  0.0638 -0.2704 -0.0584
 1895PEP     CB72115  12.756  14.883  -2.573 -0.1889  0.0014 -0.2206
 1895PEP     CB72116  12.589  14.691  -2.265  0.1176 -0.3224  0.1872
 1895PEP     CB72117  12.237  14.697  -1.969 -0.5408  0.1479  0.3770
 1895PEP     CB72118  11.931  14.670  -1.515  0.1725  0.0394 -0.1095
 1895PEP     CB72119  11.610  14.704  -1.257  0.1235 -0.0979 -0.1366
 1895PEP     CB72120  11.614  14.610  -0.734 -0.4888 -0.0958  0.0258
 1896PEP     CB72121  12.702  20.144  13.286 -0.0905  0.3162 -0.1999
 1896PEP     CB72122  12.675  20.115  12.874  0.0683 -0.2149  0.1647
 1896PEP     CB72123  12.551  19.909  12.482 -0.2321 -0.0984  0.4757
 1896PEP     CB72124  12.278  19.548  12.270  0.0662 -0.1725  0.0808
 1896PEP     CB72125  12.112  19.544  11.836 -0.0213 -0.2796  0.1799
 1896PEP     CB72126  12.222  19.204  11.405  0.0779  0.0560  0.0066
 1896PEP     CB72127  12.661  19.144  11.266  0.0325  0.2523  0.0210
 1896PEP     CB72128  13.042  19.041  11.220 -0.0279 -0.1481 -0.3313
 1896PEP     CB72129  13.501  19.108  11.163 -0.1857  0.0300 -0.0705
 1896PEP     CB72130  13.639  19.542  11.315  0.1176 -0.2234  0.2669
 1896PEP     CB72131  13.325  19.816  11.528 -0.1193  0.0206 -0.1192
 1896PEP     CB72132  13.050  19.752  11.877  0.2661  0.0278 -0.0346
 1896PEP     CB72133  13.106  19.411  12.133 -0.2807  0.7591  0.0594
 1896PEP     CB72134  13.115  18.936  12.216 -0.6467 -0.0749 -0.1727
 1896PEP     CB72135  13.038  18.494  12.436  0.1979  0.0379  0.2628
 1896PEP     CB72136  13.093  18.109  12.669  0.1264  0.2822 -0.3861
 1896PEP     CB72137  12.991  18.106  13.094 -0.1959 -0.0224 -0.3789
 1896PEP     CB72138  12.660  18.078  13.436 -0.2821 -0.0678 -0.1660
 1896PEP     CB72139  12.411  18.353  13.674  0.1701  0.3007 -0.1710
 1896PEP     CB72140  12.196  18.621  13.944  0.0568  0.0899 -0.2447
 1896PEP     CB72141  12.085  19.016  14.212  0.2049 -0.0847 -0.0699
 1896PEP     CB72142  11.593  19.176  14.381 -0.1740  0.3254 -0.4155
 1896PEP     CB72143  11.189  19.258  14.244  0.1262  0.0402  0.2231
 1896PEP     CB72144  10.983  19.488  13.959  0.5649  0.1973  0.2379
 1896PEP     CB72145  10.727  19.788  13.703  0.7345 -0.2086 -0.0061
 1896PEP     CB72146  10.341  19.881  13.656  0.0976  0.2526  0.2785
 1896PEP     CB72147  10.047  19.645  13.821 -0.1414 -0.0660  0.1188
 1896PEP     CB72148   9.851  19.154  13.713 -0.2386  0.0882 -0.0684
 1896PEP     CB72149   9.852  18.769  13.555  0.2003  0.2018 -0.2142
 1896PEP     CB72150  10.170  18.501  13.345  0.2073 -0.0762  0.3032
 1896PEP     CB72151  10.422  18.491  12.897 -0.0630 -0.2491  0.0291
 1896PEP     CB72152  10.306  18.388  12.500 -0.0430 -0.1662 -0.0082
 1896PEP     CB72153  10.087  17.993  12.329 -0.0691  0.3509 -0.1321
 1896PEP     CB72154   9.951  17.728  12.081  0.4030  0.1322  0.0059
 1896PEP     CB72155   9.646  17.473  11.941  0.3385  0.1174  0.0309
 1896PEP     CB72156   9.419  17.202  11.659  0.0166 -0.0268 -0.1276
 1896PEP     CB72157   9.062  17.051  11.709 -0.3365 -0.2569  0.3750
 1896PEP     CB72158   8.694  16.943  11.903  0.2811 -0.4661  0.2414
 1896PEP     CB72159   8.360  17.087  12.195 -0.5357 -0.0837 -0.5019
 1896PEP     CB72160   8.062  17.235  12.466 -0.3994 -0.4427 -0.0597
 1897PEP     CB72161   6.896  16.273   9.504  0.1602  0.5033  0.3934
 1897PEP     CB72162   6.769  16.238   9.061 -0.0023  0.5313  0.0546
 1897PEP     CB72163   6.601  16.266   8.649 -0.4807 -0.2239 -0.3315
 1897PEP     CB72164   6.515  16.455   8.243  0.1285  0.0591  0.1624
 1897PEP     CB72165   6.126  16.543   8.018 -0.0616 -0.1227 -0.1218
 1897PEP     CB72166   5.652  16.557   8.064 -0.0675  0.1253  0.3320
 1897PEP     CB72167   5.262  16.759   8.241 -0.1054 -0.0895 -0.4370
 1897PEP     CB72168   4.781  16.736   8.377  0.0609  0.0824 -0.2957
 1897PEP     CB72169   4.558  16.562   8.729 -0.2665  0.0849 -0.1427
 1897PEP     CB72170   4.838  16.359   9.002  0.0227 -0.1960 -0.0615
 1897PEP     CB72171   5.251  16.195   8.863 -0.0576  0.1188 -0.2487
 1897PEP     CB72172   5.402  16.074   8.456  0.1492 -0.1868 -0.2890
 1897PEP     CB72173   5.347  15.799   8.204  0.0944  0.0220 -0.1178
 1897PEP     CB72174   5.074  15.511   8.188  0.4548 -0.1889 -0.2009
 1897PEP     CB72175   4.859  15.355   7.886 -0.1772 -0.3425  0.0511
 1897PEP     CB72176   4.858  15.199   7.584  0.0589  0.3539  0.1350
 1897PEP     CB72177   4.612  15.221   7.281  0.1799  0.1163  0.0464
 1897PEP     CB72178   4.546  15.364   6.845 -0.0725  0.2727  0.0838
 1897PEP     CB72179   4.348  15.586   6.589 -0.1517 -0.1225 -0.3091
 1897PEP     CB72180   4.072  15.623   6.253 -0.0148  0.0303 -0.1851
 1897PEP     CB72181   3.748  15.468   5.867  0.0940  0.3493  0.0069
 1897PEP     CB72182   3.702  15.339   5.474 -0.2567 -0.3201 -0.2129
 1897PEP     CB72183   3.302  15.140   5.282  0.1499 -0.0727  0.0099
 1897PEP     CB72184   2.998  15.204   5.071 -0.1336  0.1026 -0.4209
 1897PEP     CB72185   2.654  15.349   4.948 -0.4258  0.1339 -0.1149
 1897PEP     CB72186   2.243  15.543   4.648 -0.2371  0.0882  0.2430
 1897PEP     CB72187   1.822  15.524   4.558 -0.2182 -0.5197  0.1748
 1897PEP     CB72188   1.560  15.361   4.300  0.3264 -0.1919  0.0287
 1897PEP     CB72189   1.466  15.442   3.906 -0.3061 -0.3058 -0.3095
 1897PEP     CB72190   1.618  15.674   3.553  0.3579 -0.2351 -0.3247
 1897PEP     CB72191   1.826  15.980   3.395 -0.4037  0.0758 -0.2083
 1897PEP     CB72192   1.857  16.242   3.052  0.1678  0.2677 -0.2795
 1897PEP     CB72193   1.614  16.587   2.805 -0.4649  0.3607 -0.3664
 1897PEP     CB72194   1.450  16.844   2.457 -0.1969 -0.2048  0.2747
 1897PEP     CB72195   1.053  16.771   2.304  0.0679  0.4643 -0.0632
 1897PEP     CB72196   1.040  16.372   2.056 -0.0515  0.6851  0.1171
 1897PEP     CB72197   1.458  16.089   1.894  0.2205  0.0566  0.0190
 1897PEP     CB72198   1.687  15.803   2.210 -0.2116 -0.1615  0.2100
 1897PEP     CB72199   1.542  15.655   2.534  0.0140  0.3102 -0.0134
 1897PEP     CB72200   1.423  15.726   2.970 -0.0003 -0.0499 -0.0298
 1898PEP     CB72201  19.620   8.302  14.954 -0.0173 -0.0270 -0.2082
 1898PEP     CB72202  19.793   7.911  15.040  0.1534  0.2600  0.1946
 1898PEP     CB72203  19.620   7.569  15.085 -0.0509 -0.2425 -0.0053
 1898PEP     CB72204  19.299   7.338  14.983 -0.0659  0.2502 -0.0570
 1898PEP     CB72205  19.013   7.242  14.577  0.1154  0.2005 -0.2696
 1898PEP     CB72206  18.980   7.426  14.077  0.1450  0.1066 -0.0471
 1898PEP     CB72207  19.306   7.725  13.973 -0.1180  0.3657 -0.0168
 1898PEP     CB72208  19.624   8.063  14.083 -0.1340  0.1859 -0.3509
 1898PEP     CB72209  19.616   8.397  14.372  0.1615 -0.0224  0.0516
 1898PEP     CB72210  19.354   8.740  14.325 -0.0867  0.0324 -0.1472
 1898PEP     CB72211  18.925   8.711  14.226 -0.1374 -0.0494  0.0480
 1898PEP     CB72212  18.657   8.471  13.952 -0.1952  0.2765 -0.2057
 1898PEP     CB72213  18.466   8.176  13.755 -0.0664  0.0582 -0.3741
 1898PEP     CB72214  18.260   7.832  13.567  0.2968  0.4132 -0.0105
 1898PEP     CB72215  18.123   7.536  13.354 -0.2791 -0.4396  0.2149
 1898PEP     CB72216  18.290   7.446  12.931 -0.5815 -0.2835 -0.2586
 1898PEP     CB72217  18.244   7.325  12.491 -0.0796  0.2109  0.3416
 1898PEP     CB72218  18.190   7.419  12.048  0.0830  0.3833 -0.0995
 1898PEP     CB72219  18.253   7.569  11.693  0.0888  0.2229  0.2004
 1898PEP     CB72220  18.244   7.476  11.306  0.4421  0.0288  0.1733
 1898PEP     CB72221  18.031   7.634  10.866  0.2072 -0.2046  0.0262
 1898PEP     CB72222  17.875   7.634  10.482 -0.1116 -0.3014 -0.3277
 1898PEP     CB72223  17.546   7.337  10.234  0.1117  0.0116  0.4505
 1898PEP     CB72224  17.331   6.979  10.169 -0.1854  0.2728  0.0281
 1898PEP     CB72225  17.489   6.554  10.231  0.1715  0.1421 -0.0302
 1898PEP     CB72226  17.695   6.288  10.547  0.1362 -0.1076  0.0192
 1898PEP     CB72227  17.760   5.929  10.931  0.0782  0.1530  0.0167
 1898PEP     CB72228  17.834   5.589  11.072 -0.3921 -0.4080  0.3438
 1898PEP     CB72229  18.197   5.443  11.214 -0.3493 -0.4635 -0.2079
 1898PEP     CB72230  18.557   5.237  11.389 -0.4465 -0.1227 -0.0947
 1898PEP     CB72231  19.054   5.172  11.442  0.1025 -0.1656  0.1048
 1898PEP     CB72232  19.355   5.137  11.795 -0.0641  0.4372 -0.1864
 1898PEP     CB72233  19.445   5.031  12.171 -0.2963  0.1516 -0.2273
 1898PEP     CB72234  19.842   5.115  12.373 -0.0449  0.1061  0.2411
 1898PEP     CB72235  20.133   4.999  12.621 -0.1290  0.3594  0.0209
 1898PEP     CB72236  20.296   4.665  12.952  0.2802 -0.0479 -0.1581
 1898PEP     CB72237  20.367   4.581  13.382  0.3565 -0.0153 -0.2349
 1898PEP     CB72238  20.571   4.338  13.697 -0.1686  0.0347 -0.1097
 1898PEP     CB72239  20.920   4.086  13.718  0.3240 -0.2411  0.2640
 1898PEP     CB72240  21.149   3.725  13.717  0.3575  0.2486  0.1292
 1899PEP     CB72241  11.295  21.682  15.276 -0.2139 -0.3047 -0.1531
 1899PEP     CB72242  10.890  21.608  15.429  0.3524 -0.2761 -0.0984
 1899PEP     CB72243  10.717  21.369  15.571 -0.0458  0.2413  0.2370
 1899PEP     CB72244  10.583  21.043  15.795  0.6046 -0.0274 -0.0691
 1899PEP     CB72245  10.783  20.789  15.990  0.0304 -0.3629  0.1719
 1899PEP     CB72246  11.161  20.599  16.157 -0.2683 -0.1148  0.0917
 1899PEP     CB72247  11.548  20.598  16.436 -0.0405 -0.2266 -0.0209
 1899PEP     CB72248  11.942  20.900  16.527 -0.0920 -0.0210 -0.0266
 1899PEP     CB72249  12.263  21.105  16.745 -0.0806 -0.1176  0.1175
 1899PEP     CB72250  12.243  21.392  17.085 -0.1084  0.1893 -0.1221
 1899PEP     CB72251  11.768  21.380  17.376  0.1978  0.1510  0.3679
 1899PEP     CB72252  11.344  21.452  17.397  0.0588  0.0482 -0.2218
 1899PEP     CB72253  10.968  21.244  17.424  0.0732  0.2769 -0.0758
 1899PEP     CB72254  10.551  20.993  17.557  0.2703 -0.0435  0.1314
 1899PEP     CB72255  10.093  21.007  17.511 -0.1966  0.1814  0.1465
 1899PEP     CB72256   9.693  21.106  17.397  0.0368 -0.3623  0.1472
 1899PEP     CB72257   9.430  21.224  17.180  0.0058 -0.1146 -0.2790
 1899PEP     CB72258   9.162  21.494  17.086  0.1651 -0.1599 -0.0575
 1899PEP     CB72259   8.820  21.546  17.178  0.3056  0.3514 -0.0618
 1899PEP     CB72260   8.424  21.771  17.103 -0.2944  0.5589  0.0622
 1899PEP     CB72261   8.024  21.809  17.161 -0.1733 -0.1893  0.1403
 1899PEP     CB72262   7.654  21.673  17.022  0.2233 -0.2213 -0.3229
 1899PEP     CB72263   7.312  21.481  17.355  0.0583 -0.1569 -0.1741
 1899PEP     CB72264   7.359  21.311  17.804 -0.0343 -0.2258  0.2829
 1899PEP     CB72265   7.429  21.242  18.186  0.2033 -0.0220 -0.1557
 1899PEP     CB72266   7.331  20.808  18.372 -0.2367  0.0801  0.4051
 1899PEP     CB72267   7.133  20.499  18.116  0.2267 -0.2624 -0.2913
 1899PEP     CB72268   7.123  20.356  17.697 -0.3243 -0.0647  0.0570
 1899PEP     CB72269   6.803  20.510  17.283 -0.0737 -0.2224 -0.0517
 1899PEP     CB72270   6.441  20.285  16.973  0.4873 -0.1486 -0.2389
 1899PEP     CB72271   6.017  20.317  16.930 -0.0340  0.0648 -0.5262
 1899PEP     CB72272   5.636  20.436  17.062  0.0747  0.0190 -0.2288
 1899PEP     CB72273   5.387  20.660  16.903  0.0067 -0.1203 -0.1933
 1899PEP     CB72274   5.422  21.086  16.890  0.2249 -0.0141  0.0444
 1899PEP     CB72275   5.762  21.355  16.990 -0.1646  0.0227  0.2210
 1899PEP     CB72276   6.214  21.282  17.108  0.3785  0.0540 -0.0342
 1899PEP     CB72277   6.358  21.267  17.528 -0.2663 -0.3091  0.0527
 1899PEP     CB72278   6.334  21.199  17.975  0.0370 -0.1951  0.0618
 1899PEP     CB72279   5.928  21.218  18.273  0.3647  0.1205  0.1514
 1899PEP     CB72280   5.571  21.390  18.492 -0.1625 -0.0762 -0.0605
 1900PEP     CB72281   0.052   6.706   4.914  0.1016 -0.2547 -0.0878
 1900PEP     CB72282  -0.464   6.670   5.029  0.0909 -0.1929  0.1514
 1900PEP     CB72283  -0.794   6.520   5.036 -0.3754 -0.1390  0.0738
 1900PEP     CB72284  -1.174   6.192   5.026  0.2904  0.6957 -0.1068
 1900PEP     CB72285  -1.503   6.240   5.287 -0.3271  0.2509 -0.3609
 1900PEP     CB72286  -1.900   6.494   5.244  0.1514 -0.3419 -0.0841
 1900PEP     CB72287  -2.128   6.460   4.853  0.0945  0.0982  0.4569
 1900PEP     CB72288  -2.041   6.223   4.468 -0.0347  0.5414  0.2883
 1900PEP     CB72289  -2.081   6.105   4.047 -0.1479  0.1072  0.1428
 1900PEP     CB72290  -2.434   6.267   3.806  0.4337  0.2316 -0.0100
 1900PEP     CB72291  -2.827   6.443   4.005  0.4459 -0.1958  0.0442
 1900PEP     CB72292  -2.878   6.511   4.464  0.1494  0.0435 -0.3289
 1900PEP     CB72293  -2.625   6.456   4.819  0.0312  0.2837  0.0879
 1900PEP     CB72294  -2.451   6.567   5.250 -0.1405 -0.0934 -0.2883
 1900PEP     CB72295  -2.165   6.712   5.605 -0.1133  0.3262 -0.0894
 1900PEP     CB72296  -1.969   6.668   6.031  0.2001 -0.0093  0.2520
 1900PEP     CB72297  -1.562   6.526   6.166  0.2427  0.2891 -0.1630
 1900PEP     CB72298  -1.280   6.205   6.287 -0.6187  0.0620 -0.4932
 1900PEP     CB72299  -0.995   6.000   6.159 -0.1119  0.2664  0.1311
 1900PEP     CB72300  -0.989   5.790   5.789 -0.1272 -0.1741  0.1754
 1900PEP     CB72301  -1.259   5.446   5.674  0.2821 -0.0509  0.1448
 1900PEP     CB72302  -1.379   4.993   5.696 -0.2504 -0.4156 -0.2313
 1900PEP     CB72303  -1.179   4.545   5.752  0.3568  0.3426 -0.0479
 1900PEP     CB72304  -0.904   4.328   5.562  0.0024 -0.0245 -0.0986
 1900PEP     CB72305  -0.731   3.955   5.482  0.3549 -0.0553 -0.0342
 1900PEP     CB72306  -0.296   3.817   5.679 -0.2573  0.0090  0.0405
 1900PEP     CB72307   0.039   3.881   5.863  0.3005  0.1294 -0.3432
 1900PEP     CB72308   0.334   4.029   6.123  0.2890  0.0625 -0.0759
 1900PEP     CB72309   0.493   3.932   6.444 -0.0310  0.1031 -0.0213
 1900PEP     CB72310   0.700   3.897   6.858 -0.1256 -0.1298 -0.1302
 1900PEP     CB72311   0.597   3.641   7.169  0.0501 -0.0885  0.5251
 1900PEP     CB72312   0.336   3.301   7.204  0.1631  0.3193  0.0536
 1900PEP     CB72313   0.108   2.936   7.296 -0.0814  0.3275  0.4826
 1900PEP     CB72314  -0.227   2.831   7.000  0.3499  0.0453  0.3351
 1900PEP     CB72315  -0.493   3.113   6.809 -0.1722 -0.0995 -0.4282
 1900PEP     CB72316  -0.900   3.367   6.893 -0.0434 -0.0614  0.0428
 1900PEP     CB72317  -1.243   3.284   7.169  0.2788  0.0048 -0.2618
 1900PEP     CB72318  -1.584   3.235   7.507 -0.4003  0.0541 -0.0557
 1900PEP     CB72319  -1.822   3.061   7.816  0.3176  0.2530  0.1728
 1900PEP     CB72320  -2.006   2.872   8.044 -0.1097  0.1408  0.1040
 1901PEP     CB72321  10.856   2.717  16.548 -0.0427 -0.3977 -0.2046
 1901PEP     CB72322  10.854   2.367  16.331  0.1389 -0.2107 -0.1881
 1901PEP     CB72323  10.651   1.973  16.195  0.3188 -0.0770 -0.0200
 1901PEP     CB72324  10.463   1.619  15.995  0.2069  0.3470 -0.0403
 1901PEP     CB72325  10.626   1.204  15.922  0.4305 -0.2699 -0.4798
 1901PEP     CB72326  10.860   1.080  15.478 -0.1334 -0.3515  0.0174
 1901PEP     CB72327  10.779   1.193  15.054 -0.2650 -0.0950 -0.3066
 1901PEP     CB72328  10.508   1.164  14.763  0.1340 -0.5442  0.0937
 1901PEP     CB72329  10.290   0.852  14.497 -0.2380 -0.0196 -0.0077
 1901PEP     CB72330   9.944   0.588  14.201  0.0105  0.0779 -0.5493
 1901PEP     CB72331   9.789   0.759  13.816 -0.0900 -0.0071  0.1500
 1901PEP     CB72332   9.939   1.081  13.517 -0.2275 -0.0445  0.4665
 1901PEP     CB72333  10.105   1.493  13.612 -0.1988 -0.1436  0.0203
 1901PEP     CB72334  10.214   1.665  13.994  0.3042  0.1643  0.1488
 1901PEP     CB72335  10.665   1.891  14.102 -0.0656  0.1635  0.1930
 1901PEP     CB72336  11.032   1.813  14.293  0.3104  0.0042  0.1850
 1901PEP     CB72337  11.425   1.806  14.511 -0.0408 -0.1232 -0.1954
 1901PEP     CB72338  11.719   1.675  14.799  0.0880 -0.0524 -0.2234
 1901PEP     CB72339  11.869   1.429  15.207  0.4915 -0.1099 -0.1514
 1901PEP     CB72340  11.924   1.302  15.749 -0.0634 -0.3048 -0.1450
 1901PEP     CB72341  11.738   1.176  16.185 -0.0411 -0.2764  0.1283
 1901PEP     CB72342  11.622   1.167  16.641  0.0611 -0.0212  0.2842
 1901PEP     CB72343  11.694   1.407  17.038 -0.3151 -0.0580  0.3849
 1901PEP     CB72344  11.520   1.767  17.333 -0.0027  0.5402  0.2261
 1901PEP     CB72345  11.224   2.106  17.364  0.1293 -0.3190 -0.0889
 1901PEP     CB72346  11.037   2.515  17.559 -0.0467  0.5070 -0.0057
 1901PEP     CB72347  10.801   2.763  17.808 -0.0498  0.1729  0.0790
 1901PEP     CB72348  10.464   2.735  18.143  0.1187  0.2198  0.3809
 1901PEP     CB72349  10.633   2.765  18.578 -0.2349 -0.2303 -0.1282
 1901PEP     CB72350  10.717   3.166  18.705 -0.0303  0.1470  0.0438
 1901PEP     CB72351  10.842   3.503  18.513  0.0082  0.3733  0.0120
 1901PEP     CB72352  11.286   3.508  18.336  0.0077  0.1421  0.3477
 1901PEP     CB72353  11.533   3.251  17.957 -0.4216  0.0218  0.1612
 1901PEP     CB72354  11.483   2.878  17.819  0.2312  0.1396 -0.2538
 1901PEP     CB72355  11.327   2.574  18.128  0.0604 -0.5622 -0.1674
 1901PEP     CB72356  11.023   2.460  18.479  0.0481  0.0344  0.0394
 1901PEP     CB72357  11.110   2.213  18.751  0.1003  0.2687  0.0105
 1901PEP     CB72358  11.506   2.222  18.973 -0.3777  0.0649  0.2437
 1901PEP     CB72359  11.925   2.129  18.754  0.2208  0.5366 -0.1486
 1901PEP     CB72360  12.178   2.328  18.385 -0.3980  0.1806  0.0737
 1902PEP     CB72361  17.870   9.327  18.870 -0.0456  0.0329  0.3243
 1902PEP     CB72362  17.568   9.351  19.191  0.0687  0.0598 -0.4408
 1902PEP     CB72363  17.517   9.326  19.630 -0.1928 -0.1442 -0.1451
 1902PEP     CB72364  17.771   9.313  20.020  0.0542 -0.0614 -0.1118
 1902PEP     CB72365  17.842   9.419  20.456 -0.1392 -0.0153  0.0460
 1902PEP     CB72366  17.799   9.172  20.873 -0.2925 -0.2102  0.0057
 1902PEP     CB72367  17.509   8.967  21.168 -0.0918 -0.0711  0.1857
 1902PEP     CB72368  17.185   8.717  21.430  0.0654  0.4774  0.0964
 1902PEP     CB72369  17.079   8.252  21.534  0.2762  0.0404 -0.0971
 1902PEP     CB72370  17.153   7.812  21.724  0.0796  0.3854 -0.1592
 1902PEP     CB72371  17.006   7.570  22.092  0.3461  0.3575  0.1842
 1902PEP     CB72372  16.613   7.606  22.386 -0.5649  0.2436 -0.4391
 1902PEP     CB72373  16.389   7.910  22.764  0.1069 -0.1115  0.1204
 1902PEP     CB72374  16.345   8.116  23.155  0.1124 -0.1750 -0.0987
 1902PEP     CB72375  16.168   8.330  23.518  0.6215  0.0490  0.0445
 1902PEP     CB72376  15.909   8.600  23.820 -0.0866  0.1614  0.4907
 1902PEP     CB72377  15.899   8.955  24.151  0.1991  0.0373 -0.2300
 1902PEP     CB72378  15.668   9.284  24.168 -0.3076 -0.0029  0.1295
 1902PEP     CB72379  15.391   9.541  24.231 -0.0108  0.1705 -0.2892
 1902PEP     CB72380  15.263   9.809  24.588 -0.1494  0.4691  0.4751
 1902PEP     CB72381  15.507  10.205  24.816 -0.2447 -0.3810 -0.1650
 1902PEP     CB72382  15.811  10.514  24.877 -0.0920  0.1636 -0.1645
 1902PEP     CB72383  16.253  10.364  24.904 -0.1797  0.3874 -0.0477
 1902PEP     CB72384  16.372   9.960  24.844  0.2298  0.2405  0.2309
 1902PEP     CB72385  16.126   9.681  24.836  0.0498  0.1571 -0.2301
 1902PEP     CB72386  15.690   9.598  24.947  0.2057  0.0316  0.0097
 1902PEP     CB72387  15.251   9.418  24.938 -0.0538  0.1805 -0.3201
 1902PEP     CB72388  15.074   9.019  24.872 -0.4507 -0.3686 -0.0554
 1902PEP     CB72389  14.730   8.811  24.901 -0.0241 -0.0390  0.3020
 1902PEP     CB72390  14.415   8.363  24.935 -0.1914 -0.2944  0.2219
 1902PEP     CB72391  13.992   8.299  25.002 -0.1835 -0.1075 -0.0544
 1902PEP     CB72392  13.619   8.487  24.808  0.0589  0.1225 -0.2135
 1902PEP     CB72393  13.177   8.441  24.704  0.2407  0.0252 -0.2274
 1902PEP     CB72394  12.962   8.451  24.360 -0.2047 -0.0003  0.2967
 1902PEP     CB72395  13.124   8.671  23.928  0.1291  0.2632 -0.3333
 1902PEP     CB72396  13.204   9.043  23.678 -0.3387  0.3430  0.2577
 1902PEP     CB72397  13.237   9.432  23.695 -0.5226 -0.0732  0.0698
 1902PEP     CB72398  13.506   9.760  23.748  0.3839  0.0687 -0.1669
 1902PEP     CB72399  13.725   9.967  24.027 -0.2752  0.2744 -0.0418
 1902PEP     CB72400  13.730  10.227  24.358  0.3361  0.1162  0.1028
 1903PEP     CB72401  13.391  18.779  13.832  0.2741 -0.0048 -0.3222
 1903PEP     CB72402  13.529  19.156  13.835 -0.0587  0.3484 -0.0531
 1903PEP     CB72403  13.546  19.635  13.694  0.0791  0.2356 -0.0431
 1903PEP     CB72404  13.677  19.994  13.892  0.1900 -0.2396 -0.2794
 1903PEP     CB72405  13.725  20.044  14.262  0.3487 -0.0882 -0.0782
 1903PEP     CB72406  13.509  19.809  14.640  0.1858  0.2347 -0.1055
 1903PEP     CB72407  13.054  19.719  14.739 -0.0547 -0.2187 -0.0873
 1903PEP     CB72408  12.754  19.664  14.451 -0.2160 -0.3797  0.2395
 1903PEP     CB72409  12.615  20.041  14.239 -0.4966 -0.1123 -0.0482
 1903PEP     CB72410  12.463  20.369  14.473 -0.0267  0.0096 -0.1656
 1903PEP     CB72411  12.209  20.488  14.630  0.2426  0.4815 -0.3131
 1903PEP     CB72412  11.799  20.522  14.662  0.5552 -0.2780  0.1540
 1903PEP     CB72413  11.399  20.332  14.812 -0.1108 -0.0171  0.0794
 1903PEP     CB72414  11.488  19.830  14.782  0.0275 -0.0577  0.2297
 1903PEP     CB72415  11.769  19.690  14.727 -0.1226  0.0893  0.0271
 1903PEP     CB72416  11.837  19.593  14.488 -0.0091  0.0662 -0.0735
 1903PEP     CB72417  11.590  19.722  14.199 -0.1973 -0.1790 -0.3927
 1903PEP     CB72418  11.373  20.101  14.111 -0.4658 -0.1275 -0.0716
 1903PEP     CB72419  11.308  20.398  14.372 -0.2045 -0.3441 -0.2555
 1903PEP     CB72420  11.307  20.820  14.596 -0.0405 -0.1231  0.0225
 1903PEP     CB72421  11.394  21.174  14.807  0.1022 -0.0545  0.0999
 1903PEP     CB72422  11.576  21.236  15.179 -0.0549 -0.3718 -0.2396
 1903PEP     CB72423  11.740  20.952  15.526 -0.0566 -0.2833  0.3175
 1903PEP     CB72424  12.141  20.701  15.522 -0.1506  0.2389 -0.1159
 1903PEP     CB72425  12.567  20.715  15.502  0.1190  0.1469  0.1048
 1903PEP     CB72426  12.930  20.403  15.475  0.0513  0.0713 -0.6458
 1903PEP     CB72427  13.271  20.303  15.766  0.0114 -0.1000  0.2215
 1903PEP     CB72428  13.597  20.395  16.041 -0.1066  0.0924  0.2452
 1903PEP     CB72429  13.917  20.769  16.220 -0.1239 -0.0388  0.3594
 1903PEP     CB72430  14.295  21.049  16.422  0.3100  0.0931 -0.3033
 1903PEP     CB72431  14.522  21.172  16.708 -0.2882  0.0030 -0.2566
 1903PEP     CB72432  14.693  21.528  16.736 -0.1099  0.3052  0.1639
 1903PEP     CB72433  14.640  21.837  16.378 -0.1328  0.2152 -0.2124
 1903PEP     CB72434  14.413  21.739  15.969  0.1343  0.2292 -0.0042
 1903PEP     CB72435  14.506  21.560  15.576 -0.0703  0.1511  0.1463
 1903PEP     CB72436  14.841  21.601  15.269  0.3453  0.1993 -0.0008
 1903PEP     CB72437  15.342  21.703  15.176  0.1280  0.1304  0.3803
 1903PEP     CB72438  15.803  21.651  15.092  0.1363 -0.2151  0.2398
 1903PEP     CB72439  15.966  21.706  14.742 -0.0055  0.0589 -0.3077
 1903PEP     CB72440  15.945  21.445  14.289 -0.0977 -0.2037 -0.0898
 1904PEP     CB72441  16.509  11.250   0.922  0.2228  0.0069 -0.0833
 1904PEP     CB72442  16.465  11.639   1.002  0.1793  0.0834  0.0623
 1904PEP     CB72443  16.650  12.079   0.965  0.2595  0.2264 -0.2533
 1904PEP     CB72444  16.693  12.439   0.935  0.0301  0.2592  0.2882
 1904PEP     CB72445  16.786  12.711   1.145 -0.1519 -0.1630  0.0897
 1904PEP     CB72446  16.579  13.023   1.497 -0.3345  0.0957  0.2082
 1904PEP     CB72447  16.615  13.301   1.736  0.0316  0.0840  0.0726
 1904PEP     CB72448  16.863  13.613   2.065 -0.4217  0.0042 -0.2410
 1904PEP     CB72449  17.404  13.467   2.256 -0.1664  0.1828  0.1330
 1904PEP     CB72450  17.468  13.037   2.451  0.1100  0.0588 -0.0002
 1904PEP     CB72451  17.315  12.668   2.398  0.0283 -0.2138 -0.2323
 1904PEP     CB72452  17.108  12.215   2.465 -0.1459 -0.3880  0.0654
 1904PEP     CB72453  16.988  11.960   2.054 -0.5017 -0.2292  0.3259
 1904PEP     CB72454  17.263  11.956   1.676 -0.1261  0.1553  0.0499
 1904PEP     CB72455  17.521  12.163   1.595 -0.0862  0.2990 -0.0099
 1904PEP     CB72456  17.822  12.420   1.909  0.4900  0.1576 -0.4997
 1904PEP     CB72457  18.152  12.323   2.036 -0.0129  0.3089 -0.0350
 1904PEP     CB72458  18.587  12.212   2.203 -0.1408  0.0727 -0.0277
 1904PEP     CB72459  18.958  12.085   2.341 -0.3006 -0.4499  0.1283
 1904PEP     CB72460  19.357  12.017   2.507  0.4041  0.1573 -0.1140
 1904PEP     CB72461  19.693  11.738   2.329 -0.0241 -0.0809  0.0009
 1904PEP     CB72462  19.629  11.452   2.004  0.1118  0.0902 -0.0036
 1904PEP     CB72463  19.165  11.175   1.924 -0.2702  0.1131  0.2230
 1904PEP     CB72464  18.800  11.186   2.266 -0.2146 -0.2621 -0.1385
 1904PEP     CB72465  18.646  11.076   2.633  0.3032 -0.1893  0.4239
 1904PEP     CB72466  18.622  10.740   3.013 -0.4873 -0.3469 -0.0045
 1904PEP     CB72467  18.539  10.329   3.141 -0.1226 -0.0999  0.2846
 1904PEP     CB72468  18.268   9.982   3.157  0.4877 -0.2273 -0.0869
 1904PEP     CB72469  18.145   9.590   3.130 -0.0743  0.0708  0.1105
 1904PEP     CB72470  17.988   9.472   3.447  0.1544 -0.1047 -0.0975
 1904PEP     CB72471  18.098   9.824   3.756  0.1167 -0.3634  0.0992
 1904PEP     CB72472  18.094  10.200   3.608  0.0604 -0.2056  0.0140
 1904PEP     CB72473  18.354  10.634   3.621 -0.1149  0.3986 -0.3402
 1904PEP     CB72474  18.775  10.857   3.559 -0.0765  0.2261 -0.2201
 1904PEP     CB72475  19.063  11.092   3.857  0.1409 -0.1414 -0.0588
 1904PEP     CB72476  18.959  11.486   3.962 -0.4404  0.0133  0.2201
 1904PEP     CB72477  19.013  11.692   4.397 -0.3380  0.1285  0.1131
 1904PEP     CB72478  19.516  11.822   4.523 -0.0784 -0.0982  0.1738
 1904PEP     CB72479  19.907  12.022   4.258  0.2861 -0.2031 -0.3703
 1904PEP     CB72480  20.085  12.234   3.829 -0.0831 -0.0421 -0.2331
 1905PEP     CB72481   4.802   4.217  16.880  0.4975 -0.1640  0.1284
 1905PEP     CB72482   4.567   3.999  17.165 -0.0011 -0.0152  0.2754
 1905PEP     CB72483   4.401   3.719  17.401 -0.2816  0.0839 -0.0371
 1905PEP     CB72484   4.319   3.354  17.700  0.1519  0.0207  0.3158
 1905PEP     CB72485   4.096   3.093  18.048 -0.1485  0.2407  0.2877
 1905PEP     CB72486   3.821   2.843  18.250 -0.0491  0.0184 -0.2398
 1905PEP     CB72487   3.506   2.857  18.622  0.1648  0.1468 -0.0636
 1905PEP     CB72488   3.677   2.953  19.037  0.2059 -0.0641 -0.0233
 1905PEP     CB72489   4.061   3.056  19.033  0.0345 -0.2721  0.1609
 1905PEP     CB72490   4.488   2.921  19.119 -0.0068 -0.0085  0.0494
 1905PEP     CB72491   4.816   2.917  19.373  0.2630 -0.2053  0.0569
 1905PEP     CB72492   4.844   2.977  19.780 -0.1221  0.4039  0.0437
 1905PEP     CB72493   4.956   3.176  20.203  0.1458  0.2553  0.1220
 1905PEP     CB72494   5.091   3.528  20.343 -0.3506  0.1276  0.0025
 1905PEP     CB72495   5.001   3.876  20.701  0.3717 -0.2860 -0.0196
 1905PEP     CB72496   4.859   4.097  20.991 -0.0646 -0.1277 -0.1260
 1905PEP     CB72497   4.515   4.051  21.245  0.5118 -0.0151  0.1830
 1905PEP     CB72498   4.127   4.220  21.253  0.2906  0.4127 -0.2894
 1905PEP     CB72499   3.881   4.583  21.280  0.4991  0.1483  0.1690
 1905PEP     CB72500   3.587   4.857  21.637  0.2926 -0.1314 -0.0798
 1905PEP     CB72501   3.776   5.121  21.981 -0.0663  0.0557  0.0011
 1905PEP     CB72502   4.185   5.165  22.178 -0.0238 -0.2055 -0.1070
 1905PEP     CB72503   4.547   4.968  22.112 -0.1914  0.2506  0.0015
 1905PEP     CB72504   4.712   4.616  22.127 -0.0763 -0.3011  0.1593
 1905PEP     CB72505   4.977   4.221  22.183  0.1845 -0.1312  0.0751
 1905PEP     CB72506   5.110   3.818  22.141  0.1237  0.4406 -0.2171
 1905PEP     CB72507   5.376   3.481  22.221 -0.2777 -0.1045  0.0806
 1905PEP     CB72508   5.593   3.151  22.372 -0.2980 -0.4063  0.2012
 1905PEP     CB72509   5.930   2.866  22.540 -0.0755  0.1200 -0.3281
 1905PEP     CB72510   6.358   2.947  22.605  0.1558 -0.0442 -0.3465
 1905PEP     CB72511   6.550   3.374  22.563 -0.2846 -0.0410  0.1247
 1905PEP     CB72512   6.534   3.645  22.149  0.0734  0.0822  0.1926
 1905PEP     CB72513   6.319   3.544  21.843 -0.1791 -0.2404  0.3189
 1905PEP     CB72514   5.967   3.398  21.835  0.2671  0.0424 -0.0287
 1905PEP     CB72515   5.507   3.102  21.742 -0.2405  0.0679 -0.0797
 1905PEP     CB72516   5.229   2.768  21.514 -0.1763  0.1289  0.2248
 1905PEP     CB72517   4.971   2.673  21.159  0.1252  0.1101  0.0286
 1905PEP     CB72518   4.627   2.762  20.798  0.0250  0.5623  0.1218
 1905PEP     CB72519   4.304   2.780  20.511  0.1928 -0.4095  0.1370
 1905PEP     CB72520   4.254   2.840  20.038  0.0262 -0.3420  0.0418
 1906PEP     CB72521   3.259  14.982   6.816 -0.3222 -0.1948  0.0690
 1906PEP     CB72522   3.208  14.793   7.349 -0.0961 -0.3146 -0.0461
 1906PEP     CB72523   3.355  14.439   7.504 -0.2516 -0.2552 -0.1840
 1906PEP     CB72524   3.589  14.170   7.621  0.1549 -0.1048 -0.1697
 1906PEP     CB72525   3.709  13.847   7.930  0.1983  0.0453 -0.0421
 1906PEP     CB72526   3.665  13.672   8.366 -0.0794 -0.1992 -0.0314
 1906PEP     CB72527   3.733  13.762   8.731 -0.0385  0.1650 -0.0433
 1906PEP     CB72528   3.643  14.074   9.052  0.0958 -0.2918  0.0730
 1906PEP     CB72529   3.632  14.306   9.409  0.3625  0.3576 -0.0970
 1906PEP     CB72530   3.804  14.714   9.631  0.2350 -0.3169 -0.2767
 1906PEP     CB72531   4.093  14.948   9.693  0.0935  0.2139  0.0587
 1906PEP     CB72532   4.228  14.930  10.114  0.2209  0.0417  0.1755
 1906PEP     CB72533   3.948  14.896  10.412 -0.0332  0.1690  0.0330
 1906PEP     CB72534   3.558  15.267  10.505 -0.1579  0.0673  0.0467
 1906PEP     CB72535   3.770  15.691  10.546  0.0544  0.0300 -0.0667
 1906PEP     CB72536   4.103  15.680  10.706  0.0979  0.0844  0.1436
 1906PEP     CB72537   4.309  15.243  10.861 -0.3107 -0.0871 -0.5659
 1906PEP     CB72538   4.208  14.975  11.183 -0.1033 -0.0494 -0.0820
 1906PEP     CB72539   3.917  15.089  11.450 -0.2787  0.3167 -0.2285
 1906PEP     CB72540   3.522  15.154  11.472  0.3260  0.1178 -0.2428
 1906PEP     CB72541   3.173  15.219  11.791 -0.0179  0.1677 -0.1533
 1906PEP     CB72542   3.046  15.699  12.058  0.2195 -0.1046 -0.3254
 1906PEP     CB72543   3.165  16.002  12.452  0.0080 -0.2118 -0.0555
 1906PEP     CB72544   3.571  16.180  12.659  0.1651  0.0020 -0.2722
 1906PEP     CB72545   4.001  16.352  12.818  0.2906  0.0187  0.1618
 1906PEP     CB72546   4.228  16.560  13.060  0.3107  0.1789  0.0360
 1906PEP     CB72547   4.469  16.790  13.363 -0.2015  0.0504  0.1420
 1906PEP     CB72548   4.487  16.974  13.786 -0.0986 -0.0520 -0.1026
 1906PEP     CB72549   4.175  17.027  14.226 -0.1088 -0.2099  0.1540
 1906PEP     CB72550   3.783  17.212  14.565 -0.0633 -0.3868 -0.1004
 1906PEP     CB72551   3.545  17.605  14.759  0.1831 -0.0254 -0.0235
 1906PEP     CB72552   3.446  18.015  14.637  0.1165 -0.0482  0.0500
 1906PEP     CB72553   3.376  18.385  14.347 -0.1094 -0.0835 -0.0828
 1906PEP     CB72554   3.491  18.713  14.117  0.1360 -0.0846  0.0582
 1906PEP     CB72555   3.243  19.120  14.046 -0.0839  0.1027 -0.0600
 1906PEP     CB72556   2.831  19.483  13.927 -0.1083  0.0139 -0.0655
 1906PEP     CB72557   2.543  19.730  13.789  0.0889 -0.1791 -0.3750
 1906PEP     CB72558   2.522  20.215  13.793 -0.1092  0.0989  0.1434
 1906PEP     CB72559   2.817  20.596  13.889 -0.0753  0.0190 -0.0448
 1906PEP     CB72560   3.084  20.991  13.844 -0.1596 -0.1129 -0.0135
 1907PEP     CB72561  12.810  20.520  17.210  0.1221 -0.1505  0.0369
 1907PEP     CB72562  12.597  20.757  16.895 -0.1249 -0.1507  0.2353
 1907PEP     CB72563  12.480  20.743  16.465 -0.3036 -0.0510  0.2756
 1907PEP     CB72564  12.199  20.483  16.160 -0.1199  0.1602 -0.1227
 1907PEP     CB72565  12.298  20.298  15.722  0.1770 -0.4412  0.3411
 1907PEP     CB72566  12.447  19.935  15.424 -0.1312  0.3390 -0.0778
 1907PEP     CB72567  12.270  19.658  15.153  0.2009 -0.0885 -0.1324
 1907PEP     CB72568  12.324  19.531  14.683  0.5035 -0.1519 -0.0820
 1907PEP     CB72569  12.308  19.532  14.247  0.3152 -0.3112 -0.0930
 1907PEP     CB72570  12.628  19.541  13.869  0.0247  0.2377  0.1773
 1907PEP     CB72571  13.000  19.826  13.716 -0.0145  0.2473  0.1077
 1907PEP     CB72572  13.305  19.992  13.434 -0.2795  0.1571  0.1824
 1907PEP     CB72573  13.722  19.760  13.286  0.0984 -0.2565  0.0976
 1907PEP     CB72574  14.038  19.441  13.062 -0.3496 -0.0357  0.1432
 1907PEP     CB72575  14.182  19.107  12.844  0.2525 -0.1319 -0.1592
 1907PEP     CB72576  14.182  18.814  12.539 -0.0890 -0.1868  0.1457
 1907PEP     CB72577  14.118  18.390  12.440  0.0913  0.0096 -0.0557
 1907PEP     CB72578  13.802  17.991  12.503 -0.2177 -0.4553 -0.4784
 1907PEP     CB72579  13.441  17.771  12.786  0.5820  0.0675  0.0736
 1907PEP     CB72580  13.077  17.516  12.962 -0.1740 -0.1271 -0.0146
 1907PEP     CB72581  12.807  17.477  13.365 -0.1999  0.1504  0.3913
 1907PEP     CB72582  12.755  17.642  13.739  0.6792 -0.0718  0.1652
 1907PEP     CB72583  12.619  17.926  14.017 -0.1138 -0.4924  0.0394
 1907PEP     CB72584  12.506  17.959  14.483 -0.0488 -0.1378 -0.3626
 1907PEP     CB72585  12.413  18.004  14.867 -0.3407 -0.2250 -0.1980
 1907PEP     CB72586  12.166  17.794  15.193  0.0036  0.2809 -0.1334
 1907PEP     CB72587  11.928  17.525  15.476 -0.2309  0.0036 -0.4474
 1907PEP     CB72588  11.487  17.432  15.476 -0.2685 -0.0030 -0.1518
 1907PEP     CB72589  11.064  17.674  15.473  0.3838  0.1928  0.0709
 1907PEP     CB72590  10.821  18.113  15.229  0.4000  0.0860  0.1908
 1907PEP     CB72591  10.758  18.497  15.030  0.2396 -0.1036  0.1161
 1907PEP     CB72592  10.710  18.940  14.974 -0.1078 -0.1849  0.1281
 1907PEP     CB72593  10.755  19.378  15.053  0.2728 -0.1986  0.4917
 1907PEP     CB72594  10.929  19.701  15.199 -0.2958  0.3213 -0.3589
 1907PEP     CB72595  11.108  20.085  15.229  0.0237 -0.3899  0.0981
 1907PEP     CB72596  11.459  20.357  15.307 -0.1972  0.2471  0.2353
 1907PEP     CB72597  11.848  20.188  15.250  0.1036 -0.1240 -0.0169
 1907PEP     CB72598  12.335  20.305  15.120  0.0616  0.2312 -0.2850
 1907PEP     CB72599  12.574  20.666  14.963 -0.4432  0.1919 -0.1714
 1907PEP     CB72600  12.960  20.783  15.097 -0.1877  0.3757  0.0428
 1908PEP     CB72601   4.264   2.357   1.671 -0.0662 -0.4164  0.1612
 1908PEP     CB72602   4.606   2.579   1.807  0.1421 -0.0649 -0.1910
 1908PEP     CB72603   5.045   2.648   1.772  0.1225 -0.3021 -0.2570
 1908PEP     CB72604   5.311   2.899   1.708  0.0165 -0.1449  0.0542
 1908PEP     CB72605   5.619   3.029   1.447  0.0065  0.1592  0.2218
 1908PEP     CB72606   5.543   3.134   0.967 -0.1548 -0.2782 -0.2668
 1908PEP     CB72607   5.263   3.219   0.686 -0.1492 -0.0817 -0.0068
 1908PEP     CB72608   5.093   3.634   0.577 -0.1461  0.2828  0.0132
 1908PEP     CB72609   5.301   4.002   0.570 -0.1579  0.2241  0.0117
 1908PEP     CB72610   5.680   3.909   0.787 -0.2449 -0.0254 -0.1379
 1908PEP     CB72611   5.983   3.614   0.719 -0.1792  0.2366 -0.4218
 1908PEP     CB72612   5.986   3.274   0.755  0.1453  0.2797  0.2104
 1908PEP     CB72613   6.036   2.888   1.046 -0.2536  0.0326  0.1232
 1908PEP     CB72614   6.117   2.863   1.500 -0.3351 -0.2018 -0.0707
 1908PEP     CB72615   5.962   2.974   1.905 -0.2512  0.6706  0.2947
 1908PEP     CB72616   5.640   3.040   2.156 -0.0499 -0.2633 -0.1763
 1908PEP     CB72617   5.406   3.184   2.577  0.0158 -0.2168  0.4837
 1908PEP     CB72618   5.228   3.567   2.732 -0.1585 -0.3529 -0.0642
 1908PEP     CB72619   4.782   3.681   2.769 -0.0896 -0.2097  0.1532
 1908PEP     CB72620   4.599   3.966   2.598  0.0184 -0.0098  0.0976
 1908PEP     CB72621   4.742   4.465   2.276 -0.0106  0.2357  0.2756
 1908PEP     CB72622   4.585   4.814   1.989 -0.2289  0.1317 -0.0549
 1908PEP     CB72623   4.496   5.095   1.726 -0.2548  0.1172 -0.1333
 1908PEP     CB72624   4.186   5.241   1.365  0.0377 -0.1157 -0.0008
 1908PEP     CB72625   3.903   5.585   1.404 -0.3921 -0.0035 -0.1691
 1908PEP     CB72626   3.430   5.515   1.468  0.1988  0.1560  0.0344
 1908PEP     CB72627   3.091   5.749   1.433  0.0166  0.1138  0.1482
 1908PEP     CB72628   2.771   6.034   1.254 -0.2866 -0.1291  0.3609
 1908PEP     CB72629   2.480   6.303   1.048  0.2269 -0.0826  0.0085
 1908PEP     CB72630   2.255   6.566   0.860  0.0236  0.0884 -0.3107
 1908PEP     CB72631   1.995   6.627   0.708  0.3697  0.0061  0.3334
 1908PEP     CB72632   1.748   6.556   0.318 -0.4400 -0.0231 -0.2812
 1908PEP     CB72633   1.476   6.656   0.044 -0.2739  0.3118  0.0907
 1908PEP     CB72634   1.318   6.707  -0.315 -0.1353 -0.4672 -0.1840
 1908PEP     CB72635   1.083   6.365  -0.559 -0.1620  0.4937  0.6641
 1908PEP     CB72636   1.240   5.944  -0.556 -0.1671 -0.5542 -0.2383
 1908PEP     CB72637   1.600   5.893  -0.275 -0.2114 -0.0977 -0.3991
 1908PEP     CB72638   1.805   6.260  -0.130 -0.4032  0.1385 -0.0356
 1908PEP     CB72639   1.862   6.680  -0.245 -0.0863  0.1870  0.2660
 1908PEP     CB72640   1.703   6.856  -0.519 -0.0362  0.2084  0.1733
 1909PEP     CB72641   2.613   1.665  19.848 -0.4308  0.0670  0.2124
 1909PEP     CB72642   2.584   1.847  20.263  0.3009 -0.1616  0.0182
 1909PEP     CB72643   2.314   1.930  20.488 -0.3335 -0.1962  0.2158
 1909PEP     CB72644   1.966   2.112  20.394 -0.0998 -0.2335 -0.3565
 1909PEP     CB72645   1.894   2.413  20.073 -0.1285  0.1226  0.3638
 1909PEP     CB72646   1.867   2.906  19.935 -0.3316 -0.1477 -0.2477
 1909PEP     CB72647   2.131   3.262  20.084 -0.2197  0.3417 -0.1226
 1909PEP     CB72648   2.496   3.541  20.197 -0.3489 -0.2168 -0.0559
 1909PEP     CB72649   2.469   3.870  20.561  0.1552  0.0329 -0.2873
 1909PEP     CB72650   2.233   3.975  20.855 -0.2068 -0.2800 -0.1641
 1909PEP     CB72651   2.054   4.316  21.104  0.0682 -0.1238 -0.0773
 1909PEP     CB72652   2.133   4.524  21.532 -0.2728  0.0792  0.5696
 1909PEP     CB72653   2.561   4.595  21.646  0.0877  0.1253 -0.1550
 1909PEP     CB72654   2.811   4.310  21.731  0.0450 -0.3168 -0.3810
 1909PEP     CB72655   3.112   3.968  21.819  0.1784 -0.1241 -0.1029
 1909PEP     CB72656   3.429   3.717  21.861 -0.1813  0.1128  0.0963
 1909PEP     CB72657   3.549   3.389  21.695  0.0097 -0.3157  0.1417
 1909PEP     CB72658   3.596   3.288  21.305 -0.0940 -0.1033  0.0199
 1909PEP     CB72659   3.817   3.326  20.951 -0.2193  0.1685  0.1400
 1909PEP     CB72660   3.734   3.563  20.514 -0.4134 -0.0479 -0.4948
 1909PEP     CB72661   3.709   3.853  20.202 -0.1044  0.0349  0.3050
 1909PEP     CB72662   3.487   4.108  19.963  0.2714  0.3072  0.0099
 1909PEP     CB72663   3.071   4.069  19.912  0.1075 -0.1670  0.1212
 1909PEP     CB72664   2.872   3.824  20.246 -0.0479  0.6143 -0.1260
 1909PEP     CB72665   3.024   3.838  20.661  0.2905 -0.0864 -0.0707
 1909PEP     CB72666   3.426   3.887  20.824  0.0970  0.0850  0.1341
 1909PEP     CB72667   3.635   4.267  20.901 -0.2740 -0.1921 -0.1345
 1909PEP     CB72668   4.017   4.551  20.798 -0.4470  0.0270  0.1419
 1909PEP     CB72669   4.202   5.017  20.710 -0.2871 -0.3282 -0.1575
 1909PEP     CB72670   4.302   5.431  20.877 -0.0179  0.2678 -0.0854
 1909PEP     CB72671   4.616   5.695  20.925  0.3249  0.0732 -0.2156
 1909PEP     CB72672   4.908   5.738  21.111 -0.0933 -0.1509  0.3181
 1909PEP     CB72673   5.058   5.972  21.445  0.0163 -0.1511 -0.2468
 1909PEP     CB72674   4.964   5.977  21.873  0.3743 -0.1917 -0.1809
 1909PEP     CB72675   4.608   6.093  22.183  0.2789  0.0151  0.1457
 1909PEP     CB72676   4.256   5.926  22.351 -0.2565  0.0502  0.0142
 1909PEP     CB72677   3.946   5.561  22.327 -0.3938  0.2750  0.2390
 1909PEP     CB72678   3.822   5.319  22.590  0.3136  0.1821  0.0896
 1909PEP     CB72679   3.554   5.452  22.845 -0.0490 -0.1428 -0.0989
 1909PEP     CB72680   3.250   5.788  23.026 -0.4350 -0.1893  0.1686
 1910PEP     CB72681  15.402  20.528   6.911  0.0157  0.1394 -0.1675
 1910PEP     CB72682  15.342  20.682   6.531  0.4598  0.1218  0.0843
 1910PEP     CB72683  15.437  21.043   6.399 -0.0357 -0.1416 -0.2312
 1910PEP     CB72684  15.101  21.426   6.365 -0.1524 -0.1895 -0.0615
 1910PEP     CB72685  14.741  21.438   6.662  0.0067 -0.1865  0.0680
 1910PEP     CB72686  14.547  21.665   7.074 -0.4696  0.0545  0.0394
 1910PEP     CB72687  14.311  21.774   7.389 -0.0375 -0.2726 -0.2330
 1910PEP     CB72688  14.415  21.905   7.833 -0.1661  0.2674 -0.0491
 1910PEP     CB72689  14.477  22.200   8.128  0.2453 -0.0632  0.0641
 1910PEP     CB72690  14.316  22.463   8.372 -0.0845 -0.0583  0.1390
 1910PEP     CB72691  14.304  22.838   8.479 -0.2201 -0.1791  0.1225
 1910PEP     CB72692  14.543  23.230   8.226 -0.1712  0.3679  0.0709
 1910PEP     CB72693  14.976  23.324   8.320 -0.2667 -0.1064 -0.1583
 1910PEP     CB72694  15.313  23.568   8.579 -0.1502 -0.1653 -0.1888
 1910PEP     CB72695  15.823  23.619   8.610 -0.2419  0.1279  0.5297
 1910PEP     CB72696  16.239  23.831   8.806 -0.2208 -0.0271 -0.2040
 1910PEP     CB72697  16.559  23.656   9.023  0.0555 -0.0617  0.2683
 1910PEP     CB72698  16.882  23.389   9.280  0.0429 -0.0337 -0.0032
 1910PEP     CB72699  16.856  23.075   9.627  0.3807 -0.2724  0.0003
 1910PEP     CB72700  16.831  22.614   9.702  0.0229 -0.0729  0.1415
 1910PEP     CB72701  16.626  22.297   9.389 -0.1566  0.1793 -0.0885
 1910PEP     CB72702  16.228  22.399   9.038 -0.0962  0.0493 -0.1901
 1910PEP     CB72703  16.130  22.810   9.019  0.1203  0.1631  0.1241
 1910PEP     CB72704  16.373  23.157   9.012 -0.1693  0.1194 -0.4228
 1910PEP     CB72705  16.642  23.283   8.756  0.1154  0.2649  0.4093
 1910PEP     CB72706  16.620  23.302   8.348 -0.1042  0.1617 -0.1614
 1910PEP     CB72707  16.652  23.253   7.896 -0.4491  0.2376  0.3150
 1910PEP     CB72708  16.686  23.173   7.425  0.1509  0.1068  0.2700
 1910PEP     CB72709  17.016  23.275   7.017 -0.0515 -0.2815 -0.2611
 1910PEP     CB72710  17.161  23.088   6.702  0.1607 -0.3168  0.3268
 1910PEP     CB72711  17.080  23.121   6.235 -0.3380  0.2351 -0.0003
 1910PEP     CB72712  17.059  23.498   6.008 -0.0239  0.1288 -0.0550
 1910PEP     CB72713  17.388  23.792   6.059  0.0026  0.5060 -0.1137
 1910PEP     CB72714  17.645  23.789   6.419  0.3225 -0.2598 -0.1161
 1910PEP     CB72715  17.992  23.464   6.362  0.3679  0.0185 -0.2764
 1910PEP     CB72716  18.408  23.542   6.030 -0.1037  0.1223  0.0103
 1910PEP     CB72717  18.780  23.338   5.953  0.1911 -0.1964 -0.0220
 1910PEP     CB72718  18.754  22.926   5.784  0.0327  0.1380 -0.2633
 1910PEP     CB72719  18.463  22.659   5.725 -0.0170 -0.0045  0.0433
 1910PEP     CB72720  18.093  22.363   5.810  0.0635  0.1819  0.2742
 1911PEP     CB72721   6.990  11.136   0.178  0.2630  0.1305  0.2585
 1911PEP     CB72722   6.646  10.952   0.095  0.2899 -0.0156 -0.1505
 1911PEP     CB72723   6.191  10.889   0.146  0.1997 -0.2182 -0.2150
 1911PEP     CB72724   5.925  11.280   0.085 -0.3366 -0.1396  0.1073
 1911PEP     CB72725   6.099  11.723   0.261  0.0120  0.2238 -0.5172
 1911PEP     CB72726   6.496  11.584   0.544 -0.0413  0.1640  0.1355
 1911PEP     CB72727   6.927  11.489   0.706 -0.1339 -0.0067  0.2039
 1911PEP     CB72728   7.211  11.620   0.913  0.0066 -0.3209  0.1718
 1911PEP     CB72729   7.440  11.961   1.076  0.2749  0.3108  0.0819
 1911PEP     CB72730   7.723  12.202   0.909  0.1483 -0.0886 -0.1499
 1911PEP     CB72731   7.861  12.393   0.508  0.0252  0.0286  0.3938
 1911PEP     CB72732   7.679  12.617   0.221  0.2604  0.0367 -0.1288
 1911PEP     CB72733   7.722  13.119   0.274  0.3204  0.3894  0.3969
 1911PEP     CB72734   7.648  13.619   0.113  0.1804 -0.3193  0.2144
 1911PEP     CB72735   7.521  13.823  -0.225 -0.1408  0.0647 -0.0628
 1911PEP     CB72736   7.325  13.888  -0.548 -0.0504 -0.2506 -0.2284
 1911PEP     CB72737   7.288  14.268  -0.769 -0.3644 -0.1704  0.0231
 1911PEP     CB72738   7.568  14.645  -0.831  0.1597  0.0282  0.1842
 1911PEP     CB72739   7.586  15.091  -1.065  0.2255  0.0625 -0.1542
 1911PEP     CB72740   7.724  15.407  -1.352 -0.3751 -0.2720 -0.0768
 1911PEP     CB72741   7.554  15.575  -1.677  0.0705  0.2698  0.0024
 1911PEP     CB72742   7.199  15.694  -1.849  0.1142 -0.0283  0.1030
 1911PEP     CB72743   7.007  15.859  -2.278 -0.0095 -0.1258  0.0634
 1911PEP     CB72744   7.052  16.262  -2.442 -0.2331 -0.2622  0.0099
 1911PEP     CB72745   7.145  16.642  -2.502 -0.0678  0.0372  0.2261
 1911PEP     CB72746   7.420  16.936  -2.249 -0.1234 -0.0146  0.0599
 1911PEP     CB72747   7.818  17.176  -2.159  0.0444  0.4611  0.1395
 1911PEP     CB72748   8.192  17.350  -2.329 -0.1889 -0.2386 -0.4506
 1911PEP     CB72749   8.536  17.388  -2.553  0.0138  0.3430  0.1805
 1911PEP     CB72750   9.034  17.610  -2.703  0.1816  0.0107 -0.3462
 1911PEP     CB72751   9.311  17.810  -2.972 -0.0916 -0.1179 -0.2073
 1911PEP     CB72752   9.407  17.827  -3.409  0.2271  0.0794  0.4718
 1911PEP     CB72753   9.618  17.787  -3.782 -0.4249  0.1660 -0.2159
 1911PEP     CB72754   9.777  17.469  -4.042  0.1536  0.0452 -0.0259
 1911PEP     CB72755  10.030  17.610  -4.434 -0.2532 -0.1925 -0.1497
 1911PEP     CB72756  10.169  17.776  -4.802  0.1420 -0.1320 -0.0012
 1911PEP     CB72757  10.093  17.943  -5.183 -0.4049 -0.3555 -0.1338
 1911PEP     CB72758  10.219  17.876  -5.606 -0.2815  0.2112 -0.0396
 1911PEP     CB72759  10.507  17.673  -5.846 -0.1293  0.2153  0.1891
 1911PEP     CB72760  10.812  17.588  -6.180 -0.0297  0.2122  0.0359
 1912PEP     CB72761   1.243  20.619  17.212 -0.3080  0.0650  0.1421
 1912PEP     CB72762   1.612  20.893  17.167 -0.3804 -0.1442  0.1875
 1912PEP     CB72763   1.878  21.137  17.513 -0.4140 -0.0976  0.1202
 1912PEP     CB72764   1.826  21.055  17.909  0.0677  0.0632 -0.2265
 1912PEP     CB72765   1.613  21.213  18.250  0.0660  0.2048 -0.1856
 1912PEP     CB72766   1.639  21.115  18.699  0.1895 -0.0514  0.1644
 1912PEP     CB72767   1.569  20.799  18.902  0.2387 -0.2531  0.0434
 1912PEP     CB72768   1.270  20.692  19.251  0.1715  0.2822 -0.1017
 1912PEP     CB72769   0.893  20.951  19.489  0.5335  0.3141  0.2037
 1912PEP     CB72770   0.514  20.904  19.698  0.3346  0.0013 -0.1524
 1912PEP     CB72771   0.310  20.573  19.813 -0.4276 -0.2604  0.0108
 1912PEP     CB72772   0.013  20.273  19.642  0.0094  0.1629  0.3453
 1912PEP     CB72773  -0.121  20.299  19.271  0.1154 -0.0993  0.0426
 1912PEP     CB72774  -0.099  20.676  19.007  0.2632  0.2253 -0.2104
 1912PEP     CB72775  -0.259  21.152  19.077  0.2319 -0.0471  0.1054
 1912PEP     CB72776  -0.413  21.380  19.371 -0.0817  0.1746  0.1946
 1912PEP     CB72777  -0.736  21.328  19.645 -0.0307 -0.1742  0.0141
 1912PEP     CB72778  -1.186  21.406  19.739  0.0511 -0.1730  0.1733
 1912PEP     CB72779  -1.452  21.612  20.047 -0.0486 -0.2334  0.2388
 1912PEP     CB72780  -1.740  21.406  20.342  0.1887 -0.2770  0.0162
 1912PEP     CB72781  -1.987  21.038  20.382 -0.0483  0.2873  0.3306
 1912PEP     CB72782  -1.820  20.677  20.098 -0.1173 -0.2320  0.2811
 1912PEP     CB72783  -1.331  20.586  19.997  0.1631 -0.2181  0.1986
 1912PEP     CB72784  -0.938  20.744  20.232  0.3898 -0.1256 -0.1145
 1912PEP     CB72785  -0.787  20.873  20.671  0.0753  0.0417 -0.0337
 1912PEP     CB72786  -0.598  21.343  20.759 -0.2024 -0.2269 -0.0209
 1912PEP     CB72787  -0.658  21.668  20.591  0.3680  0.1471 -0.5672
 1912PEP     CB72788  -0.730  21.720  20.140  0.3210  0.0334 -0.1258
 1912PEP     CB72789  -0.919  21.797  19.754  0.1077  0.1588  0.2773
 1912PEP     CB72790  -1.359  21.862  19.461  0.1274 -0.2202 -0.0554
 1912PEP     CB72791  -1.459  22.094  19.173 -0.1566  0.2196  0.0828
 1912PEP     CB72792  -1.447  22.245  18.782  0.2342 -0.0378  0.2967
 1912PEP     CB72793  -1.266  22.707  18.682 -0.2838  0.0467 -0.0335
 1912PEP     CB72794  -1.307  23.159  18.442 -0.0024 -0.1064 -0.1840
 1912PEP     CB72795  -1.023  23.537  18.304  0.1534 -0.0289 -0.0634
 1912PEP     CB72796  -0.860  23.956  18.297  0.0007 -0.3206 -0.2014
 1912PEP     CB72797  -1.046  24.384  18.248 -0.2267  0.1086 -0.0635
 1912PEP     CB72798  -1.048  24.911  18.289 -0.0105  0.1428  0.1398
 1912PEP     CB72799  -1.149  25.215  18.513  0.1263  0.0289 -0.3468
 1912PEP     CB72800  -1.080  25.673  18.717  0.3404  0.0310 -0.0298
 1913PEP     CB72801  12.951  15.611   0.217  0.1448 -0.2503  0.3758
 1913PEP     CB72802  12.646  15.644  -0.170  0.2578  0.2988  0.0602
 1913PEP     CB72803  12.363  15.629  -0.418  0.0167 -0.4795  0.0269
 1913PEP     CB72804  12.370  15.587  -0.884  0.0205  0.2776  0.0792
 1913PEP     CB72805  12.355  15.821  -1.372  0.2668  0.1588  0.1731
 1913PEP     CB72806  12.270  16.043  -1.682 -0.0137  0.0386 -0.2188
 1913PEP     CB72807  12.305  16.351  -1.996 -0.1665 -0.1419 -0.0376
 1913PEP     CB72808  12.735  16.560  -2.267  0.2900 -0.0619  0.2423
 1913PEP     CB72809  13.228  16.394  -2.225 -0.0780 -0.4631 -0.1342
 1913PEP     CB72810  13.386  16.157  -1.913 -0.0602 -0.1738 -0.0657
 1913PEP     CB72811  13.211  16.164  -1.474  0.1604 -0.0663  0.1897
 1913PEP     CB72812  12.754  16.097  -1.320 -0.2049 -0.2229 -0.2846
 1913PEP     CB72813  12.408  16.206  -1.044 -0.1570  0.3643 -0.2759
 1913PEP     CB72814  12.218  16.578  -0.931 -0.0069  0.2670  0.0086
 1913PEP     CB72815  12.208  16.954  -0.581  0.2677 -0.3169 -0.3031
 1913PEP     CB72816  12.067  17.375  -0.674  0.0303 -0.0404 -0.0464
 1913PEP     CB72817  11.837  17.734  -0.698 -0.3205 -0.0775 -0.0541
 1913PEP     CB72818  11.676  18.132  -0.441  0.0315  0.0996  0.3434
 1913PEP     CB72819  11.413  18.453  -0.453 -0.2133 -0.1195  0.0624
 1913PEP     CB72820  11.117  18.619  -0.739 -0.0079 -0.1170  0.2599
 1913PEP     CB72821  10.862  18.635  -1.103  0.1499  0.2595 -0.0296
 1913PEP     CB72822  10.457  18.762  -1.346 -0.3861 -0.1638 -0.0681
 1913PEP     CB72823   9.975  18.724  -1.280  0.2394  0.0362 -0.2463
 1913PEP     CB72824   9.560  18.738  -1.130 -0.3568 -0.1110 -0.0541
 1913PEP     CB72825   9.269  18.408  -1.208  0.2416 -0.0381  0.1832
 1913PEP     CB72826   8.860  18.274  -1.393  0.1526 -0.0875 -0.3356
 1913PEP     CB72827   8.541  18.061  -1.287 -0.0675  0.1564  0.5326
 1913PEP     CB72828   8.501  17.691  -0.880  0.0268 -0.3984 -0.2768
 1913PEP     CB72829   8.883  17.456  -0.790  0.3282 -0.4649  0.2216
 1913PEP     CB72830   9.222  17.272  -0.518 -0.1603  0.0194 -0.1992
 1913PEP     CB72831   9.322  17.323  -0.115 -0.0089  0.1925  0.1014
 1913PEP     CB72832   8.971  17.357   0.254 -0.1334  0.0613  0.1025
 1913PEP     CB72833   8.514  17.427   0.514  0.1347  0.1346  0.4337
 1913PEP     CB72834   8.205  17.452   0.848  0.0437 -0.2181 -0.0907
 1913PEP     CB72835   8.117  17.321   1.218  0.2959 -0.0919 -0.1079
 1913PEP     CB72836   8.389  17.160   1.469 -0.2395 -0.6480 -0.0311
 1913PEP     CB72837   8.689  16.832   1.624 -0.3581  0.2172 -0.2038
 1913PEP     CB72838   8.850  16.629   2.007  0.5182  0.6551  0.2522
 1913PEP     CB72839   9.292  16.452   2.201 -0.2357  0.3147 -0.0701
 1913PEP     CB72840   9.658  16.344   2.054  0.0624  0.1937 -0.3198
 1914PEP     CB72841  20.436  13.040  17.579  0.1521 -0.2267  0.3519
 1914PEP     CB72842  20.165  13.340  17.377  0.6885  0.1998  0.1241
 1914PEP     CB72843  19.810  13.474  17.266  0.0175 -0.2294 -0.1649
 1914PEP     CB72844  19.525  13.779  17.236  0.0834 -0.0270  0.1169
 1914PEP     CB72845  19.452  14.116  17.474  0.0080 -0.0348 -0.0670
 1914PEP     CB72846  19.833  14.338  17.554  0.0119 -0.1183  0.0814
 1914PEP     CB72847  20.112  14.613  17.762 -0.2278 -0.5456 -0.0006
 1914PEP     CB72848  20.434  14.895  17.871 -0.1472  0.3282  0.3937
 1914PEP     CB72849  20.757  14.944  18.162  0.0215 -0.0277  0.2984
 1914PEP     CB72850  20.966  15.136  18.397  0.1826  0.1073 -0.1453
 1914PEP     CB72851  21.292  15.353  18.511 -0.1806  0.6381  0.0803
 1914PEP     CB72852  21.671  15.611  18.681  0.1991  0.2830 -0.1109
 1914PEP     CB72853  22.081  15.537  18.818  0.0147  0.4768  0.0191
 1914PEP     CB72854  22.165  15.143  18.968  0.1603 -0.1440 -0.4080
 1914PEP     CB72855  22.275  14.682  18.870  0.5166  0.0474  0.1733
 1914PEP     CB72856  22.550  14.290  18.736  0.2784 -0.0757 -0.0583
 1914PEP     CB72857  22.381  13.841  18.704  0.3013 -0.4722  0.2533
 1914PEP     CB72858  22.069  13.719  18.444  0.2969 -0.6152 -0.2097
 1914PEP     CB72859  21.719  13.665  18.161 -0.2036  0.1026 -0.3314
 1914PEP     CB72860  21.566  13.483  17.820  0.0228 -0.0133  0.1168
 1914PEP     CB72861  21.344  13.403  17.446 -0.1234 -0.0305 -0.4544
 1914PEP     CB72862  21.237  13.360  17.078 -0.2574 -0.2754  0.1967
 1914PEP     CB72863  21.386  13.011  16.956 -0.3122  0.1974 -0.0342
 1914PEP     CB72864  21.700  12.857  17.299 -0.5410  0.1429 -0.0180
 1914PEP     CB72865  21.885  13.097  17.592  0.1862 -0.5091 -0.2224
 1914PEP     CB72866  22.019  13.464  17.571 -0.1069 -0.0240 -0.2549
 1914PEP     CB72867  21.992  13.650  17.152  0.2746  0.2386 -0.5298
 1914PEP     CB72868  21.829  13.336  16.845 -0.0317  0.0748 -0.1447
 1914PEP     CB72869  21.786  12.885  16.720  0.0721 -0.5088  0.1291
 1914PEP     CB72870  21.828  12.516  16.908  0.0976 -0.1585  0.0351
 1914PEP     CB72871  22.096  12.380  17.248 -0.0635  0.0801  0.4312
 1914PEP     CB72872  22.304  12.686  17.463 -0.0009  0.0212  0.2085
 1914PEP     CB72873  22.326  13.036  17.158 -0.2648 -0.3417 -0.0079
 1914PEP     CB72874  22.322  13.224  16.707  0.0108  0.1817  0.0438
 1914PEP     CB72875  22.458  13.413  16.365 -0.4632 -0.3236  0.3198
 1914PEP     CB72876  22.473  13.631  16.023  0.0516 -0.0488  0.1664
 1914PEP     CB72877  22.388  14.008  15.794 -0.3531 -0.0216  0.2512
 1914PEP     CB72878  22.495  14.271  15.492 -0.1911  0.2235  0.0655
 1914PEP     CB72879  22.702  14.267  15.107  0.2338  0.2357 -0.0218
 1914PEP     CB72880  22.919  14.025  14.810 -0.0005 -0.2920  0.0454
 1915PEP     CB72881   4.722   9.980   3.242  0.2482 -0.1140 -0.1097
 1915PEP     CB72882   4.756  10.059   3.719  0.1858 -0.6151 -0.0906
 1915PEP     CB72883   4.780  10.132   4.151  0.1736 -0.3106  0.1366
 1915PEP     CB72884   4.588  10.450   4.352  0.2719  0.1030  0.5634
 1915PEP     CB72885   4.150  10.480   4.383  0.1173 -0.1765 -0.2282
 1915PEP     CB72886   3.870  10.161   4.257 -0.1471 -0.2876  0.0826
 1915PEP     CB72887   3.766  10.040   3.893 -0.1472  0.2291 -0.3592
 1915PEP     CB72888   4.064  10.028   3.518  0.3461  0.1995  0.2382
 1915PEP     CB72889   4.356   9.645   3.424 -0.0755 -0.1354 -0.1925
 1915PEP     CB72890   4.702   9.357   3.431  0.1639 -0.0388 -0.0607
 1915PEP     CB72891   4.764   8.885   3.378 -0.2435 -0.2844  0.3263
 1915PEP     CB72892   4.429   8.653   3.198 -0.2342 -0.0304  0.1571
 1915PEP     CB72893   4.113   8.744   2.913  0.0249 -0.0195  0.5350
 1915PEP     CB72894   3.962   8.981   2.578  0.1211 -0.1835 -0.3187
 1915PEP     CB72895   3.877   8.844   2.148  0.0707  0.1190  0.3132
 1915PEP     CB72896   3.773   8.766   1.732 -0.0596  0.2507 -0.2194
 1915PEP     CB72897   3.589   8.480   1.398 -0.0489  0.1014 -0.0141
 1915PEP     CB72898   3.606   8.278   1.023  0.2497 -0.1658  0.2429
 1915PEP     CB72899   3.682   7.873   0.941  0.1285 -0.1476 -0.2287
 1915PEP     CB72900   4.028   7.667   1.133 -0.0370  0.1883 -0.2273
 1915PEP     CB72901   4.423   7.606   1.023 -0.2880 -0.2374 -0.2768
 1915PEP     CB72902   4.674   7.484   0.664 -0.0681  0.1570 -0.1866
 1915PEP     CB72903   5.092   7.551   0.408 -0.2253  0.0881  0.0567
 1915PEP     CB72904   5.470   7.777   0.359 -0.4392 -0.1848 -0.2577
 1915PEP     CB72905   5.960   7.629   0.285 -0.0495 -0.1340  0.3027
 1915PEP     CB72906   6.205   7.306   0.317  0.2391  0.1477  0.3433
 1915PEP     CB72907   6.619   7.101   0.453 -0.0299 -0.1850  0.2595
 1915PEP     CB72908   6.909   6.880   0.504 -0.2748 -0.1105 -0.1651
 1915PEP     CB72909   7.263   6.971   0.348 -0.0601  0.1054  0.6353
 1915PEP     CB72910   7.349   7.476   0.227 -0.1146 -0.7057 -0.0033
 1915PEP     CB72911   7.222   7.849   0.199  0.1158  0.1671  0.2985
 1915PEP     CB72912   7.316   8.279   0.126  0.3269  0.5204  0.0033
 1915PEP     CB72913   7.660   8.359   0.050 -0.2143 -0.0447 -0.1041
 1915PEP     CB72914   7.972   8.462  -0.198  0.3572  0.0015 -0.1403
 1915PEP     CB72915   8.347   8.706  -0.358  0.3791  0.1944 -0.0192
 1915PEP     CB72916   8.663   8.924  -0.420 -0.2548  0.0536 -0.1161
 1915PEP     CB72917   9.000   9.013  -0.337 -0.0661  0.0013  0.0288
 1915PEP     CB72918   9.383   9.184  -0.330  0.3040 -0.1241  0.1309
 1915PEP     CB72919   9.777   9.252  -0.054  0.3992  0.1134  0.1459
 1915PEP     CB72920  10.133   9.211   0.194 -0.2633  0.1302 -0.0398
 1916PEP     CB72921  14.270  15.304  20.269 -0.2966 -0.0867 -0.2586
 1916PEP     CB72922  13.971  15.276  20.562 -0.1378 -0.0248  0.0491
 1916PEP     CB72923  13.507  15.249  20.650  0.3265  0.0966 -0.5171
 1916PEP     CB72924  13.111  15.530  20.667 -0.1724  0.1893  0.2080
 1916PEP     CB72925  12.701  15.477  20.794 -0.2991 -0.0389 -0.1080
 1916PEP     CB72926  12.725  15.049  20.956  0.2638 -0.1324 -0.1222
 1916PEP     CB72927  12.946  14.597  20.889  0.0200  0.2660  0.0148
 1916PEP     CB72928  13.176  14.483  20.500 -0.0462  0.0523 -0.2441
 1916PEP     CB72929  13.124  14.511  20.085 -0.1237 -0.1286 -0.4708
 1916PEP     CB72930  12.871  14.206  19.867 -0.1337 -0.3136  0.0033
 1916PEP     CB72931  12.829  13.798  19.572 -0.2769 -0.0020  0.2148
 1916PEP     CB72932  12.980  13.449  19.423  0.0173 -0.4852 -0.1721
 1916PEP     CB72933  13.377  13.311  19.376 -0.0754  0.2535 -0.0326
 1916PEP     CB72934  13.753  13.406  19.522  0.1763 -0.1582  0.1878
 1916PEP     CB72935  14.061  13.305  19.365 -0.0233 -0.0668 -0.2498
 1916PEP     CB72936  14.210  13.218  18.983 -0.0639  0.0664  0.1170
 1916PEP     CB72937  14.512  13.014  18.739  0.1739 -0.0898 -0.0949
 1916PEP     CB72938  14.521  12.575  18.655 -0.2150  0.4589  0.4045
 1916PEP     CB72939  14.263  12.322  18.775 -0.0046 -0.0642  0.4874
 1916PEP     CB72940  13.849  12.338  18.697 -0.0447 -0.1401 -0.0470
 1916PEP     CB72941  13.563  12.504  18.268 -0.1903  0.1271 -0.1596
 1916PEP     CB72942  13.303  12.868  18.103 -0.1812  0.1239  0.1984
 1916PEP     CB72943  13.162  13.262  17.804  0.0240  0.1050  0.0941
 1916PEP     CB72944  13.233  13.526  17.541  0.2840 -0.3550 -0.1525
 1916PEP     CB72945  13.552  13.779  17.294 -0.2460  0.2753 -0.2772
 1916PEP     CB72946  13.990  13.717  17.331  0.0770 -0.0645  0.1925
 1916PEP     CB72947  14.325  13.535  17.586  0.0301  0.2333  0.2759
 1916PEP     CB72948  14.674  13.263  17.601  0.2868  0.1279 -0.1442
 1916PEP     CB72949  14.923  13.117  17.270  0.2630 -0.0823  0.2150
 1916PEP     CB72950  15.348  13.054  17.084  0.1570 -0.4890  0.2810
 1916PEP     CB72951  15.729  12.901  17.072  0.0205  0.2067  0.1553
 1916PEP     CB72952  16.061  12.661  16.864 -0.0164 -0.1137 -0.0057
 1916PEP     CB72953  16.531  12.607  16.814 -0.2930  0.1819 -0.1484
 1916PEP     CB72954  16.951  12.849  16.998  0.3092  0.0093 -0.6340
 1916PEP     CB72955  17.174  12.943  17.340 -0.2069 -0.3710  0.2070
 1916PEP     CB72956  17.274  13.042  17.714 -0.0112  0.3287 -0.1482
 1916PEP     CB72957  17.191  13.447  17.985  0.0473  0.1245 -0.5003
 1916PEP     CB72958  17.399  13.736  18.152 -0.1373 -0.3847  0.2023
 1916PEP     CB72959  17.510  14.176  18.151 -0.1096 -0.0086  0.2106
 1916PEP     CB72960  17.466  14.688  18.147  0.4092 -0.1428  0.2233
 1917PEP     CB72961  11.889   6.970   8.362  0.0828  0.4052 -0.0806
 1917PEP     CB72962  12.138   7.290   8.443  0.0044 -0.1603 -0.4573
 1917PEP     CB72963  12.434   7.479   8.496  0.3851  0.1403 -0.0336
 1917PEP     CB72964  12.744   7.665   8.480  0.0311 -0.2818  0.2195
 1917PEP     CB72965  13.172   7.855   8.326  0.0139  0.5547  0.1197
 1917PEP     CB72966  13.513   8.125   8.120 -0.0237  0.0068 -0.3973
 1917PEP     CB72967  13.889   8.019   7.964  0.0708 -0.2344  0.2673
 1917PEP     CB72968  14.314   8.111   7.870 -0.0934  0.0128 -0.3202
 1917PEP     CB72969  14.569   7.876   7.540 -0.3147 -0.2611  0.3174
 1917PEP     CB72970  14.677   7.450   7.447 -0.3326 -0.2656  0.1762
 1917PEP     CB72971  14.668   6.999   7.319  0.4353  0.0375  0.0772
 1917PEP     CB72972  14.613   6.759   6.975  0.2264  0.1650 -0.0175
 1917PEP     CB72973  14.458   6.461   6.663  0.3089 -0.0416  0.0563
 1917PEP     CB72974  14.341   6.488   6.370  0.1793  0.1406  0.2953
 1917PEP     CB72975  14.086   6.732   6.148  0.0991 -0.0631 -0.1086
 1917PEP     CB72976  13.834   6.694   5.812  0.1427 -0.0135  0.1495
 1917PEP     CB72977  13.412   6.392   5.776  0.1314 -0.2069  0.1034
 1917PEP     CB72978  13.055   6.363   5.553 -0.0403 -0.4450  0.1247
 1917PEP     CB72979  12.758   6.006   5.466  0.0153 -0.1776 -0.0010
 1917PEP     CB72980  12.830   5.539   5.585 -0.2692 -0.0189  0.0833
 1917PEP     CB72981  13.141   5.367   5.892  0.1896 -0.1657 -0.1600
 1917PEP     CB72982  13.341   5.637   6.125  0.0698 -0.2729  0.0241
 1917PEP     CB72983  13.373   6.095   6.257 -0.1918 -0.0652  0.0439
 1917PEP     CB72984  13.672   6.388   6.481 -0.0376  0.2499 -0.0708
 1917PEP     CB72985  13.884   6.717   6.722 -0.2413  0.1547 -0.1306
 1917PEP     CB72986  13.920   7.062   6.484 -0.0765 -0.2733 -0.0899
 1917PEP     CB72987  13.799   7.118   6.043 -0.2262 -0.2349 -0.1924
 1917PEP     CB72988  13.746   7.138   5.645  0.2371 -0.3780 -0.0268
 1917PEP     CB72989  13.707   7.458   5.256 -0.0153 -0.2666  0.0484
 1917PEP     CB72990  13.471   7.701   4.903  0.0787  0.0389  0.2330
 1917PEP     CB72991  13.392   7.675   4.446  0.3197  0.4234  0.1915
 1917PEP     CB72992  13.554   7.680   4.054  0.0195 -0.0413 -0.0701
 1917PEP     CB72993  13.634   7.842   3.686 -0.1974  0.2927  0.1446
 1917PEP     CB72994  13.623   8.213   3.455 -0.0974 -0.1235  0.1734
 1917PEP     CB72995  13.568   8.589   3.251  0.2581 -0.3623  0.2018
 1917PEP     CB72996  13.444   9.105   3.259 -0.2010  0.1802  0.3561
 1917PEP     CB72997  13.309   9.437   3.045 -0.1001 -0.2809 -0.0809
 1917PEP     CB72998  13.081   9.750   2.851  0.0855  0.0319  0.2300
 1917PEP     CB72999  12.891   9.817   2.415  0.0842  0.5232 -0.0390
 1917PEP     CB73000  12.708   9.592   2.026  0.2102  0.0659 -0.2938
 1918PEP     CB73001  10.546  10.796   3.860  0.1282  0.0676 -0.2067
 1918PEP     CB73002  10.978  10.943   3.762  0.5205 -0.1791  0.0134
 1918PEP     CB73003  11.522  10.932   3.672 -0.0979 -0.0238 -0.1611
 1918PEP     CB73004  11.929  10.943   3.493 -0.1934 -0.2555  0.0616
 1918PEP     CB73005  12.389  10.843   3.701  0.4718  0.4767  0.2971
 1918PEP     CB73006  12.712  11.006   3.873 -0.3022 -0.1053  0.2487
 1918PEP     CB73007  12.798  11.540   3.861 -0.1696 -0.0131  0.3313
 1918PEP     CB73008  12.635  11.903   3.889 -0.3861 -0.3890  0.0778
 1918PEP     CB73009  12.228  12.149   4.019 -0.1603 -0.0136  0.0560
 1918PEP     CB73010  11.781  12.159   4.180  0.1115  0.1048  0.2168
 1918PEP     CB73011  11.377  12.247   4.419  0.1518 -0.0337 -0.1208
 1918PEP     CB73012  11.101  12.140   4.737 -0.1865 -0.2221 -0.0616
 1918PEP     CB73013  11.159  12.003   5.237 -0.0450 -0.0246 -0.4078
 1918PEP     CB73014  11.557  12.174   5.535  0.1768  0.0809 -0.3217
 1918PEP     CB73015  11.981  12.347   5.450 -0.0339 -0.0500 -0.3568
 1918PEP     CB73016  12.023  12.667   5.151 -0.0001  0.1204  0.2157
 1918PEP     CB73017  11.765  12.798   4.855 -0.0033  0.2201 -0.4772
 1918PEP     CB73018  11.432  12.709   4.652  0.2877 -0.3495 -0.2052
 1918PEP     CB73019  11.048  12.658   4.497  0.3626  0.1032  0.2011
 1918PEP     CB73020  10.763  12.899   4.211  0.0306 -0.1585  0.0942
 1918PEP     CB73021  10.905  13.107   3.795  0.1716 -0.0492 -0.2381
 1918PEP     CB73022  11.290  13.228   3.616 -0.0976  0.0493 -0.1700
 1918PEP     CB73023  11.649  13.529   3.498  0.1820 -0.0207 -0.2848
 1918PEP     CB73024  11.943  13.826   3.616  0.2311 -0.3752  0.3549
 1918PEP     CB73025  12.097  14.157   3.939  0.2150 -0.1500  0.0795
 1918PEP     CB73026  12.096  14.301   4.347  0.0040 -0.2338 -0.2124
 1918PEP     CB73027  11.944  14.561   4.644  0.0476 -0.2643  0.1864
 1918PEP     CB73028  11.948  14.878   4.962  0.1060 -0.2057 -0.1427
 1918PEP     CB73029  11.875  15.323   4.909 -0.0626 -0.2900  0.0446
 1918PEP     CB73030  11.619  15.506   4.672  0.2825  0.1669 -0.1566
 1918PEP     CB73031  11.185  15.496   4.523  0.1307 -0.3067 -0.3608
 1918PEP     CB73032  10.851  15.886   4.329  0.3228 -0.1129 -0.0828
 1918PEP     CB73033  10.610  15.997   4.004 -0.2962 -0.2154 -0.1643
 1918PEP     CB73034  10.751  15.826   3.588 -0.1740  0.1874  0.1483
 1918PEP     CB73035  11.116  15.602   3.456  0.1386  0.0239 -0.3849
 1918PEP     CB73036  11.112  15.075   3.570  0.1021 -0.1295 -0.2923
 1918PEP     CB73037  10.703  14.831   3.515  0.1945  0.0274  0.1675
 1918PEP     CB73038  10.294  14.970   3.550  0.1093 -0.1700 -0.1759
 1918PEP     CB73039  10.024  15.307   3.579 -0.5916  0.5128 -0.0585
 1918PEP     CB73040   9.553  15.319   3.724 -0.0346  0.0123  0.1764
 1919PEP     CB73041  21.502   1.374  18.467 -0.0248  0.0070 -0.2650
 1919PEP     CB73042  21.583   1.753  18.658 -0.3856  0.3011  0.1287
 1919PEP     CB73043  21.632   2.084  19.033  0.1853  0.1328 -0.2031
 1919PEP     CB73044  21.594   2.133  19.442 -0.3961 -0.2113  0.1788
 1919PEP     CB73045  21.762   2.264  19.808  0.3318 -0.0178  0.2757
 1919PEP     CB73046  22.099   2.010  20.098  0.2802  0.5448  0.2082
 1919PEP     CB73047  22.248   1.680  19.984  0.1421 -0.0068  0.0747
 1919PEP     CB73048  22.292   1.526  19.639 -0.0926 -0.3574  0.0028
 1919PEP     CB73049  21.939   1.243  19.468 -0.0329 -0.0476  0.2673
 1919PEP     CB73050  21.586   1.084  19.619 -0.0720 -0.4073 -0.4037
 1919PEP     CB73051  21.296   1.306  19.935  0.3193 -0.0842  0.1088
 1919PEP     CB73052  21.206   1.622  20.212 -0.0475 -0.3283 -0.2602
 1919PEP     CB73053  21.010   1.895  20.439  0.2377  0.0204  0.1323
 1919PEP     CB73054  21.078   2.393  20.448 -0.0504 -0.3833 -0.3825
 1919PEP     CB73055  21.373   2.607  20.313 -0.1193 -0.0039 -0.0583
 1919PEP     CB73056  21.831   2.528  20.213  0.0218 -0.0234  0.1764
 1919PEP     CB73057  22.299   2.634  20.375  0.2074 -0.2399  0.1202
 1919PEP     CB73058  22.756   2.888  20.310 -0.2623  0.2112  0.0266
 1919PEP     CB73059  23.016   3.227  20.512 -0.0709 -0.1411  0.2277
 1919PEP     CB73060  22.999   3.657  20.717 -0.0337 -0.0158 -0.1713
 1919PEP     CB73061  22.771   4.037  20.655 -0.2826 -0.1614  0.0217
 1919PEP     CB73062  22.312   4.228  20.497  0.0909 -0.0525 -0.4941
 1919PEP     CB73063  21.883   4.203  20.584 -0.3644  0.3677 -0.4041
 1919PEP     CB73064  21.620   4.462  20.859  0.2328  0.0516 -0.1223
 1919PEP     CB73065  21.329   4.691  20.892 -0.1609 -0.0534  0.1834
 1919PEP     CB73066  20.993   4.889  21.068 -0.0014  0.3255 -0.1473
 1919PEP     CB73067  20.734   5.156  21.200 -0.0547 -0.0336 -0.1462
 1919PEP     CB73068  20.470   5.438  21.166 -0.3044  0.0227  0.4272
 1919PEP     CB73069  19.998   5.648  21.013  0.0539 -0.0567  0.1187
 1919PEP     CB73070  19.747   5.612  20.628 -0.1470  0.0586  0.1002
 1919PEP     CB73071  19.392   5.368  20.484 -0.0083 -0.2187  0.1777
 1919PEP     CB73072  19.057   5.125  20.327 -0.2520 -0.2985 -0.1001
 1919PEP     CB73073  18.573   5.232  20.241  0.2564  0.0762 -0.1759
 1919PEP     CB73074  18.133   5.184  20.432  0.0781  0.0188 -0.1892
 1919PEP     CB73075  18.010   5.293  20.725  0.3268 -0.2058 -0.1887
 1919PEP     CB73076  17.970   5.184  21.168  0.3547  0.3969 -0.0807
 1919PEP     CB73077  17.842   4.789  21.399  0.3399  0.1825  0.0231
 1919PEP     CB73078  17.439   4.766  21.624 -0.1795  0.3199  0.0179
 1919PEP     CB73079  16.985   4.995  21.580  0.1079 -0.0938 -0.0662
 1919PEP     CB73080  16.574   5.084  21.307 -0.0964  0.0950 -0.6216
 1920PEP     CB73081  21.629   4.821  21.309 -0.1110  0.0851 -0.0206
 1920PEP     CB73082  21.400   4.521  21.362  0.1439  0.2098 -0.0507
 1920PEP     CB73083  21.140   4.120  21.162 -0.0080  0.1785  0.2371
 1920PEP     CB73084  21.011   3.815  20.912 -0.2720 -0.3184 -0.0419
 1920PEP     CB73085  20.728   3.686  20.545 -0.1921  0.1306  0.0697
 1920PEP     CB73086  20.771   3.307  20.208 -0.0965 -0.0895 -0.2918
 1920PEP     CB73087  20.501   3.404  19.983 -0.1627 -0.1288 -0.0209
 1920PEP     CB73088  20.642   3.709  19.705 -0.1609  0.5840 -0.0774
 1920PEP     CB73089  20.824   4.050  19.377  0.0729 -0.0495  0.0679
 1920PEP     CB73090  21.139   4.158  19.167  0.1483  0.0822 -0.0776
 1920PEP     CB73091  21.403   4.544  19.163 -0.5645 -0.0735  0.2732
 1920PEP     CB73092  21.783   4.773  19.274 -0.0680  0.2575 -0.0570
 1920PEP     CB73093  22.146   4.669  19.517  0.0731  0.0623 -0.0538
 1920PEP     CB73094  22.553   4.570  19.694 -0.0903 -0.0483 -0.2008
 1920PEP     CB73095  22.839   4.219  19.737  0.2495  0.1090  0.4949
 1920PEP     CB73096  23.160   3.854  19.749 -0.0278  0.3569 -0.1644
 1920PEP     CB73097  23.154   3.492  19.906  0.3449 -0.2055 -0.3794
 1920PEP     CB73098  23.205   3.065  19.936  0.1737  0.0008 -0.4101
 1920PEP     CB73099  23.215   2.758  20.250  0.2180  0.1041 -0.3574
 1920PEP     CB73100  22.968   2.602  20.639  0.2562 -0.0307  0.1239
 1920PEP     CB73101  23.100   2.466  21.064 -0.1476 -0.2997  0.2787
 1920PEP     CB73102  23.442   2.705  21.289  0.1910  0.4097 -0.4429
 1920PEP     CB73103  23.406   3.222  21.224 -0.0973 -0.1361  0.2239
 1920PEP     CB73104  22.919   3.471  21.150  0.0249 -0.0422  0.0309
 1920PEP     CB73105  22.570   3.257  20.845  0.3013  0.3733  0.0787
 1920PEP     CB73106  22.265   3.008  21.013  0.2865  0.0357  0.0433
 1920PEP     CB73107  22.328   2.670  21.347 -0.1280  0.3159  0.3077
 1920PEP     CB73108  22.490   2.648  21.775 -0.1441  0.2616  0.2138
 1920PEP     CB73109  22.286   2.375  22.228 -0.0892  0.1723  0.3075
 1920PEP     CB73110  21.980   2.136  22.349 -0.1772  0.1253 -0.1764
 1920PEP     CB73111  21.709   1.925  22.241 -0.3490  0.3185 -0.4064
 1920PEP     CB73112  21.450   1.618  22.100  0.2393  0.0116 -0.2449
 1920PEP     CB73113  21.144   1.630  21.823  0.4945  0.1194 -0.1140
 1920PEP     CB73114  20.725   1.478  21.774 -0.0952 -0.3777  0.0411
 1920PEP     CB73115  20.286   1.559  21.890  0.0149  0.2114 -0.5098
 1920PEP     CB73116  19.832   1.496  21.990 -0.1041  0.4553  0.0177
 1920PEP     CB73117  19.639   1.738  22.253  0.0010 -0.3640  0.0727
 1920PEP     CB73118  19.672   2.092  22.449  0.1363  0.0065 -0.1271
 1920PEP     CB73119  19.651   2.244  22.781  0.4434 -0.0134  0.0767
 1920PEP     CB73120  19.786   2.392  23.160 -0.3801 -0.0992 -0.2120
 1921PEP     CB73121   0.991   1.940  21.535  0.4556 -0.3945  0.5295
 1921PEP     CB73122   1.322   2.253  21.581  0.3533  0.0374  0.1387
 1921PEP     CB73123   1.697   2.334  21.229  0.1394 -0.1008 -0.1595
 1921PEP     CB73124   1.829   2.469  20.879 -0.1064  0.2341 -0.0589
 1921PEP     CB73125   2.264   2.395  20.715 -0.2432  0.0511 -0.1902
 1921PEP     CB73126   2.702   2.274  20.922 -0.1380  0.0466  0.0375
 1921PEP     CB73127   2.981   1.958  20.745  0.0382  0.0139  0.0358
 1921PEP     CB73128   3.137   1.983  20.262 -0.0645  0.3427 -0.2354
 1921PEP     CB73129   2.866   2.201  19.961  0.1589 -0.1693  0.0378
 1921PEP     CB73130   2.483   2.451  20.031 -0.0444 -0.1998 -0.2488
 1921PEP     CB73131   2.244   2.684  20.329  0.2687 -0.0692  0.1694
 1921PEP     CB73132   2.110   2.979  20.489  0.1064 -0.1763  0.1619
 1921PEP     CB73133   2.077   3.341  20.582  0.2967 -0.0013  0.0297
 1921PEP     CB73134   1.986   3.788  20.437  0.0312 -0.2652  0.5255
 1921PEP     CB73135   2.110   4.145  20.181 -0.2830  0.1350 -0.0053
 1921PEP     CB73136   2.326   4.507  20.298 -0.0660  0.2402 -0.0643
 1921PEP     CB73137   2.544   4.723  20.378 -0.1801  0.1778 -0.2287
 1921PEP     CB73138   2.889   4.797  20.709  0.3204 -0.0231  0.1361
 1921PEP     CB73139   3.210   4.973  21.042 -0.0709 -0.0616  0.0975
 1921PEP     CB73140   3.264   5.220  21.473 -0.2876  0.1087  0.0239
 1921PEP     CB73141   3.388   5.497  21.767  0.1655  0.0195  0.4301
 1921PEP     CB73142   3.607   5.804  22.065  0.1784  0.3051 -0.1552
 1921PEP     CB73143   3.693   5.885  22.569  0.3228  0.0851  0.2936
 1921PEP     CB73144   3.700   5.905  23.086  0.1440 -0.2011 -0.4111
 1921PEP     CB73145   3.503   6.074  23.525  0.4391  0.2352 -0.0589
 1921PEP     CB73146   3.163   6.350  23.610 -0.0145  0.1908 -0.0568
 1921PEP     CB73147   3.185   6.804  23.430 -0.4093 -0.2969 -0.3794
 1921PEP     CB73148   3.531   6.932  23.142 -0.4227 -0.0102  0.3209
 1921PEP     CB73149   3.960   6.774  22.924 -0.4923 -0.4717 -0.0531
 1921PEP     CB73150   4.323   6.808  22.571  0.1588 -0.0310  0.3439
 1921PEP     CB73151   4.200   6.570  22.192 -0.3685  0.1974  0.2188
 1921PEP     CB73152   3.897   6.692  21.869 -0.1749 -0.0001 -0.2707
 1921PEP     CB73153   3.679   7.022  21.817  0.0310  0.0174  0.1497
 1921PEP     CB73154   3.493   7.466  21.822  0.2220 -0.2553  0.1538
 1921PEP     CB73155   3.452   7.927  21.922  0.2998 -0.0586  0.2312
 1921PEP     CB73156   3.540   8.285  21.791  0.2134 -0.1003 -0.3042
 1921PEP     CB73157   3.799   8.689  21.692  0.1294 -0.2091 -0.0824
 1921PEP     CB73158   4.154   8.848  21.577  0.1577  0.3828 -0.2076
 1921PEP     CB73159   4.361   9.150  21.670  0.1419 -0.0844  0.3053
 1921PEP     CB73160   4.496   9.421  21.932  0.0780 -0.0313 -0.2435
 1922PEP     CB73161  19.361  13.334   3.367  0.1137 -0.3729 -0.0306
 1922PEP     CB73162  19.055  13.066   3.570  0.0729  0.1837 -0.0506
 1922PEP     CB73163  18.584  12.812   3.739  0.0558  0.0628  0.0951
 1922PEP     CB73164  18.288  12.490   3.558  0.2369  0.0880 -0.0206
 1922PEP     CB73165  18.366  12.106   3.279 -0.0734  0.1688  0.1021
 1922PEP     CB73166  18.130  11.765   3.077 -0.3149 -0.0829  0.0080
 1922PEP     CB73167  18.413  11.465   2.812  0.2478  0.2112  0.3449
 1922PEP     CB73168  18.822  11.482   2.786 -0.0293 -0.0471  0.1034
 1922PEP     CB73169  19.286  11.614   2.852 -0.0167 -0.1296 -0.2146
 1922PEP     CB73170  19.627  11.556   2.763  0.1388 -0.1064 -0.3514
 1922PEP     CB73171  19.756  11.280   2.499 -0.0886  0.0912  0.3020
 1922PEP     CB73172  19.708  10.909   2.318 -0.2130  0.1601 -0.4909
 1922PEP     CB73173  19.549  10.560   2.191 -0.0862 -0.1496  0.3259
 1922PEP     CB73174  19.179  10.323   2.187  0.0236  0.0266  0.0181
 1922PEP     CB73175  19.124   9.920   1.984 -0.2107 -0.2464 -0.3904
 1922PEP     CB73176  19.229   9.775   1.560 -0.1203  0.1513 -0.0492
 1922PEP     CB73177  19.645   9.716   1.363  0.0201 -0.0530 -0.1643
 1922PEP     CB73178  20.083   9.776   1.617 -0.0427 -0.2375  0.0171
 1922PEP     CB73179  20.280   9.946   2.035 -0.1008  0.1094 -0.2880
 1922PEP     CB73180  20.236  10.136   2.370  0.2939 -0.0001 -0.1176
 1922PEP     CB73181  20.110  10.622   2.444 -0.0127 -0.0997 -0.0384
 1922PEP     CB73182  20.322  10.960   2.209  0.2344 -0.1527  0.1754
 1922PEP     CB73183  20.619  11.096   1.843 -0.1018  0.0132  0.3350
 1922PEP     CB73184  20.702  10.902   1.437 -0.2405  0.3840 -0.4522
 1922PEP     CB73185  20.847  10.761   1.054  0.2543  0.3015 -0.5496
 1922PEP     CB73186  21.166  10.578   0.975 -0.1183  0.1525 -0.1234
 1922PEP     CB73187  21.402  10.412   1.365  0.0883  0.2222  0.2149
 1922PEP     CB73188  21.631  10.126   1.508 -0.1150 -0.0257 -0.1799
 1922PEP     CB73189  21.798   9.676   1.573 -0.1763 -0.5093 -0.2228
 1922PEP     CB73190  22.160   9.470   1.594  0.0628 -0.2121  0.2445
 1922PEP     CB73191  22.573   9.570   1.691 -0.5044 -0.3480 -0.0361
 1922PEP     CB73192  22.860   9.387   1.958 -0.0030  0.2016  0.5539
 1922PEP     CB73193  22.993   9.340   2.291  0.0572  0.2064  0.2576
 1922PEP     CB73194  23.137   9.370   2.679  0.0983 -0.3231  0.1652
 1922PEP     CB73195  23.192   9.348   3.134  0.0396 -0.0282  0.3378
 1922PEP     CB73196  23.538   9.669   3.381  0.0736  0.3507  0.3216
 1922PEP     CB73197  23.643  10.042   3.128 -0.3774 -0.3507  0.0642
 1922PEP     CB73198  23.944  10.016   2.865  0.0772 -0.3612 -0.2712
 1922PEP     CB73199  24.180   9.724   2.760  0.2002  0.0035 -0.4495
 1922PEP     CB73200  24.132   9.163   2.856  0.0083 -0.0192 -0.0044
 1923PEP     CB73201   6.472  13.695  19.405 -0.3789  0.4109 -0.1855
 1923PEP     CB73202   6.534  13.243  19.268  0.0382  0.2190  0.4603
 1923PEP     CB73203   6.272  12.830  19.141  0.1885  0.1692 -0.1328
 1923PEP     CB73204   5.994  12.411  19.041  0.0508 -0.0745 -0.2433
 1923PEP     CB73205   6.088  12.008  18.981 -0.0053  0.0216  0.0559
 1923PEP     CB73206   6.263  11.677  19.102 -0.1176  0.2046  0.2244
 1923PEP     CB73207   6.387  11.371  19.359  0.0705  0.1718 -0.3713
 1923PEP     CB73208   6.602  11.113  19.754  0.1547  0.4114  0.1596
 1923PEP     CB73209   6.961  10.895  19.953 -0.2933  0.3356  0.3073
 1923PEP     CB73210   7.372  10.858  19.925  0.1459  0.0144  0.2469
 1923PEP     CB73211   7.593  11.193  19.993 -0.0092  0.3655 -0.1028
 1923PEP     CB73212   7.496  11.498  19.821  0.0214  0.0437 -0.0970
 1923PEP     CB73213   7.433  11.738  19.395  0.3008 -0.1309 -0.1274
 1923PEP     CB73214   7.295  11.974  19.038 -0.0469  0.1917  0.2279
 1923PEP     CB73215   7.459  12.212  18.638 -0.2674  0.3035 -0.0423
 1923PEP     CB73216   7.748  12.281  18.344 -0.2542  0.2337  0.0782
 1923PEP     CB73217   8.149  12.098  18.188  0.0167 -0.1808  0.0714
 1923PEP     CB73218   8.496  11.892  18.287  0.2861 -0.0042  0.0756
 1923PEP     CB73219   8.766  11.635  18.052  0.4656 -0.5659  0.2173
 1923PEP     CB73220   8.660  11.388  17.659 -0.0236  0.0719 -0.1042
 1923PEP     CB73221   8.459  11.021  17.414 -0.0716  0.1427  0.2679
 1923PEP     CB73222   8.161  10.896  17.110 -0.0050 -0.1161  0.0775
 1923PEP     CB73223   7.706  10.876  17.152  0.0930  0.1327 -0.0027
 1923PEP     CB73224   7.486  10.579  17.415 -0.1565 -0.5084 -0.0388
 1923PEP     CB73225   7.460  10.131  17.540  0.0192 -0.0389  0.1074
 1923PEP     CB73226   7.674   9.852  17.277  0.0278 -0.0811  0.1257
 1923PEP     CB73227   7.787   9.898  16.797  0.0232  0.1138  0.5108
 1923PEP     CB73228   7.797  10.253  16.424  0.3018 -0.2277 -0.2142
 1923PEP     CB73229   7.828  10.710  16.168  0.2045  0.3876  0.2505
 1923PEP     CB73230   8.133  10.971  15.964  0.3986  0.0363  0.1054
 1923PEP     CB73231   8.463  10.986  15.877 -0.3536  0.1698 -0.2882
 1923PEP     CB73232   8.712  10.908  15.526  0.0302 -0.3277  0.2763
 1923PEP     CB73233   8.645  10.420  15.400 -0.0419  0.4443  0.0455
 1923PEP     CB73234   8.740  10.068  15.662  0.2071  0.4081 -0.0198
 1923PEP     CB73235   8.640   9.939  16.171  0.1745  0.0653 -0.1271
 1923PEP     CB73236   8.572  10.179  16.449  0.2567 -0.0192 -0.2831
 1923PEP     CB73237   8.454  10.507  16.723  0.0528 -0.3805  0.1762
 1923PEP     CB73238   8.739  10.831  16.818 -0.0694 -0.0624 -0.0261
 1923PEP     CB73239   9.163  10.874  16.671 -0.0173 -0.4804 -0.1416
 1923PEP     CB73240   9.618  10.990  16.639  0.2828 -0.4145  0.3119
 1924PEP     CB73241   1.817   6.288  20.823  0.0179  0.0817  0.0454
 1924PEP     CB73242   1.717   5.853  20.501 -0.3196  0.0392 -0.2432
 1924PEP     CB73243   1.786   5.600  20.116 -0.1513 -0.0365  0.2919
 1924PEP     CB73244   1.864   5.243  19.842  0.3289 -0.0525 -0.1531
 1924PEP     CB73245   2.285   5.124  19.617  0.4326  0.0413 -0.3457
 1924PEP     CB73246   2.630   5.261  19.349  0.0263 -0.4917 -0.2169
 1924PEP     CB73247   2.735   5.130  18.928  0.0425 -0.3300  0.0258
 1924PEP     CB73248   2.496   5.048  18.622 -0.0307  0.2599  0.1144
 1924PEP     CB73249   2.225   4.743  18.553 -0.2206 -0.0037 -0.0786
 1924PEP     CB73250   2.299   4.272  18.601  0.1695  0.0675 -0.4454
 1924PEP     CB73251   2.732   4.069  18.618 -0.0296 -0.0891 -0.0640
 1924PEP     CB73252   3.094   4.134  18.435  0.0190 -0.2324  0.0380
 1924PEP     CB73253   3.311   4.120  18.137  0.1367 -0.2453 -0.1091
 1924PEP     CB73254   3.575   3.863  17.806  0.0734  0.2065 -0.4066
 1924PEP     CB73255   3.887   3.902  17.424  0.0308 -0.2153 -0.0286
 1924PEP     CB73256   4.146   4.302  17.258 -0.1582 -0.1544  0.1071
 1924PEP     CB73257   4.372   4.688  17.121 -0.1956 -0.0858 -0.1666
 1924PEP     CB73258   4.771   4.695  16.743 -0.0254 -0.3217 -0.0152
 1924PEP     CB73259   4.998   4.510  16.378  0.0058 -0.3088  0.2096
 1924PEP     CB73260   5.223   4.214  16.063  0.1060 -0.0349 -0.1620
 1924PEP     CB73261   5.274   3.902  15.765  0.0282 -0.3224  0.3306
 1924PEP     CB73262   5.253   3.971  15.301 -0.1799 -0.1304  0.1846
 1924PEP     CB73263   5.483   4.120  14.994  0.2222  0.1178  0.0972
 1924PEP     CB73264   5.669   4.324  14.595 -0.2978  0.0261 -0.2110
 1924PEP     CB73265   5.767   4.368  14.151  0.2535 -0.3469 -0.1940
 1924PEP     CB73266   5.912   4.296  13.762 -0.2283  0.3597  0.4216
 1924PEP     CB73267   6.132   4.041  13.450  0.0119  0.1741 -0.1314
 1924PEP     CB73268   6.347   3.678  13.173  0.0904 -0.0204 -0.3874
 1924PEP     CB73269   6.483   3.160  13.169 -0.2067 -0.1381 -0.2604
 1924PEP     CB73270   6.382   2.751  13.189  0.0356  0.2651  0.1254
 1924PEP     CB73271   6.579   2.380  12.964  0.2710  0.1927  0.1388
 1924PEP     CB73272   6.711   2.001  12.754  0.5424  0.2359 -0.0013
 1924PEP     CB73273   6.862   1.538  12.713  0.1771  0.1686  0.2129
 1924PEP     CB73274   6.872   1.225  12.403  0.0079  0.0073 -0.0790
 1924PEP     CB73275   6.474   1.059  12.099  0.2166  0.0291 -0.1572
 1924PEP     CB73276   6.212   0.846  11.764 -0.0309 -0.1740  0.4345
 1924PEP     CB73277   5.850   0.803  11.536 -0.1342  0.3365  0.1277
 1924PEP     CB73278   5.413   0.824  11.454  0.2263 -0.1889  0.1361
 1924PEP     CB73279   5.116   0.456  11.333 -0.0933  0.3525 -0.0253
 1924PEP     CB73280   4.777   0.279  11.145 -0.0908 -0.1085  0.5604
 1925PEP     CB73281  10.548  10.782   7.602  0.0157  0.0038 -0.3709
 1925PEP     CB73282  11.004  10.873   7.428  0.5829 -0.0090  0.1765
 1925PEP     CB73283  11.377  11.022   7.360 -0.5908  0.0123 -0.1721
 1925PEP     CB73284  11.650  11.455   7.633 -0.2402  0.5060  0.1837
 1925PEP     CB73285  11.794  11.905   7.750  0.2898 -0.5062  0.0831
 1925PEP     CB73286  12.236  12.228   7.690 -0.2671 -0.0920  0.0030
 1925PEP     CB73287  12.658  12.268   7.418 -0.5643  0.0165 -0.2009
 1925PEP     CB73288  13.023  12.267   7.287  0.0393 -0.1330  0.3649
 1925PEP     CB73289  13.305  12.101   7.065  0.2942 -0.1254  0.0892
 1925PEP     CB73290  13.379  11.655   6.922 -0.1440 -0.1809  0.1489
 1925PEP     CB73291  13.488  11.295   6.847  0.2779 -0.0078 -0.1425
 1925PEP     CB73292  13.677  10.849   6.844  0.1933 -0.0489  0.1136
 1925PEP     CB73293  13.805  10.454   6.934 -0.4228 -0.0614  0.0981
 1925PEP     CB73294  13.976  10.203   6.656  0.0633 -0.2613  0.3380
 1925PEP     CB73295  14.036  10.360   6.294  0.2480 -0.1667  0.0333
 1925PEP     CB73296  13.707  10.554   6.025 -0.0828  0.5903 -0.0924
 1925PEP     CB73297  13.750  10.856   5.674 -0.0386  0.0553  0.1300
 1925PEP     CB73298  14.154  10.963   5.472  0.2871  0.0768  0.3024
 1925PEP     CB73299  14.473  10.666   5.285  0.2614  0.1186 -0.4532
 1925PEP     CB73300  14.459  10.292   5.416 -0.3308 -0.3836 -0.2397
 1925PEP     CB73301  14.262   9.919   5.339  0.0780 -0.2318  0.0798
 1925PEP     CB73302  14.014   9.597   5.151  0.2139 -0.2799 -0.0599
 1925PEP     CB73303  13.896   9.117   5.195  0.0563 -0.0654 -0.3772
 1925PEP     CB73304  13.806   8.912   5.715 -0.1729 -0.0451  0.0588
 1925PEP     CB73305  13.705   9.152   6.117  0.0180  0.1966 -0.2117
 1925PEP     CB73306  13.912   9.449   6.398 -0.6036  0.3971  0.4492
 1925PEP     CB73307  14.376   9.581   6.352  0.1023 -0.1476 -0.0353
 1925PEP     CB73308  14.669   9.322   6.099  0.1474 -0.1025  0.1715
 1925PEP     CB73309  14.440   8.993   5.961 -0.1413 -0.2088  0.1372
 1925PEP     CB73310  14.126   8.854   6.180 -0.0646  0.2788  0.2202
 1925PEP     CB73311  13.772   8.644   6.303  0.0448 -0.1253 -0.2087
 1925PEP     CB73312  13.379   8.676   6.637 -0.1758 -0.1290  0.0452
 1925PEP     CB73313  13.266   8.740   7.087 -0.2122 -0.2510  0.0934
 1925PEP     CB73314  13.038   8.871   7.475 -0.2352  0.2916  0.0519
 1925PEP     CB73315  12.735   8.564   7.611 -0.3669  0.2643  0.3342
 1925PEP     CB73316  12.546   8.164   7.550 -0.0243  0.0760  0.1944
 1925PEP     CB73317  12.160   8.016   7.301  0.4475 -0.2476 -0.0135
 1925PEP     CB73318  11.884   7.727   7.076 -0.0823 -0.8424  0.1651
 1925PEP     CB73319  11.423   7.620   6.925  0.1767 -0.5699  0.0502
 1925PEP     CB73320  11.089   7.599   6.605 -0.0559  0.3402  0.0520
 1926PEP     CB73321   8.814   2.565  10.958  0.0281  0.4919  0.3695
 1926PEP     CB73322   9.181   2.674  10.568  0.1178  0.3738 -0.1866
 1926PEP     CB73323   9.501   2.859  10.300 -0.4428  0.2080 -0.1382
 1926PEP     CB73324   9.916   2.929  10.360  0.0056  0.2579 -0.0882
 1926PEP     CB73325  10.230   2.995  10.676 -0.1538  0.0003 -0.2281
 1926PEP     CB73326  10.319   3.066  11.093 -0.1538  0.1828 -0.0818
 1926PEP     CB73327  10.173   3.341  11.347 -0.1241  0.0954  0.0387
 1926PEP     CB73328   9.820   3.521  11.475 -0.0468  0.5044 -0.4413
 1926PEP     CB73329   9.421   3.734  11.236  0.6250 -0.1735 -0.1597
 1926PEP     CB73330   9.312   4.058  11.002  0.0044  0.0246  0.0924
 1926PEP     CB73331   9.457   4.430  10.856 -0.1225 -0.1917  0.4504
 1926PEP     CB73332   9.637   4.606  10.503 -0.0592  0.1543 -0.2032
 1926PEP     CB73333   9.354   4.546  10.151 -0.0217  0.2783  0.0618
 1926PEP     CB73334   8.941   4.532  10.200  0.2537  0.2654 -0.0375
 1926PEP     CB73335   8.630   4.397  10.450  0.1305 -0.0414  0.0941
 1926PEP     CB73336   8.439   4.031  10.695 -0.0738 -0.1371  0.3718
 1926PEP     CB73337   8.275   3.612  10.605 -0.0702 -0.0201  0.2433
 1926PEP     CB73338   7.942   3.507  10.303 -0.2158  0.2402  0.0883
 1926PEP     CB73339   7.552   3.375  10.103  0.0000 -0.4650  0.4850
 1926PEP     CB73340   7.493   3.162   9.849  0.0893 -0.0993  0.1972
 1926PEP     CB73341   7.316   2.956   9.497  0.1091 -0.0287  0.1630
 1926PEP     CB73342   7.313   3.018   9.120  0.0977  0.2892  0.1806
 1926PEP     CB73343   7.083   3.221   8.808  0.2935 -0.2225  0.0997
 1926PEP     CB73344   6.674   3.173   8.474 -0.5979 -0.2432 -0.0701
 1926PEP     CB73345   6.485   3.008   8.106 -0.0538 -0.0395  0.0449
 1926PEP     CB73346   6.112   2.970   7.883 -0.0619 -0.0414 -0.1880
 1926PEP     CB73347   5.669   3.033   7.815 -0.3680  0.1470 -0.1746
 1926PEP     CB73348   5.329   3.213   7.801  0.0860 -0.0484 -0.0494
 1926PEP     CB73349   4.920   3.282   8.073 -0.0375 -0.2245 -0.1117
 1926PEP     CB73350   4.626   3.650   8.097  0.3259  0.1830  0.1803
 1926PEP     CB73351   4.508   4.140   8.120 -0.4471 -0.1039  0.0478
 1926PEP     CB73352   4.517   4.422   7.762 -0.1938  0.2608  0.4543
 1926PEP     CB73353   4.299   4.426   7.368  0.1041 -0.0286  0.2150
 1926PEP     CB73354   4.072   4.073   7.125 -0.0887 -0.0989 -0.1199
 1926PEP     CB73355   4.063   3.722   7.029  0.1709 -0.0443  0.7693
 1926PEP     CB73356   4.012   3.451   6.619  0.3118  0.3525  0.1946
 1926PEP     CB73357   3.701   3.147   6.447  0.0921  0.2093  0.3849
 1926PEP     CB73358   3.307   2.990   6.628 -0.2129 -0.2171 -0.1928
 1926PEP     CB73359   3.255   2.771   7.062 -0.1661  0.0057  0.2248
 1926PEP     CB73360   3.599   2.644   7.384  0.0958  0.0190  0.0394
 1927PEP     CB73361  10.900   4.500   4.663 -0.0891 -0.0953 -0.0972
 1927PEP     CB73362  11.021   4.046   4.523  0.0327 -0.2183  0.0632
 1927PEP     CB73363  11.267   3.712   4.404  0.4466 -0.4519  0.0927
 1927PEP     CB73364  11.379   3.587   3.987 -0.0363 -0.2288  0.0626
 1927PEP     CB73365  11.323   3.796   3.628  0.1476  0.2956 -0.0983
 1927PEP     CB73366  11.184   4.189   3.544 -0.0430  0.4693 -0.1098
 1927PEP     CB73367  11.008   4.480   3.653 -0.1257  0.1892 -0.2856
 1927PEP     CB73368  10.780   4.497   3.996  0.4641  0.1520  0.1216
 1927PEP     CB73369  10.545   4.388   4.411 -0.4174  0.4445  0.3185
 1927PEP     CB73370  10.269   4.522   4.835 -0.0767  0.0976  0.4282
 1927PEP     CB73371   9.865   4.748   4.802  0.0792 -0.2069  0.0912
 1927PEP     CB73372   9.526   5.084   4.557  0.1880  0.1466  0.3371
 1927PEP     CB73373   9.174   5.076   4.312 -0.0169 -0.2906 -0.0268
 1927PEP     CB73374   8.734   5.052   4.276 -0.2753 -0.2042  0.0395
 1927PEP     CB73375   8.182   5.004   4.036  0.0736 -0.0454 -0.0703
 1927PEP     CB73376   7.886   5.089   3.749  0.0603  0.1226 -0.1521
 1927PEP     CB73377   7.471   4.967   3.671  0.0989  0.1711  0.0974
 1927PEP     CB73378   6.967   4.867   3.658  0.1747  0.0995 -0.2040
 1927PEP     CB73379   6.780   4.847   3.368  0.2889  0.2901 -0.6360
 1927PEP     CB73380   6.474   4.857   3.076  0.0322 -0.0187  0.0375
 1927PEP     CB73381   6.274   4.540   2.860 -0.2532 -0.4625 -0.0085
 1927PEP     CB73382   6.209   4.068   3.044  0.0944 -0.0358  0.4010
 1927PEP     CB73383   6.247   3.942   3.518  0.0612  0.3771  0.2724
 1927PEP     CB73384   6.070   4.241   3.852 -0.0763 -0.1345 -0.1368
 1927PEP     CB73385   5.970   4.586   4.118 -0.0345  0.3276 -0.4506
 1927PEP     CB73386   6.160   4.906   4.376  0.2648  0.2023 -0.2440
 1927PEP     CB73387   6.638   4.948   4.292 -0.0377  0.2499 -0.1478
 1927PEP     CB73388   7.063   5.032   4.158  0.0307 -0.2584 -0.1851
 1927PEP     CB73389   7.506   5.068   4.203 -0.0486  0.0707 -0.0827
 1927PEP     CB73390   7.813   5.369   4.162  0.4038 -0.1414  0.3606
 1927PEP     CB73391   7.735   5.735   4.092 -0.0326 -0.3084 -0.4198
 1927PEP     CB73392   7.361   6.023   3.995 -0.1157 -0.2212  0.6238
 1927PEP     CB73393   7.014   6.350   3.994 -0.1762 -0.2083  0.3910
 1927PEP     CB73394   6.553   6.360   3.887  0.5363  0.1502  0.1236
 1927PEP     CB73395   6.250   6.028   3.669  0.0663  0.5823 -0.0836
 1927PEP     CB73396   6.276   5.725   3.294 -0.1522  0.1744  0.0252
 1927PEP     CB73397   6.270   5.420   3.007  0.1027 -0.1888 -0.2061
 1927PEP     CB73398   6.142   5.125   2.732 -0.1186 -0.1701  0.0878
 1927PEP     CB73399   6.228   4.826   2.481 -0.1388 -0.2406 -0.0844
 1927PEP     CB73400   6.294   4.372   2.380 -0.1332 -0.0960 -0.0447
 1928PEP     CB73401  18.512   6.892   9.942 -0.0749  0.1237  0.3299
 1928PEP     CB73402  18.674   6.547   9.724  0.1183  0.4823 -0.1135
 1928PEP     CB73403  18.894   6.280   9.401 -0.2270  0.0929 -0.0093
 1928PEP     CB73404  18.752   5.960   9.156  0.0519  0.0827  0.1520
 1928PEP     CB73405  18.802   5.556   9.095  0.1533 -0.2059  0.1408
 1928PEP     CB73406  18.951   5.144   9.062  0.0102 -0.0301  0.2207
 1928PEP     CB73407  19.043   4.756   8.926  0.2413  0.0092 -0.0058
 1928PEP     CB73408  19.279   4.383   8.921  0.2529 -0.0751 -0.0556
 1928PEP     CB73409  19.399   3.942   8.734  0.1675 -0.1408 -0.2626
 1928PEP     CB73410  19.573   3.534   8.807  0.0675  0.0758  0.3780
 1928PEP     CB73411  19.666   3.127   8.874  0.2218 -0.3472  0.0724
 1928PEP     CB73412  19.750   2.785   8.583 -0.3376  0.2064  0.1665
 1928PEP     CB73413  19.792   2.452   8.232 -0.0553 -0.6522 -0.1368
 1928PEP     CB73414  19.983   2.073   8.023  0.3008 -0.2661 -0.0869
 1928PEP     CB73415  20.411   1.900   8.122  0.3384 -0.1503  0.2823
 1928PEP     CB73416  20.684   2.188   8.465 -0.4100  0.1264  0.2435
 1928PEP     CB73417  20.851   2.605   8.332  0.4372  0.3632 -0.2521
 1928PEP     CB73418  21.132   2.723   7.968  0.3549  0.2673  0.2071
 1928PEP     CB73419  21.166   2.433   7.615  0.0639 -0.0233  0.3711
 1928PEP     CB73420  21.245   2.298   7.156 -0.0563  0.3615 -0.0846
 1928PEP     CB73421  21.491   2.056   6.952 -0.4666 -0.1098 -0.0562
 1928PEP     CB73422  21.826   1.748   6.775 -0.0774 -0.0046  0.1693
 1928PEP     CB73423  22.074   1.460   6.406 -0.4000  0.3803  0.5618
 1928PEP     CB73424  22.346   1.091   6.296 -0.1037  0.0337  0.2019
 1928PEP     CB73425  22.547   0.708   6.194  0.2918  0.1055 -0.2675
 1928PEP     CB73426  22.389   0.291   6.049 -0.2646  0.0379 -0.2797
 1928PEP     CB73427  22.313  -0.069   5.869 -0.2542 -0.2591  0.1171
 1928PEP     CB73428  22.447  -0.217   5.538 -0.3199  0.1782  0.2893
 1928PEP     CB73429  22.305  -0.139   5.149 -0.0224 -0.0252 -0.6360
 1928PEP     CB73430  22.148   0.206   4.907  0.1346  0.1045  0.0304
 1928PEP     CB73431  22.218   0.621   4.863  0.0761  0.5249  0.0752
 1928PEP     CB73432  22.528   1.037   4.724 -0.2392 -0.1045  0.0405
 1928PEP     CB73433  22.509   1.370   4.443 -0.1955  0.1548 -0.3753
 1928PEP     CB73434  22.304   1.541   4.060 -0.3556 -0.1546 -0.3353
 1928PEP     CB73435  22.227   1.610   3.679 -0.1723  0.1579 -0.0525
 1928PEP     CB73436  22.138   1.556   3.231 -0.1335 -0.1190 -0.1213
 1928PEP     CB73437  22.167   1.144   3.000 -0.2597 -0.1022  0.1958
 1928PEP     CB73438  21.967   0.846   2.851 -0.2979 -0.1723  0.0548
 1928PEP     CB73439  21.811   0.539   2.654  0.1010 -0.1664  0.0208
 1928PEP     CB73440  21.400   0.410   2.590  0.0627 -0.0345 -0.1094
 1929PEP     CB73441  12.130   9.152   6.828  0.2200  0.0969 -0.1887
 1929PEP     CB73442  11.831   9.342   6.517  0.3987  0.0996 -0.3732
 1929PEP     CB73443  11.521   9.335   6.153  0.3850  0.0744  0.0714
 1929PEP     CB73444  11.288   9.122   5.825  0.0974  0.1418 -0.0959
 1929PEP     CB73445  11.473   8.688   5.645 -0.2256 -0.0331 -0.2843
 1929PEP     CB73446  11.573   8.349   5.613 -0.0608 -0.0369  0.0615
 1929PEP     CB73447  11.532   8.019   5.907 -0.1154 -0.1165 -0.0565
 1929PEP     CB73448  11.462   8.060   6.367 -0.1224 -0.1016  0.0045
 1929PEP     CB73449  11.657   8.196   6.784 -0.3487  0.0688 -0.0879
 1929PEP     CB73450  12.083   8.395   6.970  0.0817 -0.3026  0.1325
 1929PEP     CB73451  12.455   8.406   6.738  0.1010 -0.0631  0.0331
 1929PEP     CB73452  12.535   8.117   6.388  0.0266 -0.3821  0.3531
 1929PEP     CB73453  12.811   7.827   6.151 -0.0319  0.3794  0.2766
 1929PEP     CB73454  13.217   7.632   5.927  0.0958 -0.0509  0.2202
 1929PEP     CB73455  13.318   7.417   5.566  0.0636 -0.2835 -0.1977
 1929PEP     CB73456  13.149   7.496   5.152 -0.0571 -0.1074  0.4002
 1929PEP     CB73457  13.067   7.352   4.848  0.4775 -0.0060 -0.1138
 1929PEP     CB73458  13.363   7.216   4.620 -0.2902 -0.1239  0.0506
 1929PEP     CB73459  13.777   7.352   4.591  0.3020 -0.1207  0.1315
 1929PEP     CB73460  13.993   7.730   4.479 -0.0742  0.1323  0.2703
 1929PEP     CB73461  14.090   8.028   4.129 -0.2623 -0.1410 -0.3190
 1929PEP     CB73462  14.110   8.105   3.691  0.0314 -0.1426 -0.1134
 1929PEP     CB73463  14.172   7.754   3.369  0.4729  0.1712  0.0895
 1929PEP     CB73464  14.294   7.351   3.528  0.3527  0.3007  0.2025
 1929PEP     CB73465  14.339   7.176   3.948 -0.0046  0.4943 -0.0302
 1929PEP     CB73466  14.290   7.300   4.380  0.1757 -0.0999 -0.1437
 1929PEP     CB73467  14.469   7.681   4.646 -0.1460 -0.3084  0.2098
 1929PEP     CB73468  14.572   8.057   4.916  0.0126 -0.1809 -0.0139
 1929PEP     CB73469  14.387   8.448   4.896 -0.3842 -0.0826 -0.0216
 1929PEP     CB73470  14.549   8.709   4.528  0.1480  0.1830 -0.4225
 1929PEP     CB73471  14.963   8.890   4.536  0.2181  0.0203 -0.5203
 1929PEP     CB73472  15.447   8.867   4.503 -0.1065 -0.0866  0.1885
 1929PEP     CB73473  15.861   8.629   4.538 -0.0250 -0.1083 -0.2570
 1929PEP     CB73474  16.058   8.250   4.693 -0.0213 -0.0019 -0.1104
 1929PEP     CB73475  16.235   7.890   4.541 -0.2830 -0.0946  0.1492
 1929PEP     CB73476  16.612   7.890   4.356 -0.0405  0.0223  0.2747
 1929PEP     CB73477  17.019   7.769   4.415 -0.4708 -0.3328 -0.1179
 1929PEP     CB73478  17.455   7.769   4.232 -0.3918 -0.0642 -0.3267
 1929PEP     CB73479  17.869   8.060   4.322 -0.2250 -0.3290 -0.2962
 1929PEP     CB73480  18.233   8.170   4.116  0.1729  0.1950 -0.2471
 1930PEP     CB73481  16.205  15.167  20.838 -0.4627 -0.0841 -0.4016
 1930PEP     CB73482  16.558  14.964  20.630 -0.0612  0.0808 -0.3137
 1930PEP     CB73483  16.740  14.586  20.394  0.1065  0.2663  0.1147
 1930PEP     CB73484  16.802  14.296  20.088  0.0458  0.1969  0.2182
 1930PEP     CB73485  16.771  14.242  19.607  0.4113  0.0266  0.1263
 1930PEP     CB73486  16.759  13.957  19.339 -0.0892  0.3341  0.3937
 1930PEP     CB73487  16.750  13.497  19.510 -0.0924 -0.1010 -0.3780
 1930PEP     CB73488  16.935  13.159  19.524 -0.2985  0.0217  0.0360
 1930PEP     CB73489  17.160  12.889  19.578 -0.0902  0.0838  0.0751
 1930PEP     CB73490  17.278  12.492  19.577  0.1452  0.3460 -0.0700
 1930PEP     CB73491  17.561  12.230  19.785  0.3553  0.0560  0.0536
 1930PEP     CB73492  17.661  11.734  19.934 -0.0662  0.1084 -0.1689
 1930PEP     CB73493  17.468  11.354  20.012 -0.4465  0.2135 -0.3264
 1930PEP     CB73494  17.192  11.145  20.134 -0.3205 -0.1147 -0.0310
 1930PEP     CB73495  16.981  10.716  20.183  0.5553 -0.3453 -0.1764
 1930PEP     CB73496  17.109  10.289  20.339  0.0040  0.1297 -0.0701
 1930PEP     CB73497  16.953  10.195  20.678 -0.0191  0.0217  0.2379
 1930PEP     CB73498  16.616  10.386  21.014  0.1528  0.0503 -0.1311
 1930PEP     CB73499  16.469  10.749  21.012 -0.0402 -0.6650 -0.0260
 1930PEP     CB73500  16.383  10.930  20.655 -0.1900  0.0226  0.1041
 1930PEP     CB73501  16.062  10.758  20.360  0.0362  0.0752 -0.0232
 1930PEP     CB73502  15.999  10.836  19.939 -0.2354 -0.0757 -0.4485
 1930PEP     CB73503  16.025  11.099  19.582 -0.3571  0.0514 -0.1564
 1930PEP     CB73504  16.161  11.294  19.172  0.0170 -0.0829  0.6081
 1930PEP     CB73505  16.117  11.686  19.021  0.3275 -0.1069  0.1795
 1930PEP     CB73506  16.052  12.110  19.154  0.1320 -0.3009 -0.0228
 1930PEP     CB73507  15.909  12.575  19.072 -0.0778  0.2219  0.1027
 1930PEP     CB73508  15.883  13.044  19.227  0.2081 -0.1264  0.2076
 1930PEP     CB73509  15.767  13.396  19.410 -0.2264  0.0314 -0.1816
 1930PEP     CB73510  15.385  13.698  19.494 -0.0689 -0.1902 -0.0019
 1930PEP     CB73511  15.008  13.642  19.298  0.2731  0.1328  0.0354
 1930PEP     CB73512  14.954  13.859  18.841 -0.0138 -0.2107  0.4313
 1930PEP     CB73513  15.254  14.103  18.681  0.1428  0.0999 -0.0598
 1930PEP     CB73514  15.635  14.271  18.911  0.4626  0.3006  0.1183
 1930PEP     CB73515  15.819  14.065  19.457  0.5777 -0.2377  0.0442
 1930PEP     CB73516  15.927  13.902  19.877  0.0634  0.1726 -0.0992
 1930PEP     CB73517  15.982  13.623  20.275  0.1839  0.2086  0.3224
 1930PEP     CB73518  15.955  13.390  20.701  0.1318 -0.1423 -0.2135
 1930PEP     CB73519  15.792  13.029  20.805 -0.0358  0.0139 -0.1068
 1930PEP     CB73520  15.670  12.775  20.495  0.4182  0.0252  0.1556
 1931PEP     CB73521   5.701  10.589   4.778 -0.6113 -0.2441  0.2331
 1931PEP     CB73522   6.083  10.326   4.800  0.1049  0.2277 -0.0570
 1931PEP     CB73523   6.409  10.305   5.056 -0.1189 -0.0751 -0.1940
 1931PEP     CB73524   6.469  10.494   5.535  0.0355  0.0211 -0.1387
 1931PEP     CB73525   6.137  10.531   5.909 -0.2618 -0.0363 -0.2498
 1931PEP     CB73526   5.726  10.449   5.990  0.1403  0.2023  0.2307
 1931PEP     CB73527   5.272  10.571   6.002 -0.0673 -0.3241 -0.0108
 1931PEP     CB73528   5.061  10.846   6.444 -0.0987  0.2004  0.0867
 1931PEP     CB73529   5.208  11.302   6.624  0.2280 -0.2626  0.1205
 1931PEP     CB73530   5.543  11.460   6.813  0.0174 -0.0427  0.0262
 1931PEP     CB73531   5.719  11.598   7.295  0.0903  0.3005  0.1142
 1931PEP     CB73532   6.061  11.502   7.564 -0.1112  0.3194  0.1598
 1931PEP     CB73533   6.301  11.143   7.569  0.1694  0.0798 -0.0026
 1931PEP     CB73534   6.371  10.860   7.259  0.3906  0.3518  0.0994
 1931PEP     CB73535   6.081  10.745   6.991  0.2360 -0.4635  0.3202
 1931PEP     CB73536   5.744  10.393   7.019  0.5258  0.2200 -0.2983
 1931PEP     CB73537   5.427  10.383   7.445 -0.0559  0.2594  0.0464
 1931PEP     CB73538   5.429  10.291   7.929 -0.4534 -0.1012  0.1327
 1931PEP     CB73539   5.243   9.970   8.263  0.2640  0.1428  0.2111
 1931PEP     CB73540   4.871   9.856   8.508 -0.1094 -0.2624  0.2896
 1931PEP     CB73541   4.749   9.472   8.670  0.3044 -0.2550  0.2641
 1931PEP     CB73542   4.578   9.104   8.518 -0.1681 -0.0095  0.1827
 1931PEP     CB73543   4.495   8.784   8.184  0.2071  0.0163 -0.1613
 1931PEP     CB73544   4.366   8.722   7.816  0.1812  0.4245  0.0692
 1931PEP     CB73545   4.148   8.584   7.553  0.0976 -0.1112  0.2152
 1931PEP     CB73546   3.815   8.406   7.275  0.2948  0.1848 -0.1050
 1931PEP     CB73547   3.358   8.385   7.058 -0.1151 -0.0721  0.1034
 1931PEP     CB73548   2.990   8.427   7.046 -0.4100 -0.3888 -0.1586
 1931PEP     CB73549   2.562   8.337   6.880  0.0773  0.5485 -0.0081
 1931PEP     CB73550   2.136   8.531   6.851  0.1197 -0.2822 -0.0401
 1931PEP     CB73551   1.988   8.926   7.068 -0.1948 -0.0502 -0.2020
 1931PEP     CB73552   1.772   9.384   7.036  0.2011  0.2187 -0.0404
 1931PEP     CB73553   1.688   9.769   6.866 -0.3254 -0.0214 -0.0022
 1931PEP     CB73554   1.686  10.256   6.812  0.0718 -0.0979  0.1922
 1931PEP     CB73555   1.717  10.670   6.790 -0.3255 -0.1284  0.0821
 1931PEP     CB73556   1.895  10.951   6.488 -0.1257 -0.1877 -0.0402
 1931PEP     CB73557   2.295  10.750   6.256  0.0692 -0.0582  0.1853
 1931PEP     CB73558   2.467  10.711   5.850 -0.0286  0.1572 -0.0624
 1931PEP     CB73559   2.440  10.938   5.600  0.3432 -0.0358  0.1920
 1931PEP     CB73560   2.015  11.068   5.440 -0.0084  0.2528 -0.2541
 1932PEP     CB73561  13.588   0.317  17.731 -0.0244  0.1657 -0.1013
 1932PEP     CB73562  13.176   0.594  17.673 -0.1017 -0.2842 -0.2679
 1932PEP     CB73563  12.804   0.668  17.832  0.1906  0.6004  0.0832
 1932PEP     CB73564  12.358   0.464  17.730 -0.3387 -0.0656 -0.0999
 1932PEP     CB73565  12.237   0.227  17.283 -0.0835  0.0366  0.0053
 1932PEP     CB73566  12.359   0.156  16.868  0.4128  0.0470 -0.3888
 1932PEP     CB73567  12.513   0.088  16.522 -0.4938 -0.1543  0.0184
 1932PEP     CB73568  12.618  -0.275  16.193  0.0621  0.2399  0.0300
 1932PEP     CB73569  12.807  -0.595  15.848 -0.0835 -0.1580  0.0209
 1932PEP     CB73570  13.166  -0.689  15.830 -0.1090  0.1204  0.2456
 1932PEP     CB73571  13.572  -0.813  15.740  0.3206 -0.0847  0.3318
 1932PEP     CB73572  13.823  -1.093  15.544  0.1056 -0.0068 -0.1753
 1932PEP     CB73573  14.230  -1.207  15.345 -0.1480 -0.2140  0.2183
 1932PEP     CB73574  14.659  -1.357  15.505  0.2868  0.1283 -0.4801
 1932PEP     CB73575  15.035  -1.300  15.827 -0.2534 -0.1738 -0.0212
 1932PEP     CB73576  15.410  -1.048  15.861 -0.2439  0.1881 -0.1826
 1932PEP     CB73577  15.564  -0.727  15.724  0.0548  0.0134  0.2263
 1932PEP     CB73578  15.777  -0.286  15.616  0.0873  0.2779  0.0170
 1932PEP     CB73579  16.221   0.022  15.550 -0.1530 -0.0133  0.2085
 1932PEP     CB73580  16.704  -0.113  15.489  0.0189  0.0892  0.1202
 1932PEP     CB73581  16.784  -0.524  15.597  0.3769 -0.1337  0.0564
 1932PEP     CB73582  16.683  -0.843  15.906  0.1091  0.0938  0.0422
 1932PEP     CB73583  16.536  -1.186  16.185 -0.2218  0.0733  0.0509
 1932PEP     CB73584  16.661  -1.446  16.587 -0.2010 -0.1731  0.1202
 1932PEP     CB73585  16.985  -1.649  16.875 -0.0630  0.1550  0.1892
 1932PEP     CB73586  17.146  -1.539  17.229 -0.0567 -0.0930 -0.3456
 1932PEP     CB73587  17.655  -1.340  17.353  0.1144  0.4013  0.1514
 1932PEP     CB73588  18.119  -1.339  17.281 -0.1732 -0.0061  0.1823
 1932PEP     CB73589  18.404  -1.424  17.035  0.0534  0.0991  0.1259
 1932PEP     CB73590  18.735  -1.733  17.011 -0.1844  0.2190  0.0843
 1932PEP     CB73591  18.807  -2.071  17.328  0.0774 -0.1853  0.3071
 1932PEP     CB73592  18.706  -2.249  17.629 -0.0344 -0.2547  0.2099
 1932PEP     CB73593  18.558  -2.171  18.092 -0.1137  0.0036  0.1506
 1932PEP     CB73594  18.506  -1.923  18.490 -0.0983  0.2198 -0.0293
 1932PEP     CB73595  18.621  -1.940  18.944  0.2396  0.0415 -0.0032
 1932PEP     CB73596  19.016  -2.025  19.177 -0.0677 -0.1026  0.0233
 1932PEP     CB73597  19.394  -2.257  19.209  0.4114  0.4266  0.2164
 1932PEP     CB73598  19.627  -2.653  19.203  0.3878  0.0965  0.1963
 1932PEP     CB73599  19.485  -3.152  19.196  0.2097 -0.4316 -0.1637
 1932PEP     CB73600  19.594  -3.518  19.447 -0.0700  0.2751  0.0434
 1933PEP     CB73601  11.977  20.094   0.473 -0.1112  0.5022  0.0651
 1933PEP     CB73602  12.063  20.336   0.958  0.3364 -0.1155  0.1937
 1933PEP     CB73603  12.323  20.238   1.170 -0.2376  0.0972 -0.2440
 1933PEP     CB73604  12.573  20.208   1.460  0.0546  0.1440  0.1802
 1933PEP     CB73605  12.918  20.453   1.692  0.0997 -0.3213  0.3506
 1933PEP     CB73606  13.172  20.775   1.952 -0.2608  0.3299 -0.0467
 1933PEP     CB73607  13.414  21.197   2.175  0.1846 -0.3963  0.2773
 1933PEP     CB73608  13.685  21.476   2.163 -0.1581  0.2154 -0.2414
 1933PEP     CB73609  13.908  21.794   1.969 -0.0629  0.0954  0.1015
 1933PEP     CB73610  14.002  22.232   1.873  0.5176  0.3341 -0.1498
 1933PEP     CB73611  14.202  22.481   1.631  0.0236 -0.1318  0.2654
 1933PEP     CB73612  14.364  22.789   1.345  0.1222 -0.0044  0.2642
 1933PEP     CB73613  14.472  23.131   1.107 -0.0715 -0.2653 -0.1435
 1933PEP     CB73614  14.675  23.530   1.095 -0.1827  0.1789 -0.2630
 1933PEP     CB73615  14.678  23.793   1.010 -0.3407  0.1085  0.2832
 1933PEP     CB73616  14.774  24.065   0.561  0.0472  0.0882  0.0549
 1933PEP     CB73617  15.063  23.919   0.245  0.1146  0.0415  0.0495
 1933PEP     CB73618  15.489  23.862   0.351 -0.2659  0.1235 -0.0664
 1933PEP     CB73619  15.701  24.299   0.405  0.4254 -0.2988  0.1410
 1933PEP     CB73620  15.848  24.689   0.603 -0.1707  0.0819  0.0281
 1933PEP     CB73621  16.017  25.011   0.770 -0.3425  0.2149 -0.2895
 1933PEP     CB73622  16.238  25.070   1.086 -0.3125  0.0705  0.0877
 1933PEP     CB73623  16.610  24.970   1.478 -0.2060  0.0616 -0.1493
 1933PEP     CB73624  16.866  24.811   1.825 -0.0201  0.1148  0.6273
 1933PEP     CB73625  17.045  24.515   2.075  0.2058  0.1805 -0.2196
 1933PEP     CB73626  17.144  24.330   2.490  0.1343  0.0898 -0.4043
 1933PEP     CB73627  17.424  24.233   2.807  0.1408  0.1602  0.3809
 1933PEP     CB73628  17.884  24.014   2.972 -0.3087  0.2682  0.3534
 1933PEP     CB73629  18.360  24.058   2.768  0.0914  0.0228 -0.3256
 1933PEP     CB73630  18.607  24.439   2.742 -0.3457  0.1590  0.0129
 1933PEP     CB73631  18.430  24.863   2.980 -0.0890  0.1395 -0.0214
 1933PEP     CB73632  18.314  24.985   3.342 -0.3734  0.4060 -0.5809
 1933PEP     CB73633  17.970  25.038   3.656  0.1783  0.0178 -0.1188
 1933PEP     CB73634  17.817  25.336   4.116 -0.4967 -0.6681  0.3375
 1933PEP     CB73635  17.682  25.656   4.298 -0.1950 -0.0643 -0.0770
 1933PEP     CB73636  17.587  26.056   4.038 -0.0967  0.0702  0.0188
 1933PEP     CB73637  17.803  26.548   4.007  0.3066  0.2160  0.3095
 1933PEP     CB73638  18.169  26.765   4.051  0.4068 -0.2298 -0.4833
 1933PEP     CB73639  18.560  26.989   4.210 -0.1018  0.0444  0.2124
 1933PEP     CB73640  18.892  27.127   4.625  0.0183 -0.0514 -0.0964
 1934PEP     CB73641   3.729  12.527  19.769  0.3219  0.5214  0.0339
 1934PEP     CB73642   4.059  12.395  19.635  0.0455  0.1265  0.0927
 1934PEP     CB73643   4.475  12.160  19.610 -0.0116 -0.2788  0.0479
 1934PEP     CB73644   4.757  11.888  19.401 -0.1131 -0.2464 -0.1517
 1934PEP     CB73645   4.798  11.475  19.474 -0.1600 -0.1148  0.1470
 1934PEP     CB73646   5.014  11.136  19.648 -0.4877 -0.1940  0.1198
 1934PEP     CB73647   5.051  10.727  19.570 -0.0032  0.1975  0.1744
 1934PEP     CB73648   4.645  10.517  19.344 -0.1428  0.0406 -0.0400
 1934PEP     CB73649   4.214  10.633  19.155  0.2571 -0.0107 -0.1162
 1934PEP     CB73650   3.989  10.765  18.865 -0.0976 -0.2411 -0.4813
 1934PEP     CB73651   3.782  11.038  18.589  0.3179  0.1141 -0.3193
 1934PEP     CB73652   3.984  11.426  18.302  0.1543  0.1517 -0.0106
 1934PEP     CB73653   4.466  11.489  18.328  0.0118 -0.0613 -0.0580
 1934PEP     CB73654   4.725  11.081  18.180 -0.0662  0.2570 -0.0557
 1934PEP     CB73655   4.612  10.639  18.176 -0.0089  0.1467  0.0567
 1934PEP     CB73656   4.551  10.310  18.327  0.3093  0.2082  0.0016
 1934PEP     CB73657   4.292   9.996  18.297 -0.0008 -0.0280  0.4080
 1934PEP     CB73658   4.193   9.643  18.004  0.3780 -0.3526  0.0278
 1934PEP     CB73659   4.256   9.178  18.071  0.3567  0.0144 -0.0800
 1934PEP     CB73660   4.034   8.855  18.265  0.1782 -0.0452  0.1725
 1934PEP     CB73661   4.081   8.457  18.486 -0.0003  0.0241  0.1033
 1934PEP     CB73662   3.772   8.298  18.799 -0.6522 -0.1025 -0.0431
 1934PEP     CB73663   3.605   8.276  19.266 -0.1489  0.1083  0.1945
 1934PEP     CB73664   3.801   8.027  19.577 -0.0520 -0.1645  0.1585
 1934PEP     CB73665   4.295   7.971  19.505  0.1385 -0.2399 -0.3313
 1934PEP     CB73666   4.456   7.928  19.106  0.1685 -0.2710  0.0941
 1934PEP     CB73667   4.460   7.710  18.718  0.3206 -0.1141  0.0319
 1934PEP     CB73668   4.589   7.303  18.489 -0.0644 -0.0065 -0.0650
 1934PEP     CB73669   4.622   6.935  18.413  0.1589 -0.1029 -0.0803
 1934PEP     CB73670   4.932   6.525  18.457 -0.0318  0.1759 -0.0471
 1934PEP     CB73671   5.178   6.168  18.587  0.1446 -0.2567  0.2044
 1934PEP     CB73672   5.051   5.738  18.671  0.0828  0.5395  0.1133
 1934PEP     CB73673   5.066   5.424  18.354  0.2139  0.3831 -0.2334
 1934PEP     CB73674   4.999   5.401  17.873  0.1651  0.2679 -0.0203
 1934PEP     CB73675   4.656   5.606  17.632 -0.1791 -0.5020  0.0305
 1934PEP     CB73676   4.234   5.634  17.556 -0.2056 -0.3317  0.2231
 1934PEP     CB73677   3.971   5.990  17.505 -0.0369  0.3748 -0.2037
 1934PEP     CB73678   3.949   6.392  17.637 -0.2447 -0.2608  0.2035
 1934PEP     CB73679   3.869   6.744  17.565 -0.2492  0.0630 -0.2498
 1934PEP     CB73680   3.587   7.123  17.433 -0.2538 -0.0655 -0.0382
 1935PEP     CB73681   2.031  19.533  12.818 -0.0311  0.0114  0.1771
 1935PEP     CB73682   2.108  19.091  12.671  0.0937  0.1373  0.2455
 1935PEP     CB73683   1.980  18.982  12.264  0.5140 -0.0746  0.3230
 1935PEP     CB73684   1.772  19.338  12.124  0.3344  0.3071 -0.2259
 1935PEP     CB73685   1.424  19.574  12.201 -0.1302 -0.2845 -0.0100
 1935PEP     CB73686   1.215  19.921  12.303 -0.1166 -0.2247  0.2845
 1935PEP     CB73687   0.894  20.099  12.423 -0.3293 -0.3702 -0.1552
 1935PEP     CB73688   0.594  20.385  12.237  0.3310 -0.1990 -0.1356
 1935PEP     CB73689   0.196  20.219  12.001 -0.2420  0.0048  0.3480
 1935PEP     CB73690  -0.209  19.871  11.887 -0.2665  0.1125 -0.3919
 1935PEP     CB73691  -0.531  19.702  11.809  0.3241 -0.0485 -0.1461
 1935PEP     CB73692  -0.931  19.516  11.882 -0.0495 -0.1457  0.2016
 1935PEP     CB73693  -1.343  19.589  12.165 -0.0597  0.2241  0.3191
 1935PEP     CB73694  -1.700  19.387  12.129 -0.1164  0.2403 -0.1037
 1935PEP     CB73695  -1.751  18.985  11.847  0.2045  0.0797 -0.1811
 1935PEP     CB73696  -1.812  18.624  11.656 -0.2651 -0.0371  0.1134
 1935PEP     CB73697  -1.731  18.267  11.334 -0.0865 -0.2292  0.2672
 1935PEP     CB73698  -1.801  17.963  11.014  0.2415 -0.0263 -0.2299
 1935PEP     CB73699  -1.670  17.574  10.872  0.4712  0.2665  0.1497
 1935PEP     CB73700  -1.683  17.200  10.618 -0.0272  0.4317  0.3671
 1935PEP     CB73701  -1.428  16.900  10.542 -0.0961 -0.0901  0.2749
 1935PEP     CB73702  -0.993  16.907  10.417 -0.0971 -0.3499 -0.0463
 1935PEP     CB73703  -0.648  17.192  10.607  0.0362  0.0690 -0.0192
 1935PEP     CB73704  -0.657  17.608  10.908 -0.1894  0.2694  0.0651
 1935PEP     CB73705  -0.673  17.918  11.212 -0.3681 -0.1798  0.4124
 1935PEP     CB73706  -0.610  18.250  11.471 -0.3564 -0.1095 -0.3308
 1935PEP     CB73707  -0.432  18.611  11.740  0.3931  0.4889 -0.0140
 1935PEP     CB73708  -0.438  18.725  12.228 -0.3253 -0.1682 -0.0322
 1935PEP     CB73709  -0.481  18.516  12.724  0.0696  0.1734  0.0177
 1935PEP     CB73710  -0.552  18.395  13.169  0.3754  0.0649  0.2588
 1935PEP     CB73711  -0.682  18.232  13.569  0.0221 -0.1589 -0.0181
 1935PEP     CB73712  -0.879  17.807  13.668 -0.1178  0.0557  0.0400
 1935PEP     CB73713  -0.959  17.562  13.350 -0.0429 -0.0356  0.2112
 1935PEP     CB73714  -0.869  17.184  13.086 -0.5284  0.4627 -0.0702
 1935PEP     CB73715  -0.861  16.679  13.006  0.2044 -0.1991 -0.3607
 1935PEP     CB73716  -0.712  16.307  12.704  0.1829  0.0967  0.0413
 1935PEP     CB73717  -0.712  16.028  12.289  0.0387 -0.2475  0.6034
 1935PEP     CB73718  -0.926  15.916  11.894  0.1756 -0.1279 -0.1311
 1935PEP     CB73719  -0.903  15.564  11.504  0.1447  0.3006  0.1734
 1935PEP     CB73720  -0.977  15.175  11.361  0.0363  0.3000  0.1124
 1936PEP     CB73721   7.705   5.989  15.523  0.2939  0.0563  0.1051
 1936PEP     CB73722   7.409   5.749  15.728  0.1858 -0.1710 -0.1975
 1936PEP     CB73723   7.183   5.383  15.649 -0.0361  0.0628 -0.0314
 1936PEP     CB73724   7.164   5.072  15.298 -0.1426  0.0473  0.1169
 1936PEP     CB73725   7.108   5.186  14.910 -0.1854 -0.1346 -0.3653
 1936PEP     CB73726   7.110   5.380  14.507  0.2184 -0.4622 -0.0666
 1936PEP     CB73727   7.319   5.558  14.151 -0.3221  0.1147 -0.1943
 1936PEP     CB73728   7.221   5.619  13.660  0.3053  0.4158 -0.1561
 1936PEP     CB73729   7.455   5.497  13.265  0.5868 -0.1020 -0.0074
 1936PEP     CB73730   7.508   5.422  12.838 -0.1467  0.4958 -0.3430
 1936PEP     CB73731   7.389   5.176  12.500  0.2410  0.1926  0.2926
 1936PEP     CB73732   7.385   4.719  12.333 -0.0490  0.0142 -0.1909
 1936PEP     CB73733   7.199   4.345  12.103  0.0002  0.3646  0.3389
 1936PEP     CB73734   6.972   3.887  12.048 -0.1484  0.0839 -0.0508
 1936PEP     CB73735   6.680   3.626  12.150  0.1767  0.1071 -0.1166
 1936PEP     CB73736   6.412   3.395  11.836  0.0350 -0.0733 -0.0113
 1936PEP     CB73737   6.486   3.038  11.576  0.0098  0.5258  0.2336
 1936PEP     CB73738   6.686   2.651  11.456  0.0289  0.4538  0.4033
 1936PEP     CB73739   6.805   2.221  11.400  0.0714  0.0971 -0.2296
 1936PEP     CB73740   6.989   1.803  11.583 -0.0023 -0.1000  0.1086
 1936PEP     CB73741   7.333   1.748  11.916  0.1213  0.1169 -0.1144
 1936PEP     CB73742   7.159   1.848  12.364  0.3152  0.1481  0.0295
 1936PEP     CB73743   6.796   2.016  12.239 -0.1024  0.0700 -0.0902
 1936PEP     CB73744   6.853   2.286  11.894 -0.2931 -0.0041 -0.0803
 1936PEP     CB73745   7.258   2.297  11.620 -0.3046 -0.0040 -0.3428
 1936PEP     CB73746   7.174   2.485  11.276 -0.1908  0.0226 -0.0200
 1936PEP     CB73747   6.873   2.509  10.984  0.0497 -0.2314  0.0508
 1936PEP     CB73748   6.573   2.507  10.705  0.1647  0.0105 -0.2268
 1936PEP     CB73749   6.098   2.360  10.715 -0.1298 -0.1843  0.3059
 1936PEP     CB73750   5.952   1.989  10.969 -0.0301 -0.2236 -0.1371
 1936PEP     CB73751   6.137   1.677  10.776 -0.1462  0.0570 -0.2240
 1936PEP     CB73752   6.448   1.772  10.484 -0.1807  0.0924 -0.2387
 1936PEP     CB73753   6.418   2.154  10.408  0.0591  0.0510 -0.0454
 1936PEP     CB73754   6.221   2.569  10.204 -0.1392  0.1758  0.0702
 1936PEP     CB73755   5.898   2.505   9.869 -0.3321  0.0537 -0.2161
 1936PEP     CB73756   5.775   2.227   9.522 -0.1207  0.0506 -0.0563
 1936PEP     CB73757   5.901   1.848   9.400  0.1026  0.0119 -0.1734
 1936PEP     CB73758   6.196   1.634   9.346  0.0052  0.2758  0.0896
 1936PEP     CB73759   6.591   1.433   9.468  0.2152 -0.1537  0.0413
 1936PEP     CB73760   7.006   1.498   9.452  0.1829  0.0187 -0.1324
 1937PEP     CB73761   4.306   9.909   4.011  0.2354 -0.0302 -0.2819
 1937PEP     CB73762   4.208  10.353   3.937  0.1701 -0.2121 -0.2702
 1937PEP     CB73763   3.880  10.588   3.776  0.1530  0.4055 -0.0527
 1937PEP     CB73764   3.717  10.370   3.396  0.3890  0.5014  0.0705
 1937PEP     CB73765   3.740  10.016   3.062 -0.0181 -0.0826 -0.3325
 1937PEP     CB73766   3.833   9.563   2.924  0.0743  0.2409  0.3680
 1937PEP     CB73767   3.793   9.116   3.095  0.0474 -0.2122  0.1601
 1937PEP     CB73768   3.692   8.952   3.486 -0.1207 -0.0712  0.2195
 1937PEP     CB73769   3.413   8.909   3.764  0.0902  0.1201 -0.1268
 1937PEP     CB73770   3.029   9.041   4.039 -0.1018 -0.3404  0.1817
 1937PEP     CB73771   2.710   8.747   4.110  0.0626  0.1999 -0.1274
 1937PEP     CB73772   2.355   8.688   4.358 -0.2666  0.1279 -0.1748
 1937PEP     CB73773   2.019   8.417   4.758 -0.0990  0.1780 -0.2957
 1937PEP     CB73774   1.890   8.353   5.228  0.0444  0.1186  0.2341
 1937PEP     CB73775   2.018   8.357   5.668 -0.3683  0.0200  0.3071
 1937PEP     CB73776   2.242   8.214   5.916  0.3677 -0.2868  0.0059
 1937PEP     CB73777   2.585   7.933   6.073  0.2551  0.5327 -0.1460
 1937PEP     CB73778   2.885   7.648   6.225  0.1918 -0.1240  0.2121
 1937PEP     CB73779   3.220   7.299   6.279  0.2911 -0.2980  0.2086
 1937PEP     CB73780   3.582   7.131   6.519  0.1628  0.2281  0.2214
 1937PEP     CB73781   3.797   6.718   6.496  0.1140  0.5089  0.3740
 1937PEP     CB73782   4.109   6.489   6.944 -0.0285 -0.0457 -0.1857
 1937PEP     CB73783   4.482   6.591   7.195  0.1437  0.0633  0.1401
 1937PEP     CB73784   4.750   6.928   7.246 -0.0901 -0.0463 -0.1587
 1937PEP     CB73785   5.000   7.170   7.094  0.0396  0.1643  0.1344
 1937PEP     CB73786   5.110   7.604   6.967 -0.2798  0.3032 -0.0947
 1937PEP     CB73787   5.348   7.899   7.073  0.1517 -0.0486 -0.3220
 1937PEP     CB73788   5.555   7.972   7.431  0.4210 -0.0705  0.1671
 1937PEP     CB73789   5.830   8.160   7.698 -0.2140 -0.0845  0.1251
 1937PEP     CB73790   6.260   8.342   7.716 -0.1545  0.0662  0.0493
 1937PEP     CB73791   6.424   8.674   7.344  0.3528  0.1235  0.3713
 1937PEP     CB73792   6.420   8.427   6.951 -0.0306  0.2109  0.2483
 1937PEP     CB73793   6.529   7.959   6.807 -0.0641  0.1199  0.2655
 1937PEP     CB73794   6.407   7.658   6.450  0.2015  0.1130  0.0328
 1937PEP     CB73795   6.393   7.812   6.042  0.0391  0.1230 -0.1471
 1937PEP     CB73796   6.365   8.244   6.016 -0.0366  0.1137 -0.0452
 1937PEP     CB73797   6.517   8.704   5.966 -0.2000  0.1394  0.1465
 1937PEP     CB73798   6.254   9.123   5.883 -0.1443 -0.2079  0.0141
 1937PEP     CB73799   6.209   9.537   6.101  0.2638 -0.3709  0.0488
 1937PEP     CB73800   6.181   9.646   6.498  0.1833  0.1921  0.2679
 1938PEP     CB73801   8.891  16.933   3.812  0.1933  0.1598 -0.0143
 1938PEP     CB73802   8.848  17.375   3.614 -0.0041 -0.1313  0.0257
 1938PEP     CB73803   8.664  17.722   3.590 -0.3256 -0.2278  0.1157
 1938PEP     CB73804   8.332  18.135   3.637  0.0803  0.1501 -0.3569
 1938PEP     CB73805   8.140  18.595   3.531  0.0764  0.0713  0.0422
 1938PEP     CB73806   8.027  19.082   3.612  0.1648 -0.0624  0.2524
 1938PEP     CB73807   8.187  19.451   3.639  0.2066  0.0215  0.1904
 1938PEP     CB73808   8.580  19.695   3.851  0.0533  0.1842 -0.1365
 1938PEP     CB73809   8.630  19.934   4.369  0.6860 -0.0764 -0.2872
 1938PEP     CB73810   8.448  19.787   4.733 -0.2837  0.1417 -0.0135
 1938PEP     CB73811   8.490  19.429   5.002  0.1399  0.0272 -0.0420
 1938PEP     CB73812   8.314  19.296   5.400  0.0409 -0.3968 -0.2418
 1938PEP     CB73813   7.858  19.269   5.559  0.0973  0.0897 -0.0237
 1938PEP     CB73814   7.546  19.002   5.482 -0.0247 -0.0216 -0.2060
 1938PEP     CB73815   7.598  18.573   5.314 -0.3801 -0.1578  0.3814
 1938PEP     CB73816   7.472  18.352   5.075  0.1862 -0.1174  0.0085
 1938PEP     CB73817   7.279  17.969   4.832 -0.1090 -0.0826  0.0095
 1938PEP     CB73818   7.167  17.483   4.831  0.1642  0.2002 -0.2931
 1938PEP     CB73819   7.380  17.095   4.663 -0.0014  0.2244  0.0664
 1938PEP     CB73820   7.837  17.015   4.688 -0.2496 -0.0995  0.1504
 1938PEP     CB73821   8.194  17.086   4.938 -0.0481  0.0798  0.1387
 1938PEP     CB73822   8.637  17.122   4.915 -0.0276 -0.2952  0.1183
 1938PEP     CB73823   8.991  16.872   4.887 -0.1516 -0.5908  0.2503
 1938PEP     CB73824   9.282  16.530   4.704 -0.1480  0.3211 -0.2762
 1938PEP     CB73825   9.498  16.189   4.495 -0.1851  0.1911  0.3357
 1938PEP     CB73826   9.804  15.953   4.647 -0.5827 -0.0591  0.1688
 1938PEP     CB73827   9.724  15.596   4.931 -0.0230 -0.0927 -0.2138
 1938PEP     CB73828   9.354  15.308   5.062  0.1331 -0.2074  0.0573
 1938PEP     CB73829   9.283  15.013   5.205  0.3524 -0.0947  0.4431
 1938PEP     CB73830   9.246  14.548   5.148  0.0439  0.5838  0.0717
 1938PEP     CB73831   9.359  14.128   5.175 -0.2060 -0.6417 -0.0545
 1938PEP     CB73832   9.694  13.789   5.400 -0.1725 -0.0568 -0.5237
 1938PEP     CB73833  10.123  13.547   5.332  0.3643 -0.3642  0.1823
 1938PEP     CB73834  10.458  13.440   5.037  0.4558  0.0436 -0.0602
 1938PEP     CB73835  10.492  13.020   4.801 -0.2041 -0.1027 -0.1625
 1938PEP     CB73836  10.152  12.809   4.843 -0.3628  0.0765 -0.2538
 1938PEP     CB73837   9.667  12.680   5.116 -0.0709 -0.2213  0.1263
 1938PEP     CB73838   9.440  12.623   5.468  0.3624  0.0845  0.2426
 1938PEP     CB73839   9.156  12.360   5.600  0.0375  0.2449 -0.0423
 1938PEP     CB73840   8.786  12.351   5.456 -0.2263  0.2857 -0.0999
 1939PEP     CB73841   4.114  18.109   3.277  0.2406 -0.2320 -0.1221
 1939PEP     CB73842   4.465  17.868   3.506 -0.2250 -0.0866 -0.3276
 1939PEP     CB73843   4.477  17.750   3.928  0.0629  0.1531  0.2874
 1939PEP     CB73844   4.648  17.552   4.349  0.2701  0.3627  0.2959
 1939PEP     CB73845   5.120  17.503   4.413  0.1110 -0.1580 -0.2576
 1939PEP     CB73846   5.387  17.460   4.058  0.0010  0.3490 -0.0955
 1939PEP     CB73847   5.328  17.376   3.643  0.0113  0.0265 -0.1768
 1939PEP     CB73848   5.281  17.183   3.283 -0.2673 -0.1621  0.0574
 1939PEP     CB73849   4.906  17.131   2.949  0.1895 -0.1414  0.0875
 1939PEP     CB73850   4.710  16.925   2.710 -0.0779 -0.0334 -0.2487
 1939PEP     CB73851   4.274  16.721   2.602  0.0577 -0.2877 -0.3375
 1939PEP     CB73852   3.905  16.512   2.488  0.1732 -0.3015 -0.4285
 1939PEP     CB73853   3.538  16.415   2.348  0.3766 -0.4603 -0.4522
 1939PEP     CB73854   3.431  16.119   2.107 -0.0263 -0.0771 -0.3403
 1939PEP     CB73855   3.642  16.082   1.635  0.2171 -0.0700  0.0443
 1939PEP     CB73856   4.004  16.249   1.369 -0.4306 -0.0122  0.0623
 1939PEP     CB73857   4.181  16.447   0.971  0.0039 -0.0701 -0.1154
 1939PEP     CB73858   4.555  16.591   0.675 -0.0712 -0.1849 -0.1679
 1939PEP     CB73859   4.904  16.585   0.293 -0.0940  0.2075 -0.1285
 1939PEP     CB73860   5.329  16.702   0.156 -0.3009  0.1103 -0.0219
 1939PEP     CB73861   5.516  17.055  -0.033 -0.3482 -0.1180 -0.2179
 1939PEP     CB73862   5.236  17.482  -0.048 -0.0764  0.3471  0.0747
 1939PEP     CB73863   4.894  17.700   0.115 -0.0551 -0.1118 -0.0587
 1939PEP     CB73864   4.510  17.787   0.288 -0.2637  0.2928 -0.0947
 1939PEP     CB73865   4.402  17.876   0.770 -0.0804 -0.1068  0.5056
 1939PEP     CB73866   4.441  17.485   1.038  0.1708 -0.0792  0.0937
 1939PEP     CB73867   4.788  17.229   1.180 -0.1786  0.1099 -0.1275
 1939PEP     CB73868   4.921  16.836   1.082 -0.0188 -0.2275  0.0667
 1939PEP     CB73869   5.071  16.816   0.620  0.2061 -0.0459 -0.0775
 1939PEP     CB73870   5.073  17.233   0.346 -0.5036 -0.0397  0.3743
 1939PEP     CB73871   5.341  17.591   0.474  0.0421 -0.0732 -0.1937
 1939PEP     CB73872   5.646  17.730   0.847 -0.1856  0.0052 -0.1199
 1939PEP     CB73873   5.699  17.841   1.255 -0.3334  0.0039  0.0848
 1939PEP     CB73874   6.010  17.888   1.474 -0.0577  0.0753  0.1682
 1939PEP     CB73875   6.472  18.015   1.384  0.3297  0.2385  0.4827
 1939PEP     CB73876   6.933  17.937   1.139  0.1539 -0.0813  0.4452
 1939PEP     CB73877   7.393  17.841   1.051  0.3058  0.1326  0.1911
 1939PEP     CB73878   7.771  17.853   1.364  0.1136  0.2345  0.3438
 1939PEP     CB73879   8.211  17.702   1.533 -0.1485 -0.0651  0.0909
 1939PEP     CB73880   8.632  17.608   1.522 -0.0238 -0.1880  0.3505
 1940PEP     CB73881  10.288  18.548  11.175 -0.2498 -0.0708  0.0364
 1940PEP     CB73882  10.010  18.850  11.339 -0.1047  0.2190 -0.3569
 1940PEP     CB73883   9.725  19.141  11.524 -0.1367 -0.1803  0.1316
 1940PEP     CB73884   9.326  19.235  11.492 -0.0087  0.1492  0.1882
 1940PEP     CB73885   9.079  19.407  11.199  0.6558 -0.0333  0.1218
 1940PEP     CB73886   9.279  19.558  10.834 -0.0695 -0.0534  0.3048
 1940PEP     CB73887   9.692  19.544  10.679  0.1273  0.1301 -0.1813
 1940PEP     CB73888  10.146  19.466  10.669 -0.2123 -0.1485 -0.0976
 1940PEP     CB73889  10.566  19.483  10.501  0.1046  0.0161 -0.3084
 1940PEP     CB73890  11.032  19.641  10.539 -0.1170  0.0958  0.1190
 1940PEP     CB73891  11.407  19.911  10.729  0.1794  0.0284 -0.0491
 1940PEP     CB73892  11.761  19.779  10.863  0.0933  0.0366  0.0660
 1940PEP     CB73893  12.114  19.570  10.894 -0.1144  0.3772  0.1063
 1940PEP     CB73894  12.521  19.623  10.910  0.2215 -0.0778 -0.2043
 1940PEP     CB73895  12.862  19.365  10.817  0.0369  0.2959 -0.0077
 1940PEP     CB73896  12.753  18.976  10.573  0.0381 -0.0003 -0.1854
 1940PEP     CB73897  12.444  18.674  10.511 -0.0291  0.0742  0.5424
 1940PEP     CB73898  12.104  18.764  10.380 -0.0156 -0.1192  0.1226
 1940PEP     CB73899  11.847  18.927  10.647  0.1341  0.3270  0.1095
 1940PEP     CB73900  11.842  19.175  11.132  0.3336 -0.2788 -0.4830
 1940PEP     CB73901  11.663  19.426  11.433  0.1248  0.0925  0.1829
 1940PEP     CB73902  11.428  19.505  11.752 -0.1395 -0.1578  0.0938
 1940PEP     CB73903  11.276  19.269  12.083  0.2299 -0.0730 -0.2837
 1940PEP     CB73904  11.008  18.976  12.424 -0.1829  0.0570  0.1895
 1940PEP     CB73905  10.717  18.921  12.751  0.2597  0.0218 -0.2820
 1940PEP     CB73906  10.747  18.979  13.183  0.0871  0.1430  0.0215
 1940PEP     CB73907  11.065  19.256  13.487 -0.0167  0.4228 -0.2094
 1940PEP     CB73908  11.393  19.233  13.814 -0.3458  0.1291  0.2276
 1940PEP     CB73909  11.833  19.308  13.926  0.1759 -0.1930 -0.3089
 1940PEP     CB73910  12.174  19.185  13.750 -0.1194 -0.1130  0.0260
 1940PEP     CB73911  12.499  19.046  13.965  0.1923 -0.0600 -0.2674
 1940PEP     CB73912  12.903  18.809  14.209 -0.0758 -0.1123  0.0814
 1940PEP     CB73913  13.084  18.447  14.336 -0.1552  0.0665  0.2550
 1940PEP     CB73914  13.036  18.059  14.292 -0.1568  0.4215 -0.5776
 1940PEP     CB73915  12.906  17.628  14.313  0.1469 -0.0098 -0.1546
 1940PEP     CB73916  12.806  17.190  14.110 -0.1144 -0.3806  0.0408
 1940PEP     CB73917  12.655  16.912  13.963  0.0094 -0.2133 -0.2717
 1940PEP     CB73918  12.339  16.671  13.722 -0.0527  0.1542 -0.2594
 1940PEP     CB73919  12.041  16.507  13.445  0.1766  0.0867 -0.1712
 1940PEP     CB73920  11.556  16.439  13.394 -0.1462 -0.2043 -0.3274
 1941PEP     CB73921  19.924   4.428   1.045 -0.0055 -0.0696  0.2228
 1941PEP     CB73922  19.506   4.545   0.963  0.2039 -0.3246  0.2712
 1941PEP     CB73923  19.256   4.796   1.128  0.1296  0.0434  0.0976
 1941PEP     CB73924  19.020   5.015   1.500 -0.2523 -0.2338 -0.1665
 1941PEP     CB73925  18.932   4.994   1.946 -0.2297 -0.1628  0.3793
 1941PEP     CB73926  19.254   4.878   2.146  0.1649 -0.0996 -0.1291
 1941PEP     CB73927  19.549   4.526   1.961  0.4015 -0.0292 -0.1362
 1941PEP     CB73928  19.377   4.135   1.687  0.2084  0.2089 -0.2382
 1941PEP     CB73929  19.316   3.717   1.609 -0.1189 -0.2212 -0.3201
 1941PEP     CB73930  19.135   3.523   1.983 -0.1342 -0.3533 -0.5236
 1941PEP     CB73931  19.270   3.519   2.406  0.0602 -0.0163 -0.0097
 1941PEP     CB73932  19.622   3.690   2.627 -0.1118 -0.1529 -0.1934
 1941PEP     CB73933  19.914   4.019   2.802 -0.0504 -0.0048  0.0889
 1941PEP     CB73934  19.752   4.419   3.064 -0.3989 -0.3254  0.1694
 1941PEP     CB73935  19.484   4.674   3.362 -0.0807  0.0489  0.1175
 1941PEP     CB73936  19.239   5.067   3.398  0.0552 -0.0244  0.1154
 1941PEP     CB73937  19.407   5.413   3.321  0.1328 -0.2735 -0.1250
 1941PEP     CB73938  19.835   5.438   3.131  0.0185  0.1967 -0.2686
 1941PEP     CB73939  20.049   5.024   2.969  0.3616  0.1730 -0.2657
 1941PEP     CB73940  20.470   4.774   3.182  0.2322 -0.1158  0.1573
 1941PEP     CB73941  20.808   4.919   3.449  0.2966  0.3731 -0.4010
 1941PEP     CB73942  21.163   4.861   3.726 -0.2837 -0.0053  0.0047
 1941PEP     CB73943  21.545   4.642   3.507  0.1798 -0.0717 -0.2055
 1941PEP     CB73944  21.632   4.385   3.089 -0.1566 -0.1066 -0.2705
 1941PEP     CB73945  21.455   4.088   3.012 -0.0089 -0.1081 -0.2196
 1941PEP     CB73946  21.009   4.144   2.984  0.0562 -0.3426 -0.3842
 1941PEP     CB73947  20.817   4.362   3.447 -0.2269  0.2333  0.5997
 1941PEP     CB73948  21.090   4.346   3.875 -0.4328 -0.2587 -0.0590
 1941PEP     CB73949  21.351   4.538   4.022 -0.3350  0.0908  0.0679
 1941PEP     CB73950  21.606   4.868   3.906 -0.0008  0.1841 -0.1880
 1941PEP     CB73951  21.661   5.231   3.741 -0.1994 -0.1214 -0.0419
 1941PEP     CB73952  21.948   5.558   3.712 -0.4175  0.3102  0.1555
 1941PEP     CB73953  22.330   5.921   3.760  0.0445 -0.0171  0.1203
 1941PEP     CB73954  22.749   5.966   3.882  0.1658  0.1111 -0.4042
 1941PEP     CB73955  23.062   5.865   4.114  0.1668  0.0393  0.0605
 1941PEP     CB73956  23.412   5.653   4.348 -0.4549  0.3042  0.0405
 1941PEP     CB73957  23.739   5.358   4.195  0.0041  0.0227  0.0765
 1941PEP     CB73958  23.691   4.952   4.160 -0.4437 -0.1203  0.0334
 1941PEP     CB73959  23.254   4.761   4.040 -0.4318  0.4418  0.2448
 1941PEP     CB73960  22.971   4.844   3.698  0.0080  0.0862 -0.3274
 1942PEP     CB73961  15.317  18.638  10.271 -0.0955  0.2911 -0.0841
 1942PEP     CB73962  15.330  18.383  10.543  0.0936  0.1866 -0.0520
 1942PEP     CB73963  15.501  18.095  10.721 -0.0837  0.1148 -0.3395
 1942PEP     CB73964  15.852  17.909  10.969  0.0588 -0.1986  0.3388
 1942PEP     CB73965  16.079  18.047  11.236 -0.2766 -0.0632 -0.0556
 1942PEP     CB73966  16.012  18.321  11.556  0.2114 -0.3166 -0.3082
 1942PEP     CB73967  15.741  18.582  11.757 -0.0340 -0.1900 -0.1282
 1942PEP     CB73968  15.633  18.957  12.081  0.0976 -0.2609 -0.1147
 1942PEP     CB73969  15.773  18.907  12.469  0.2345  0.2759 -0.4146
 1942PEP     CB73970  15.867  18.570  12.670 -0.1509  0.1198 -0.3008
 1942PEP     CB73971  16.119  18.232  12.486  0.1409  0.1646  0.0281
 1942PEP     CB73972  16.432  17.992  12.490  0.0029 -0.0218  0.3914
 1942PEP     CB73973  16.808  17.774  12.527 -0.4738  0.1961  0.2408
 1942PEP     CB73974  17.227  17.944  12.636  0.0037 -0.0710  0.3455
 1942PEP     CB73975  17.357  18.264  12.887 -0.2789  0.1290 -0.0487
 1942PEP     CB73976  17.149  18.669  12.859 -0.2571 -0.2204 -0.0896
 1942PEP     CB73977  17.017  18.942  12.520  0.0658 -0.3548 -0.1135
 1942PEP     CB73978  16.719  19.244  12.346  0.0366 -0.2383 -0.0121
 1942PEP     CB73979  16.396  19.442  12.531 -0.2964 -0.0256  0.1187
 1942PEP     CB73980  16.205  19.292  12.902 -0.1254  0.0907 -0.1755
 1942PEP     CB73981  16.174  18.875  12.943  0.2189  0.1043  0.4533
 1942PEP     CB73982  16.193  18.493  13.032 -0.1976 -0.0230  0.0897
 1942PEP     CB73983  16.354  18.123  13.048 -0.0100  0.2095  0.0213
 1942PEP     CB73984  16.462  17.648  12.885  0.2369  0.3901 -0.0514
 1942PEP     CB73985  16.587  17.290  12.579 -0.2133  0.4919 -0.0000
 1942PEP     CB73986  16.716  16.926  12.443  0.2322  0.1737  0.1641
 1942PEP     CB73987  17.007  16.635  12.562 -0.2793 -0.0019 -0.2317
 1942PEP     CB73988  17.217  16.284  12.623  0.1926 -0.5767 -0.2231
 1942PEP     CB73989  17.349  15.878  12.600  0.2381 -0.4572 -0.0924
 1942PEP     CB73990  17.696  15.681  12.435 -0.2767 -0.2484  0.1120
 1942PEP     CB73991  17.866  15.623  12.054  0.0867 -0.0736 -0.2153
 1942PEP     CB73992  17.872  15.463  11.548  0.1426  0.4061  0.0332
 1942PEP     CB73993  17.707  15.453  11.093  0.2020 -0.0313 -0.6034
 1942PEP     CB73994  17.559  15.323  10.662 -0.2538 -0.1213 -0.0363
 1942PEP     CB73995  17.414  15.125  10.251 -0.3120  0.0922  0.0744
 1942PEP     CB73996  17.522  14.804  10.038 -0.0296  0.0431  0.0325
 1942PEP     CB73997  17.674  14.388  10.030 -0.0626 -0.4793  0.1180
 1942PEP     CB73998  17.808  13.989  10.202  0.3234 -0.0750  0.0696
 1942PEP     CB73999  17.961  13.571  10.238  0.2491  0.1743  0.1150
 1942PEP     CB74000  17.849  13.107  10.201  0.3411 -0.0262  0.0723
 1943PEP     CB74001  10.968   1.720  17.089 -0.3094 -0.1309  0.1714
 1943PEP     CB74002  10.721   2.102  17.180  0.0367 -0.0906  0.0806
 1943PEP     CB74003  10.642   2.562  17.176 -0.5345 -0.1347 -0.3387
 1943PEP     CB74004  10.870   3.013  17.361  0.2915  0.1328 -0.2417
 1943PEP     CB74005  11.033   3.365  17.206 -0.1594 -0.1519  0.1298
 1943PEP     CB74006  11.051   3.537  16.738  0.0860 -0.3897  0.1886
 1943PEP     CB74007  10.740   3.743  16.492  0.2784 -0.1100  0.3397
 1943PEP     CB74008  10.371   3.846  16.269 -0.0787  0.0533 -0.3039
 1943PEP     CB74009  10.198   4.176  15.967  0.1745 -0.4101  0.2031
 1943PEP     CB74010  10.461   4.479  15.725 -0.0739 -0.1070 -0.5747
 1943PEP     CB74011  10.813   4.438  15.838  0.1455 -0.2817 -0.3597
 1943PEP     CB74012  11.004   4.037  16.043 -0.0266 -0.1662 -0.1056
 1943PEP     CB74013  10.827   3.660  15.953 -0.2212  0.4277  0.4322
 1943PEP     CB74014  10.473   3.531  15.904  0.2066  0.1183  0.0709
 1943PEP     CB74015  10.255   3.206  15.768  0.1667 -0.0810  0.1809
 1943PEP     CB74016  10.177   2.926  15.381 -0.2791  0.0748 -0.1435
 1943PEP     CB74017  10.236   2.808  14.989  0.0635 -0.0997  0.1126
 1943PEP     CB74018  10.492   2.514  14.856 -0.2350 -0.1067  0.3473
 1943PEP     CB74019  10.618   2.250  15.214  0.2543 -0.3253 -0.7174
 1943PEP     CB74020  10.511   2.097  15.631  0.0081  0.1854 -0.1925
 1943PEP     CB74021  10.276   2.287  16.000  0.1644 -0.2047  0.3397
 1943PEP     CB74022  10.037   2.694  16.023 -0.0142  0.0546  0.1902
 1943PEP     CB74023   9.771   3.116  15.747 -0.0618 -0.1953  0.2915
 1943PEP     CB74024   9.875   3.500  15.496  0.1502  0.4402 -0.3769
 1943PEP     CB74025  10.168   3.866  15.463  0.3048  0.1557 -0.0754
 1943PEP     CB74026  10.572   3.987  15.608  0.0806  0.0823 -0.2853
 1943PEP     CB74027  10.982   3.964  15.336  0.0460 -0.0364  0.0216
 1943PEP     CB74028  11.058   3.697  15.027  0.0593  0.1701  0.2641
 1943PEP     CB74029  11.030   3.287  15.094 -0.1827  0.3992  0.0517
 1943PEP     CB74030  11.250   2.980  15.328 -0.2690 -0.3187  0.0227
 1943PEP     CB74031  11.628   2.798  15.424 -0.1140  0.0360 -0.2835
 1943PEP     CB74032  11.886   2.409  15.421 -0.1671 -0.1760  0.4512
 1943PEP     CB74033  12.141   2.139  15.667  0.1510 -0.0281  0.0321
 1943PEP     CB74034  12.268   2.012  16.086  0.0498 -0.1416  0.1485
 1943PEP     CB74035  12.608   1.965  16.210 -0.1467 -0.3287 -0.1096
 1943PEP     CB74036  12.985   1.886  15.967  0.1542 -0.1709 -0.1173
 1943PEP     CB74037  13.291   1.974  15.734 -0.3673 -0.0996 -0.0067
 1943PEP     CB74038  13.683   2.066  15.639  0.1390 -0.0115  0.2851
 1943PEP     CB74039  13.942   2.341  15.557  0.2216 -0.1878  0.0396
 1943PEP     CB74040  14.267   2.523  15.644  0.0647  0.1713 -0.2036
 1944PEP     CB74041  21.040  15.001  16.580  0.2248  0.3698 -0.4987
 1944PEP     CB74042  21.384  14.978  16.779  0.2173  0.3108 -0.0303
 1944PEP     CB74043  21.792  14.725  16.835 -0.3718  0.1749  0.3964
 1944PEP     CB74044  21.914  14.266  16.839  0.0366 -0.1745  0.2350
 1944PEP     CB74045  21.863  13.884  16.620  0.5168 -0.1829 -0.2012
 1944PEP     CB74046  21.801  13.602  16.353  0.2268 -0.1620 -0.1813
 1944PEP     CB74047  21.865  13.475  15.966 -0.1382 -0.1091  0.1964
 1944PEP     CB74048  21.709  13.513  15.525 -0.1224  0.0582 -0.0691
 1944PEP     CB74049  21.876  13.550  15.123  0.3298 -0.1396 -0.1746
 1944PEP     CB74050  22.107  13.355  14.769 -0.0395 -0.6367  0.1198
 1944PEP     CB74051  22.258  13.005  14.542  0.2032  0.0471 -0.1725
 1944PEP     CB74052  22.267  12.560  14.760  0.0890  0.3265 -0.1438
 1944PEP     CB74053  21.934  12.395  14.986  0.0604 -0.5214 -0.5098
 1944PEP     CB74054  21.800  12.340  15.394  0.1416  0.2896 -0.1134
 1944PEP     CB74055  21.740  12.511  15.805 -0.3043 -0.0340  0.1834
 1944PEP     CB74056  21.649  12.597  16.227 -0.1003  0.1880  0.2722
 1944PEP     CB74057  21.482  12.339  16.622 -0.0305 -0.1079  0.0203
 1944PEP     CB74058  21.341  11.908  16.848  0.1089  0.0817 -0.1444
 1944PEP     CB74059  20.887  11.719  16.807  0.2149  0.0415  0.0137
 1944PEP     CB74060  20.630  11.443  16.556  0.0698  0.1547 -0.0900
 1944PEP     CB74061  20.890  11.014  16.375  0.2455  0.1418 -0.0332
 1944PEP     CB74062  21.286  11.132  16.180  0.0740 -0.1762  0.1959
 1944PEP     CB74063  21.702  11.109  16.199 -0.1515 -0.0292  0.1604
 1944PEP     CB74064  22.012  11.020  16.421  0.0893 -0.0229  0.2104
 1944PEP     CB74065  22.296  11.103  16.707  0.0520 -0.0671 -0.0270
 1944PEP     CB74066  22.777  11.240  16.771  0.1852 -0.1325 -0.0730
 1944PEP     CB74067  23.054  11.290  16.425 -0.1678  0.1715 -0.1166
 1944PEP     CB74068  22.901  11.048  16.047 -0.1846 -0.1852  0.1058
 1944PEP     CB74069  22.674  10.604  15.916 -0.1828  0.1575 -0.1565
 1944PEP     CB74070  22.534  10.166  15.872 -0.0763  0.1359  0.0493
 1944PEP     CB74071  22.434   9.819  15.992 -0.3181  0.1112  0.0150
 1944PEP     CB74072  22.583   9.466  16.118  0.0834  0.1416 -0.0807
 1944PEP     CB74073  22.979   9.204  15.961  0.0434 -0.0462 -0.3630
 1944PEP     CB74074  23.340   9.157  15.787 -0.0114 -0.1780 -0.0299
 1944PEP     CB74075  23.672   9.081  15.518 -0.1825 -0.2742 -0.2352
 1944PEP     CB74076  24.094   9.220  15.636  0.2248  0.0377  0.0088
 1944PEP     CB74077  24.474   9.126  15.811 -0.3055  0.1467  0.1008
 1944PEP     CB74078  24.551   8.618  15.757  0.2389 -0.0274 -0.4747
 1944PEP     CB74079  24.887   8.350  15.600  0.1221  0.2428 -0.0924
 1944PEP     CB74080  25.335   8.352  15.497  0.3504  0.3654 -0.0034
 1945PEP     CB74081   0.514  19.556  20.006  0.2010  0.0965 -0.1904
 1945PEP     CB74082   0.720  19.344  19.763  0.0947  0.1322  0.2554
 1945PEP     CB74083   0.690  19.196  19.354 -0.1619 -0.2211 -0.2062
 1945PEP     CB74084   0.622  19.269  18.913 -0.3147  0.0386  0.0591
 1945PEP     CB74085   0.813  19.336  18.449 -0.2697  0.1273  0.0289
 1945PEP     CB74086   0.931  19.079  18.110  0.5406 -0.1751 -0.0667
 1945PEP     CB74087   0.668  18.814  17.863 -0.1856  0.0255 -0.3123
 1945PEP     CB74088   0.472  18.727  17.529  0.3574  0.3547  0.3108
 1945PEP     CB74089   0.498  18.866  17.135 -0.2616 -0.4271  0.1896
 1945PEP     CB74090   0.743  19.101  16.828  0.1525 -0.1858  0.0561
 1945PEP     CB74091   0.904  19.089  16.378  0.5579  0.1114 -0.0228
 1945PEP     CB74092   0.971  18.780  16.027  0.2453 -0.2493 -0.1876
 1945PEP     CB74093   0.760  18.421  15.932 -0.0422  0.0053 -0.0487
 1945PEP     CB74094   0.672  17.943  15.759 -0.0374  0.1122 -0.4711
 1945PEP     CB74095   0.819  17.674  15.441 -0.2765 -0.2511  0.1699
 1945PEP     CB74096   1.248  17.549  15.291  0.2965  0.0559 -0.0791
 1945PEP     CB74097   1.562  17.261  15.395 -0.0709 -0.2459 -0.0788
 1945PEP     CB74098   1.488  16.942  15.725 -0.0645 -0.0544  0.1440
 1945PEP     CB74099   1.105  16.679  15.863  0.0473 -0.0573  0.1731
 1945PEP     CB74100   0.762  16.499  15.861 -0.1073 -0.4587 -0.2491
 1945PEP     CB74101   0.455  16.321  16.009 -0.0175  0.0605  0.2554
 1945PEP     CB74102   0.071  16.522  16.131  0.0720 -0.0034 -0.2281
 1945PEP     CB74103  -0.318  16.536  15.930 -0.1423  0.1679  0.2388
 1945PEP     CB74104  -0.512  16.070  15.833 -0.0007  0.1221 -0.0292
 1945PEP     CB74105  -0.365  15.757  16.020 -0.3756  0.1497  0.2621
 1945PEP     CB74106   0.063  15.693  16.107  0.3894 -0.2933  0.0529
 1945PEP     CB74107   0.474  15.819  15.989  0.3185 -0.0537  0.2491
 1945PEP     CB74108   0.811  15.766  15.731 -0.3963  0.0548 -0.1823
 1945PEP     CB74109   1.075  15.433  15.619  0.2568 -0.0857 -0.3291
 1945PEP     CB74110   1.219  15.034  15.480  0.0025 -0.2300  0.0214
 1945PEP     CB74111   0.965  14.645  15.426 -0.0014  0.0623 -0.2836
 1945PEP     CB74112   0.521  14.739  15.236 -0.1734  0.7364  0.1507
 1945PEP     CB74113   0.421  15.179  15.105  0.0682  0.1000  0.1660
 1945PEP     CB74114   0.598  15.379  14.804  0.0218 -0.0287  0.5523
 1945PEP     CB74115   0.958  15.413  14.599  0.0983  0.6128 -0.2858
 1945PEP     CB74116   1.378  15.449  14.573  0.1988 -0.2340  0.0432
 1945PEP     CB74117   1.707  15.666  14.274 -0.1095  0.0812  0.0366
 1945PEP     CB74118   2.123  15.827  14.220  0.0211 -0.2073  0.0916
 1945PEP     CB74119   2.400  15.647  14.133 -0.4644  0.2843 -0.1442
 1945PEP     CB74120   2.477  15.512  13.745 -0.2257 -0.0167  0.2426
 1946PEP     CB74121  16.057   7.941  13.181  0.2508  0.0607  0.0127
 1946PEP     CB74122  15.876   8.411  13.261 -0.3571 -0.1381  0.0208
 1946PEP     CB74123  16.057   8.696  13.211 -0.4120  0.3766  0.0397
 1946PEP     CB74124  16.345   8.860  12.959 -0.1513 -0.1486  0.0292
 1946PEP     CB74125  16.528   8.674  12.592 -0.2410 -0.1693 -0.1698
 1946PEP     CB74126  16.600   8.271  12.614  0.2908 -0.2843 -0.0959
 1946PEP     CB74127  16.322   7.848  12.760  0.0666 -0.4616  0.0456
 1946PEP     CB74128  16.258   7.494  12.474  0.0260  0.3254  0.3427
 1946PEP     CB74129  16.428   7.581  11.948  0.2482  0.1513  0.1622
 1946PEP     CB74130  16.443   7.986  11.744  0.2497  0.3320 -0.0668
 1946PEP     CB74131  16.642   8.330  11.660 -0.4198  0.0379  0.1797
 1946PEP     CB74132  16.847   8.656  11.812  0.0361 -0.1264  0.3144
 1946PEP     CB74133  17.112   8.984  11.881 -0.0005 -0.1842  0.1123
 1946PEP     CB74134  17.051   9.370  12.234  0.0267  0.1387 -0.3804
 1946PEP     CB74135  16.558   9.431  12.161 -0.3473 -0.1548 -0.0686
 1946PEP     CB74136  16.329   9.184  11.903  0.4008 -0.1227  0.0842
 1946PEP     CB74137  16.342   8.744  11.785  0.4108  0.1210 -0.0209
 1946PEP     CB74138  16.436   8.407  12.050 -0.1372  0.1312  0.1485
 1946PEP     CB74139  16.194   8.399  12.380 -0.1326  0.1019  0.4338
 1946PEP     CB74140  16.186   8.370  12.872  0.3102 -0.0632  0.0922
 1946PEP     CB74141  16.381   8.298  13.333 -0.1910 -0.0811 -0.2045
 1946PEP     CB74142  16.632   8.017  13.631  0.2101 -0.1692 -0.1470
 1946PEP     CB74143  16.897   8.035  13.982 -0.0091  0.1513  0.0475
 1946PEP     CB74144  17.221   8.102  14.194 -0.0749  0.1135  0.0081
 1946PEP     CB74145  17.555   8.118  14.623  0.1215 -0.0926 -0.1949
 1946PEP     CB74146  17.366   7.989  15.061 -0.2830 -0.2602 -0.2860
 1946PEP     CB74147  17.305   8.097  15.475  0.0860  0.1258  0.0056
 1946PEP     CB74148  17.298   8.488  15.815 -0.1020  0.1797 -0.1135
 1946PEP     CB74149  17.263   8.890  16.085  0.2321 -0.0190  0.1669
 1946PEP     CB74150  17.410   9.203  16.156  0.0476  0.0988 -0.0894
 1946PEP     CB74151  17.627   9.392  16.543 -0.3032  0.1713  0.0533
 1946PEP     CB74152  17.943   9.479  16.847 -0.0243  0.3343  0.1556
 1946PEP     CB74153  18.266   9.489  17.085  0.3396 -0.0537 -0.3540
 1946PEP     CB74154  18.630   9.247  17.284 -0.3856  0.3228 -0.3569
 1946PEP     CB74155  18.939   8.979  17.527 -0.5851 -0.1076 -0.1173
 1946PEP     CB74156  19.274   8.994  17.857  0.2725 -0.1410  0.0041
 1946PEP     CB74157  19.686   9.109  17.851  0.2379  0.3828 -0.2966
 1946PEP     CB74158  19.812   9.474  17.672  0.1103 -0.0114  0.2917
 1946PEP     CB74159  19.904   9.875  17.801 -0.5778  0.2404 -0.0051
 1946PEP     CB74160  20.138  10.160  18.143 -0.1467 -0.5275 -0.3367
 1947PEP     CB74161  20.097   6.608   4.009 -0.3281 -0.1336 -0.3855
 1947PEP     CB74162  20.166   6.482   3.644  0.0347  0.5453 -0.1723
 1947PEP     CB74163  20.381   6.663   3.350  0.4030 -0.0950  0.1907
 1947PEP     CB74164  20.389   7.044   3.018  0.3849 -0.0396  0.1394
 1947PEP     CB74165  20.415   7.195   2.711 -0.0756 -0.2159 -0.0682
 1947PEP     CB74166  20.228   7.442   2.395  0.0445  0.4563  0.3664
 1947PEP     CB74167  20.004   7.783   2.319  0.1222 -0.3612 -0.3846
 1947PEP     CB74168  19.961   8.245   2.293 -0.0596 -0.0012  0.1206
 1947PEP     CB74169  20.033   8.656   2.085 -0.0769 -0.0876  0.1096
 1947PEP     CB74170  20.163   8.985   2.253  0.0969 -0.0047 -0.0371
 1947PEP     CB74171  20.179   9.185   2.570 -0.0980  0.1263 -0.2353
 1947PEP     CB74172  20.284   9.308   3.019 -0.4912  0.1017 -0.4290
 1947PEP     CB74173  20.345   9.070   3.470  0.3892  0.1119  0.0805
 1947PEP     CB74174  20.614   8.959   3.794 -0.3963  0.2358  0.1850
 1947PEP     CB74175  20.836   8.550   3.870  0.2102 -0.4534  0.0910
 1947PEP     CB74176  21.155   8.360   3.784 -0.1969  0.1707  0.1651
 1947PEP     CB74177  21.344   8.347   3.331  0.2081 -0.0946  0.1065
 1947PEP     CB74178  21.214   8.328   3.008 -0.2570  0.2217 -0.1365
 1947PEP     CB74179  21.360   8.330   2.603 -0.2105 -0.2361 -0.1152
 1947PEP     CB74180  21.504   8.619   2.366  0.0926  0.2710 -0.0105
 1947PEP     CB74181  21.480   9.012   2.300 -0.0420 -0.1886 -0.2028
 1947PEP     CB74182  21.301   9.483   2.485  0.1566 -0.4517 -0.0874
 1947PEP     CB74183  21.446   9.650   2.881 -0.1763 -0.2600  0.1044
 1947PEP     CB74184  21.569   9.345   3.221 -0.1481 -0.2130 -0.0112
 1947PEP     CB74185  21.482   8.884   3.250 -0.0991 -0.4175 -0.2324
 1947PEP     CB74186  21.699   8.611   2.861 -0.1453 -0.0956  0.2176
 1947PEP     CB74187  21.926   8.675   2.579 -0.1674 -0.1012 -0.1761
 1947PEP     CB74188  22.008   9.043   2.334  0.4366  0.1718  0.1937
 1947PEP     CB74189  21.782   9.302   2.090 -0.0055  0.4076 -0.0988
 1947PEP     CB74190  21.483   9.338   1.740 -0.0772  0.0357  0.0687
 1947PEP     CB74191  21.231   9.085   1.485  0.3935  0.1791  0.3846
 1947PEP     CB74192  21.143   8.670   1.390  0.4432 -0.2284 -0.0779
 1947PEP     CB74193  20.859   8.382   1.257  0.0412 -0.2347  0.0775
 1947PEP     CB74194  20.408   8.404   0.996 -0.3359 -0.2999  0.1492
 1947PEP     CB74195  20.093   8.093   0.776 -0.1451  0.0302  0.0294
 1947PEP     CB74196  20.271   7.922   0.417 -0.0843 -0.0312 -0.0265
 1947PEP     CB74197  20.489   7.602   0.331  0.2240 -0.1030  0.0563
 1947PEP     CB74198  20.153   7.311   0.002  0.1241  0.1007  0.3635
 1947PEP     CB74199  19.621   7.313  -0.043 -0.3025  0.0490 -0.4059
 1947PEP     CB74200  19.346   7.327   0.255  0.1331  0.1549  0.0831
 1948PEP     CB74201   1.269  12.376  10.458  0.2696 -0.0029 -0.1371
 1948PEP     CB74202   0.948  12.613  10.410 -0.1666  0.0494  0.1153
 1948PEP     CB74203   0.852  13.080  10.465  0.5123 -0.1340  0.1188
 1948PEP     CB74204   0.713  13.449  10.414 -0.0908 -0.1565 -0.1297
 1948PEP     CB74205   0.642  13.842  10.400 -0.0418 -0.1525 -0.1198
 1948PEP     CB74206   0.894  14.189  10.184 -0.3026  0.1077 -0.0296
 1948PEP     CB74207   1.014  14.179   9.771 -0.2597 -0.0784 -0.0278
 1948PEP     CB74208   0.834  13.956   9.411  0.0072  0.2737 -0.1649
 1948PEP     CB74209   0.535  14.095   9.107 -0.0636 -0.3832  0.2016
 1948PEP     CB74210   0.350  14.452   8.879 -0.1055  0.1180  0.0421
 1948PEP     CB74211   0.268  14.506   8.458 -0.2441 -0.4573  0.1489
 1948PEP     CB74212   0.590  14.390   8.032  0.0826  0.3755 -0.1509
 1948PEP     CB74213   1.034  14.357   7.958  0.2012 -0.2518 -0.1609
 1948PEP     CB74214   1.340  14.567   8.235  0.2587 -0.0300 -0.1146
 1948PEP     CB74215   1.346  15.051   8.295 -0.2588 -0.1869 -0.1827
 1948PEP     CB74216   1.132  15.430   8.116  0.1044 -0.0126  0.4768
 1948PEP     CB74217   1.017  15.323   7.594  0.4201  0.2394  0.0179
 1948PEP     CB74218   0.683  15.386   7.285 -0.0420 -0.0121 -0.0741
 1948PEP     CB74219   0.335  15.283   6.982 -0.2295 -0.0530 -0.2313
 1948PEP     CB74220  -0.090  15.456   6.803  0.1495 -0.2898  0.3601
 1948PEP     CB74221  -0.294  15.490   6.426  0.0256 -0.1089 -0.1401
 1948PEP     CB74222  -0.174  15.676   6.080 -0.0020  0.3119 -0.1427
 1948PEP     CB74223   0.151  15.643   5.817  0.2351  0.2202 -0.4898
 1948PEP     CB74224   0.559  15.820   5.646 -0.0643  0.1754 -0.1327
 1948PEP     CB74225   0.620  16.226   5.593 -0.0075 -0.0528  0.0764
 1948PEP     CB74226   0.459  16.562   5.802 -0.2508 -0.1192 -0.0357
 1948PEP     CB74227   0.238  16.903   5.760  0.3636 -0.2042  0.0533
 1948PEP     CB74228  -0.144  17.134   5.498 -0.2550 -0.4139 -0.2141
 1948PEP     CB74229  -0.388  17.504   5.364  0.3053 -0.1374  0.0099
 1948PEP     CB74230  -0.798  17.818   5.412  0.2212  0.3262 -0.2769
 1948PEP     CB74231  -0.982  18.230   5.175  0.1461 -0.0700  0.0076
 1948PEP     CB74232  -1.433  18.491   5.098 -0.0829 -0.0255  0.2908
 1948PEP     CB74233  -1.667  18.908   5.032  0.2472  0.2816 -0.1834
 1948PEP     CB74234  -1.883  19.137   4.696 -0.2423 -0.1799  0.0001
 1948PEP     CB74235  -2.191  18.909   4.398 -0.1717 -0.2908 -0.0313
 1948PEP     CB74236  -2.374  18.653   4.017 -0.1257  0.1884 -0.1082
 1948PEP     CB74237  -2.464  18.518   3.690 -0.1931  0.2041 -0.0414
 1948PEP     CB74238  -2.361  18.403   3.252  0.0447 -0.1109  0.3720
 1948PEP     CB74239  -2.081  18.821   3.238 -0.1962  0.2067 -0.1570
 1948PEP     CB74240  -2.275  19.169   3.473  0.1283  0.1922  0.0612
 1949PEP     CB74241  17.253  18.436  12.374 -0.2890 -0.4440 -0.2372
 1949PEP     CB74242  17.643  18.253  12.404 -0.1639 -0.0901 -0.0340
 1949PEP     CB74243  17.751  17.866  12.723 -0.1797 -0.1526 -0.3022
 1949PEP     CB74244  17.460  17.532  12.829  0.1013  0.3425 -0.2073
 1949PEP     CB74245  17.197  17.476  12.511 -0.3078 -0.0658 -0.2074
 1949PEP     CB74246  17.361  17.586  12.156 -0.5036 -0.2979  0.1278
 1949PEP     CB74247  17.823  17.410  12.094  0.1359 -0.1785  0.1807
 1949PEP     CB74248  17.980  17.006  12.255 -0.3096  0.2750 -0.3532
 1949PEP     CB74249  17.986  16.744  12.482  0.1001 -0.0558 -0.2189
 1949PEP     CB74250  18.071  16.544  12.892  0.0233 -0.2043 -0.0148
 1949PEP     CB74251  17.957  16.340  13.252 -0.0497 -0.1237 -0.4202
 1949PEP     CB74252  17.791  16.240  13.729 -0.1875 -0.2886  0.0266
 1949PEP     CB74253  17.765  16.193  14.195 -0.1969 -0.2294  0.1007
 1949PEP     CB74254  18.025  16.264  14.474  0.0750 -0.0054  0.0421
 1949PEP     CB74255  18.444  16.480  14.374  0.3874 -0.1105  0.1256
 1949PEP     CB74256  18.790  16.289  14.363 -0.2167  0.0662  0.0864
 1949PEP     CB74257  18.929  15.836  14.226 -0.0079  0.1849  0.1453
 1949PEP     CB74258  18.806  15.599  13.829 -0.0537 -0.0825 -0.1483
 1949PEP     CB74259  18.517  15.497  13.464 -0.2147 -0.4277  0.6268
 1949PEP     CB74260  18.486  15.425  12.923 -0.2311  0.0829  0.3862
 1949PEP     CB74261  18.747  15.336  12.582 -0.1217 -0.0841  0.2174
 1949PEP     CB74262  18.770  14.932  12.287  0.2607  0.1797 -0.1798
 1949PEP     CB74263  18.537  14.577  12.341 -0.3113 -0.2355 -0.0091
 1949PEP     CB74264  18.207  14.561  12.671 -0.0237 -0.3433 -0.1285
 1949PEP     CB74265  17.808  14.426  12.949 -0.0416  0.2762  0.0756
 1949PEP     CB74266  17.393  14.345  13.091 -0.1155  0.0981 -0.2560
 1949PEP     CB74267  16.991  14.382  13.238 -0.3618  0.2764  0.0227
 1949PEP     CB74268  16.662  14.075  13.407  0.3481 -0.1370  0.0177
 1949PEP     CB74269  16.614  13.607  13.344  0.0114 -0.3255  0.4049
 1949PEP     CB74270  16.917  13.260  13.427 -0.5001  0.4102 -0.0625
 1949PEP     CB74271  17.047  13.183  13.887  0.0943 -0.1398  0.1261
 1949PEP     CB74272  16.950  13.430  14.347 -0.0452 -0.0267 -0.0537
 1949PEP     CB74273  16.587  13.783  14.331  0.0201  0.0841 -0.4571
 1949PEP     CB74274  16.665  14.184  14.117  0.0349 -0.1047  0.4917
 1949PEP     CB74275  16.995  14.163  13.776  0.2701 -0.0468  0.0580
 1949PEP     CB74276  17.407  14.164  14.001  0.5599  0.4623  0.2339
 1949PEP     CB74277  17.475  14.179  14.567 -0.0327  0.0616  0.1220
 1949PEP     CB74278  17.301  14.533  14.751  0.1164 -0.0306  0.2028
 1949PEP     CB74279  17.012  14.764  14.421 -0.2171 -0.1449 -0.0669
 1949PEP     CB74280  16.938  14.623  14.132  0.2187 -0.3150  0.3962
 1950PEP     CB74281   5.115   8.800   9.560  0.4537  0.2147  0.0512
 1950PEP     CB74282   5.369   9.021   9.234  0.1163  0.0834 -0.2781
 1950PEP     CB74283   5.579   9.028   8.781 -0.1444  0.2508  0.1594
 1950PEP     CB74284   5.801   9.290   8.431  0.1612  0.2085  0.1131
 1950PEP     CB74285   5.834   9.479   8.020  0.1132 -0.1455  0.4095
 1950PEP     CB74286   5.705   9.718   7.697  0.1954 -0.0226 -0.2146
 1950PEP     CB74287   5.254   9.936   7.648  0.2899  0.1041  0.2328
 1950PEP     CB74288   4.883   9.941   7.963 -0.0869 -0.2223 -0.0434
 1950PEP     CB74289   4.489   9.926   8.037 -0.1091  0.0709  0.0339
 1950PEP     CB74290   4.078  10.135   7.996  0.4461  0.2031  0.4610
 1950PEP     CB74291   3.640  10.173   7.770  0.3019 -0.2137  0.0616
 1950PEP     CB74292   3.265  10.326   7.647 -0.0484  0.2582 -0.2137
 1950PEP     CB74293   2.900  10.028   7.770  0.1184  0.4174 -0.1688
 1950PEP     CB74294   2.764   9.774   8.134 -0.0394 -0.2784 -0.0008
 1950PEP     CB74295   2.478   9.377   8.320 -0.0828  0.0486 -0.2780
 1950PEP     CB74296   2.179   9.448   8.592 -0.1752 -0.0021 -0.3225
 1950PEP     CB74297   2.261   9.756   8.988  0.0940  0.2516 -0.4111
 1950PEP     CB74298   2.570   9.875   9.250  0.1381 -0.0740  0.1126
 1950PEP     CB74299   3.037   9.777   9.418  0.0823 -0.1511  0.0473
 1950PEP     CB74300   3.237   9.388   9.219 -0.0346 -0.0271 -0.3103
 1950PEP     CB74301   2.995   9.063   9.041  0.4651 -0.2640 -0.2602
 1950PEP     CB74302   2.888   9.076   8.607  0.3338  0.0074 -0.1462
 1950PEP     CB74303   2.933   9.257   8.142 -0.2163  0.0810  0.0823
 1950PEP     CB74304   2.589   9.195   7.841 -0.3035  0.3056 -0.0994
 1950PEP     CB74305   2.279   8.966   8.090 -0.2894  0.1523  0.2717
 1950PEP     CB74306   2.235   8.878   8.531  0.2542 -0.0659 -0.2425
 1950PEP     CB74307   2.381   9.097   8.829  0.0870  0.2439 -0.1193
 1950PEP     CB74308   2.625   9.459   8.843 -0.0537 -0.3328 -0.1049
 1950PEP     CB74309   3.042   9.542   8.682  0.0716  0.0189 -0.0451
 1950PEP     CB74310   3.314   9.521   8.284 -0.2956  0.4313 -0.2846
 1950PEP     CB74311   3.443   9.206   8.043 -0.3392 -0.0592  0.3024
 1950PEP     CB74312   3.250   8.699   7.987 -0.2492 -0.0614 -0.4466
 1950PEP     CB74313   3.130   8.261   8.185  0.3967 -0.1620  0.3582
 1950PEP     CB74314   2.898   8.117   8.467  0.0170  0.0039 -0.1436
 1950PEP     CB74315   2.406   8.099   8.454 -0.1324 -0.0191 -0.2461
 1950PEP     CB74316   2.062   8.263   8.475 -0.0371  0.0545  0.0309
 1950PEP     CB74317   1.800   8.641   8.639 -0.3677  0.1134  0.3876
 1950PEP     CB74318   1.697   8.919   8.348 -0.0806  0.2467  0.0426
 1950PEP     CB74319   1.785   9.022   7.877  0.1112  0.0408  0.0416
 1950PEP     CB74320   1.877   9.237   7.450 -0.0896  0.1738 -0.4240
 1951PEP     CB74321  12.916   0.316  20.500 -0.1515 -0.0996 -0.0361
 1951PEP     CB74322  13.139   0.702  20.692 -0.0595  0.0398 -0.4442
 1951PEP     CB74323  13.373   1.024  20.541 -0.0609  0.2764 -0.0248
 1951PEP     CB74324  13.576   1.341  20.408  0.3330 -0.4137 -0.0543
 1951PEP     CB74325  13.792   1.647  20.151 -0.1194  0.2806  0.0017
 1951PEP     CB74326  13.774   2.000  19.856 -0.2373 -0.1678  0.2461
 1951PEP     CB74327  13.571   2.359  19.777  0.0101  0.0086 -0.1844
 1951PEP     CB74328  13.397   2.770  19.614 -0.0159 -0.0802  0.2708
 1951PEP     CB74329  13.183   3.139  19.661 -0.3743  0.2229  0.0076
 1951PEP     CB74330  13.226   3.484  19.396 -0.2245  0.0641  0.4296
 1951PEP     CB74331  13.623   3.668  19.377 -0.0040 -0.3532  0.2476
 1951PEP     CB74332  14.018   3.780  19.688  0.3714  0.1342  0.0346
 1951PEP     CB74333  14.432   3.863  19.950  0.3202 -0.2442  0.0004
 1951PEP     CB74334  14.803   4.066  20.092  0.2211 -0.3073 -0.2094
 1951PEP     CB74335  14.952   4.385  20.409  0.1052  0.0631 -0.2009
 1951PEP     CB74336  15.413   4.593  20.548  0.0598 -0.1569 -0.1020
 1951PEP     CB74337  15.681   4.739  20.942 -0.4094 -0.2298  0.2023
 1951PEP     CB74338  15.599   4.900  21.339 -0.1536  0.2794  0.0505
 1951PEP     CB74339  15.327   5.233  21.426 -0.0339  0.2549 -0.0665
 1951PEP     CB74340  14.986   5.404  21.157 -0.1133 -0.2080 -0.0253
 1951PEP     CB74341  14.603   5.595  21.151  0.3888  0.0749  0.0939
 1951PEP     CB74342  14.287   5.939  20.998 -0.0010 -0.0884  0.3082
 1951PEP     CB74343  13.962   6.089  20.723 -0.1120 -0.0840 -0.1750
 1951PEP     CB74344  13.664   5.877  20.444  0.0397  0.2306  0.3914
 1951PEP     CB74345  13.489   5.470  20.412  0.4105  0.2599 -0.5008
 1951PEP     CB74346  13.831   5.057  20.398 -0.3793  0.3180  0.3391
 1951PEP     CB74347  14.147   4.834  20.674  0.0494 -0.0245  0.0198
 1951PEP     CB74348  14.487   4.420  20.843  0.1618 -0.1323 -0.0890
 1951PEP     CB74349  14.456   4.124  21.153 -0.0092 -0.3014  0.1626
 1951PEP     CB74350  14.194   3.857  21.305  0.1446  0.0797  0.0368
 1951PEP     CB74351  13.757   3.785  21.293  0.2104  0.3206  0.1372
 1951PEP     CB74352  13.408   3.986  20.902  0.0876  0.0904 -0.0497
 1951PEP     CB74353  13.536   4.116  20.439  0.2032  0.1530 -0.0199
 1951PEP     CB74354  13.486   3.916  20.015  0.3701 -0.1310  0.1466
 1951PEP     CB74355  13.193   3.928  19.696 -0.2903  0.1810  0.5347
 1951PEP     CB74356  12.872   4.362  19.694  0.2325 -0.0602  0.0666
 1951PEP     CB74357  12.447   4.369  19.554  0.0749  0.0113 -0.3862
 1951PEP     CB74358  12.085   4.320  19.764 -0.0821 -0.2869  0.2243
 1951PEP     CB74359  11.705   4.491  19.819  0.2197  0.0083 -0.0666
 1951PEP     CB74360  11.285   4.642  19.740  0.1551  0.1486  0.2269
 1952PEP     CB74361   3.538   9.686  21.915  0.3524 -0.2084 -0.0279
 1952PEP     CB74362   3.761   9.763  22.327  0.0843 -0.1925  0.3931
 1952PEP     CB74363   3.835   9.928  22.750  0.0327 -0.1533 -0.5267
 1952PEP     CB74364   4.235  10.052  22.970  0.2031 -0.2270  0.1981
 1952PEP     CB74365   4.712   9.783  22.834 -0.2175 -0.0648  0.2776
 1952PEP     CB74366   4.913   9.360  22.876 -0.3989 -0.1070 -0.3476
 1952PEP     CB74367   4.994   9.144  23.221 -0.0297  0.0120  0.3714
 1952PEP     CB74368   4.877   8.930  23.600 -0.1113 -0.4742 -0.2789
 1952PEP     CB74369   4.449   8.967  23.776 -0.1920  0.1805 -0.4517
 1952PEP     CB74370   4.132   8.981  23.497 -0.1187 -0.4744 -0.3365
 1952PEP     CB74371   3.947   9.189  23.129  0.2345 -0.3424  0.1596
 1952PEP     CB74372   3.819   9.401  22.776  0.1184  0.1570  0.2251
 1952PEP     CB74373   3.522   9.325  22.459 -0.1292 -0.2990 -0.0034
 1952PEP     CB74374   3.211   9.405  22.103  0.0126 -0.1436 -0.1582
 1952PEP     CB74375   2.967   9.654  21.816 -0.2950 -0.0402 -0.1152
 1952PEP     CB74376   2.727   9.712  21.407  0.1841 -0.0242 -0.7729
 1952PEP     CB74377   2.811   9.985  21.073 -0.0104  0.0645  0.2116
 1952PEP     CB74378   3.077  10.276  20.930  0.1815  0.0646  0.3895
 1952PEP     CB74379   3.270  10.625  20.979 -0.1077  0.3164  0.0550
 1952PEP     CB74380   3.288  11.044  20.987 -0.0287 -0.0360  0.1254
 1952PEP     CB74381   3.636  11.294  21.020 -0.0978 -0.0375 -0.1700
 1952PEP     CB74382   4.086  11.334  21.252 -0.0517  0.1739  0.0100
 1952PEP     CB74383   4.421  11.055  21.401 -0.3890 -0.1362  0.0236
 1952PEP     CB74384   4.480  10.557  21.523  0.0625 -0.1603 -0.2687
 1952PEP     CB74385   4.840  10.286  21.273  0.0648 -0.2035  0.0471
 1952PEP     CB74386   5.226  10.363  21.147 -0.1247 -0.2485 -0.4442
 1952PEP     CB74387   5.595  10.319  20.846  0.5256  0.0568  0.1000
 1952PEP     CB74388   5.919  10.093  20.669 -0.2665  0.1441  0.0322
 1952PEP     CB74389   6.167   9.740  20.663  0.1920  0.0080 -0.2251
 1952PEP     CB74390   6.559   9.703  20.962  0.0067  0.4261  0.0878
 1952PEP     CB74391   6.873   9.468  21.242 -0.1678 -0.2272 -0.1211
 1952PEP     CB74392   6.914   9.045  21.387 -0.1523 -0.0612  0.1285
 1952PEP     CB74393   6.685   8.630  21.379 -0.2553  0.3107 -0.3041
 1952PEP     CB74394   6.740   8.236  21.282  0.5246 -0.0227  0.0398
 1952PEP     CB74395   7.104   8.005  21.244  0.1853 -0.3802 -0.0781
 1952PEP     CB74396   7.623   8.170  21.139  0.0296  0.2563 -0.2405
 1952PEP     CB74397   7.908   8.454  21.174  0.1831  0.1394  0.1818
 1952PEP     CB74398   7.937   8.811  21.139  0.0897  0.1470  0.1517
 1952PEP     CB74399   7.811   9.138  21.288  0.0338 -0.2531 -0.5064
 1952PEP     CB74400   7.445   9.451  21.381 -0.1690  0.0265  0.0350
 1953PEP     CB74401  11.933  15.207   0.346  0.2144  0.1735 -0.0902
 1953PEP     CB74402  12.278  15.139   0.395  0.0770 -0.1601  0.0264
 1953PEP     CB74403  12.700  15.282   0.558 -0.3229  0.0188 -0.1437
 1953PEP     CB74404  12.969  15.366   0.947  0.0901 -0.3239  0.1485
 1953PEP     CB74405  13.301  15.444   1.177 -0.0791  0.1035  0.2000
 1953PEP     CB74406  13.615  15.551   1.314 -0.1485  0.1002 -0.2312
 1953PEP     CB74407  13.990  15.758   1.288  0.0372 -0.1219 -0.2216
 1953PEP     CB74408  14.318  15.954   1.284  0.0517  0.1130 -0.1641
 1953PEP     CB74409  14.553  16.215   1.109  0.0637 -0.0399  0.2267
 1953PEP     CB74410  14.643  16.658   1.026 -0.1227 -0.1422 -0.3109
 1953PEP     CB74411  14.606  17.038   1.195 -0.1319  0.1438  0.3758
 1953PEP     CB74412  14.734  17.301   1.512  0.2637 -0.2034 -0.2987
 1953PEP     CB74413  14.941  17.696   1.691 -0.1936 -0.1237 -0.0180
 1953PEP     CB74414  14.795  17.946   2.080 -0.0562  0.1277 -0.3604
 1953PEP     CB74415  14.673  17.745   2.406  0.1567 -0.2744 -0.0818
 1953PEP     CB74416  14.855  17.356   2.643  0.0554  0.1073 -0.0546
 1953PEP     CB74417  15.157  17.024   2.436  0.3006  0.1801 -0.3496
 1953PEP     CB74418  15.186  16.979   1.998 -0.1291 -0.0110 -0.0468
 1953PEP     CB74419  15.417  16.977   1.714 -0.0691 -0.0076  0.3359
 1953PEP     CB74420  15.484  17.075   1.302 -0.2110 -0.0469  0.1251
 1953PEP     CB74421  15.487  16.949   0.887  0.3674  0.0865  0.1983
 1953PEP     CB74422  15.510  16.638   0.523 -0.1018  0.1719 -0.0506
 1953PEP     CB74423  15.383  16.190   0.486 -0.4503 -0.3951 -0.1020
 1953PEP     CB74424  14.917  16.153   0.509  0.1897  0.2207  0.3956
 1953PEP     CB74425  14.652  15.815   0.747  0.0754  0.1761  0.3188
 1953PEP     CB74426  14.319  15.590   0.958 -0.1987  0.0233  0.6582
 1953PEP     CB74427  14.193  15.330   1.221 -0.1779 -0.0065 -0.1996
 1953PEP     CB74428  13.977  14.921   1.325  0.2875 -0.0404 -0.2074
 1953PEP     CB74429  14.007  14.544   1.113 -0.1171 -0.0176 -0.0610
 1953PEP     CB74430  13.962  14.436   0.760  0.3701  0.1754 -0.4862
 1953PEP     CB74431  13.813  14.698   0.443 -0.1328 -0.3299 -0.2225
 1953PEP     CB74432  13.860  14.856   0.005  0.3033 -0.0337 -0.4075
 1953PEP     CB74433  13.482  14.992  -0.292  0.0344 -0.0590 -0.0839
 1953PEP     CB74434  13.149  14.748  -0.256  0.1802 -0.1223 -0.0136
 1953PEP     CB74435  13.075  14.384  -0.131 -0.1542 -0.0124 -0.4259
 1953PEP     CB74436  12.828  13.897  -0.031  0.4806  0.1606  0.4155
 1953PEP     CB74437  12.448  13.590  -0.278 -0.3328  0.4630 -0.2376
 1953PEP     CB74438  12.001  13.644  -0.357 -0.0031 -0.0958 -0.0191
 1953PEP     CB74439  11.658  13.605  -0.656  0.0654 -0.1529 -0.2948
 1953PEP     CB74440  11.542  13.425  -1.004 -0.2142  0.0860  0.0313
 1954PEP     CB74441  16.831   4.391   8.049 -0.1598 -0.3449 -0.3273
 1954PEP     CB74442  16.641   4.690   8.295  0.0435  0.3693  0.1095
 1954PEP     CB74443  16.641   4.867   8.588 -0.0838 -0.2929  0.2242
 1954PEP     CB74444  16.561   5.213   8.889 -0.1058 -0.1000  0.0229
 1954PEP     CB74445  16.538   5.524   9.249 -0.0364 -0.0395  0.1374
 1954PEP     CB74446  16.351   5.735   9.490  0.1037  0.4651 -0.4171
 1954PEP     CB74447  16.335   6.099   9.692 -0.1349 -0.1688  0.1231
 1954PEP     CB74448  16.250   6.597   9.767 -0.3431  0.0705 -0.1583
 1954PEP     CB74449  16.341   7.030   9.793  0.2002  0.3614 -0.2085
 1954PEP     CB74450  16.120   7.506   9.659 -0.0198 -0.1864 -0.0353
 1954PEP     CB74451  16.043   7.778   9.180 -0.0035  0.0555 -0.0948
 1954PEP     CB74452  16.020   7.855   8.768 -0.4230  0.1957 -0.0528
 1954PEP     CB74453  15.903   7.630   8.373 -0.0436  0.1318 -0.1344
 1954PEP     CB74454  15.997   7.266   8.110 -0.2958 -0.1997 -0.1148
 1954PEP     CB74455  16.379   7.190   7.864  0.2128  0.0094 -0.0930
 1954PEP     CB74456  16.629   7.321   7.566 -0.3818 -0.1851 -0.3038
 1954PEP     CB74457  16.731   7.391   7.276  0.3040 -0.2590  0.1988
 1954PEP     CB74458  16.561   7.691   6.883  0.1889 -0.2565 -0.5222
 1954PEP     CB74459  16.432   7.977   6.689 -0.1405  0.1724 -0.1309
 1954PEP     CB74460  16.015   8.165   6.592 -0.1327  0.0280  0.1608
 1954PEP     CB74461  15.644   8.205   6.865  0.1236 -0.5231  0.0159
 1954PEP     CB74462  15.558   7.874   7.195  0.2764 -0.1142 -0.0639
 1954PEP     CB74463  15.416   7.906   7.557  0.0521  0.3440 -0.0338
 1954PEP     CB74464  15.137   8.006   7.850  0.3140 -0.6603 -0.1598
 1954PEP     CB74465  14.790   7.857   8.036 -0.1897 -0.3082 -0.0310
 1954PEP     CB74466  14.623   7.732   8.426 -0.1305  0.1774 -0.1298
 1954PEP     CB74467  14.670   7.386   8.684 -0.2530 -0.0284  0.0566
 1954PEP     CB74468  14.814   6.952   8.641 -0.0810  0.0206  0.0106
 1954PEP     CB74469  14.835   6.599   8.896  0.2028  0.2071  0.1679
 1954PEP     CB74470  14.743   6.213   9.150 -0.3039  0.0363  0.0192
 1954PEP     CB74471  14.678   5.814   9.263 -0.1672 -0.0550  0.1251
 1954PEP     CB74472  14.430   5.588   9.381  0.0800  0.1941 -0.2210
 1954PEP     CB74473  14.092   5.297   9.402  0.2443  0.0155  0.1861
 1954PEP     CB74474  13.752   4.992   9.579  0.1401  0.2727 -0.1553
 1954PEP     CB74475  13.627   4.785   9.961  0.0864  0.1777  0.2783
 1954PEP     CB74476  13.791   4.560  10.316  0.1140 -0.3610  0.2325
 1954PEP     CB74477  13.564   4.290  10.570  0.1603  0.1030  0.2518
 1954PEP     CB74478  13.315   4.375  10.882  0.1508  0.0883 -0.0980
 1954PEP     CB74479  13.203   4.724  11.068  0.1013  0.0393  0.1325
 1954PEP     CB74480  13.211   5.114  11.293 -0.0174  0.1390 -0.3448
 1955PEP     CB74481  20.798  10.316   6.984 -0.0581  0.4912 -0.0297
 1955PEP     CB74482  20.388  10.339   6.775  0.3599  0.2769 -0.0906
 1955PEP     CB74483  19.976  10.182   6.626  0.4616  0.1262  0.1676
 1955PEP     CB74484  19.587  10.018   6.568 -0.2947 -0.2388  0.2121
 1955PEP     CB74485  19.276   9.673   6.531 -0.1351  0.0296 -0.3063
 1955PEP     CB74486  19.256   9.363   6.794  0.0572 -0.1838 -0.3453
 1955PEP     CB74487  19.474   9.135   7.017  0.2574 -0.2984  0.1135
 1955PEP     CB74488  19.821   9.010   7.140 -0.2504  0.2448  0.1236
 1955PEP     CB74489  20.315   9.011   7.327  0.2445 -0.2852  0.2654
 1955PEP     CB74490  20.541   8.709   7.212 -0.0148 -0.0433 -0.1225
 1955PEP     CB74491  20.362   8.452   6.964 -0.1536 -0.1388 -0.1301
 1955PEP     CB74492  20.425   8.273   6.598  0.0830  0.1635 -0.3478
 1955PEP     CB74493  20.725   8.356   6.238  0.0782  0.1299 -0.0355
 1955PEP     CB74494  21.064   8.710   6.250 -0.1714  0.0168  0.2888
 1955PEP     CB74495  21.461   8.795   6.498 -0.0589  0.2624 -0.0086
 1955PEP     CB74496  21.846   8.941   6.677 -0.1195 -0.2666  0.0839
 1955PEP     CB74497  22.245   9.060   6.876  0.0059  0.0575 -0.1334
 1955PEP     CB74498  22.620   9.183   6.946 -0.0616 -0.1889 -0.0447
 1955PEP     CB74499  23.008   9.386   6.992 -0.0125 -0.1510 -0.0440
 1955PEP     CB74500  23.186   9.755   6.785  0.3407  0.0205 -0.1187
 1955PEP     CB74501  23.351  10.011   6.368  0.0110 -0.2579 -0.2488
 1955PEP     CB74502  23.577  10.150   5.902  0.0510 -0.2756  0.0931
 1955PEP     CB74503  23.922  10.118   5.761  0.2444  0.0009  0.1102
 1955PEP     CB74504  24.308  10.105   5.690 -0.0059 -0.1701 -0.0302
 1955PEP     CB74505  24.714  10.138   5.780 -0.1167 -0.0684  0.0686
 1955PEP     CB74506  25.164   9.904   5.866 -0.0452  0.1559  0.0908
 1955PEP     CB74507  25.501   9.796   6.063 -0.2700 -0.3396 -0.3215
 1955PEP     CB74508  25.810   9.491   6.051  0.0194 -0.0199 -0.0019
 1955PEP     CB74509  25.822   9.178   6.296  0.0039 -0.2006 -0.0752
 1955PEP     CB74510  26.021   8.813   6.515  0.1157  0.0244  0.4019
 1955PEP     CB74511  26.280   8.356   6.528  0.0251 -0.0871 -0.0528
 1955PEP     CB74512  26.348   7.992   6.828 -0.1089  0.0041  0.0196
 1955PEP     CB74513  26.726   7.881   7.044  0.0538 -0.0210  0.3971
 1955PEP     CB74514  27.012   8.038   7.328  0.1967 -0.4474  0.3000
 1955PEP     CB74515  27.238   8.108   7.703  0.2252  0.0499 -0.0845
 1955PEP     CB74516  27.500   8.392   7.877 -0.0875  0.1081 -0.0427
 1955PEP     CB74517  27.580   8.905   8.070  0.1107  0.0239 -0.2170
 1955PEP     CB74518  27.415   9.247   8.052  0.0585 -0.0807 -0.4455
 1955PEP     CB74519  27.136   9.545   8.180 -0.1682 -0.1068 -0.0315
 1955PEP     CB74520  26.758   9.482   8.129 -0.1093 -0.4115 -0.0960
 1956PEP     CB74521   7.662  17.137   0.538 -0.1383 -0.1397  0.0165
 1956PEP     CB74522   7.651  17.434   0.913  0.5129  0.1939  0.0645
 1956PEP     CB74523   7.606  17.470   1.430 -0.2106 -0.3971 -0.5041
 1956PEP     CB74524   7.840  17.382   1.865 -0.2340 -0.0928  0.2148
 1956PEP     CB74525   8.216  17.202   2.059  0.0832 -0.2089 -0.0609
 1956PEP     CB74526   8.650  17.302   1.927 -0.0685 -0.0292  0.0394
 1956PEP     CB74527   9.009  17.223   1.602  0.2158  0.1531 -0.2294
 1956PEP     CB74528   9.015  17.102   1.253 -0.0546 -0.3389 -0.1648
 1956PEP     CB74529   9.069  16.745   1.025  0.2856  0.1945 -0.3525
 1956PEP     CB74530   9.334  16.334   1.001  0.0167 -0.1320 -0.1261
 1956PEP     CB74531   9.615  16.029   1.232  0.1022  0.2490  0.0016
 1956PEP     CB74532   9.644  15.593   1.455  0.1320  0.4589 -0.0798
 1956PEP     CB74533   9.399  15.187   1.440 -0.1336  0.0634 -0.0304
 1956PEP     CB74534   9.006  15.134   1.199  0.2010 -0.0904 -0.1202
 1956PEP     CB74535   8.821  15.480   0.907 -0.1098  0.1219  0.0931
 1956PEP     CB74536   8.781  15.594   0.548  0.3409  0.0026 -0.1841
 1956PEP     CB74537   8.765  15.450   0.075 -0.6341 -0.2070  0.1986
 1956PEP     CB74538   9.007  15.082  -0.081 -0.0533 -0.3659 -0.2955
 1956PEP     CB74539   9.294  14.927   0.101  0.1094 -0.0504  0.0506
 1956PEP     CB74540   9.453  14.541   0.335  0.2914 -0.0179 -0.0524
 1956PEP     CB74541   9.457  14.066   0.353  0.3672  0.1585  0.0359
 1956PEP     CB74542   9.348  13.606   0.386 -0.1833 -0.1362 -0.1404
 1956PEP     CB74543   9.440  13.113   0.440  0.2257 -0.0198  0.0557
 1956PEP     CB74544   9.267  12.807   0.767  0.2284 -0.1723 -0.2676
 1956PEP     CB74545   9.077  12.501   0.920 -0.0900  0.4553 -0.1733
 1956PEP     CB74546   8.755  12.318   0.881 -0.5468 -0.2684 -0.3056
 1956PEP     CB74547   8.347  12.425   0.749  0.0287  0.1054 -0.0222
 1956PEP     CB74548   8.122  12.804   0.559 -0.0540  0.4663  0.0324
 1956PEP     CB74549   7.953  13.176   0.739  0.0649  0.1158  0.2418
 1956PEP     CB74550   7.987  13.695   0.789 -0.0361 -0.1851 -0.0358
 1956PEP     CB74551   8.051  14.149   0.912  0.3419  0.1773  0.0017
 1956PEP     CB74552   8.333  14.345   1.303 -0.1311 -0.0621 -0.4503
 1956PEP     CB74553   8.740  14.262   1.433 -0.1471  0.0169 -0.1262
 1956PEP     CB74554   9.214  14.316   1.332  0.1009  0.1056  0.4892
 1956PEP     CB74555   9.374  14.745   1.059  0.1744 -0.1946  0.0133
 1956PEP     CB74556   9.266  14.866   0.637  0.2806  0.1672 -0.0431
 1956PEP     CB74557   8.766  15.021   0.547  0.1690  0.0995 -0.2728
 1956PEP     CB74558   8.461  15.162   1.013 -0.0470  0.1942 -0.2656
 1956PEP     CB74559   8.510  15.519   1.270 -0.0357 -0.1503  0.4019
 1956PEP     CB74560   8.498  15.947   1.314 -0.0565  0.0781 -0.1251
 1957PEP     CB74561  21.094   8.125   9.148  0.2969 -0.0854 -0.0088
 1957PEP     CB74562  21.116   7.784   8.888  0.1142  0.0519 -0.2207
 1957PEP     CB74563  20.810   7.441   8.803  0.3758  0.0560  0.0147
 1957PEP     CB74564  20.601   7.337   9.187  0.0080 -0.0475 -0.0315
 1957PEP     CB74565  20.497   7.529   9.624  0.1090 -0.1715  0.0178
 1957PEP     CB74566  20.343   7.851   9.869  0.1178  0.1765 -0.0234
 1957PEP     CB74567  20.611   8.081  10.194 -0.3096 -0.4690  0.1808
 1957PEP     CB74568  20.739   8.473  10.413 -0.0250  0.3613  0.1413
 1957PEP     CB74569  20.694   8.767  10.723  0.6259 -0.4081  0.0092
 1957PEP     CB74570  20.776   9.136  10.724  0.0792 -0.0648  0.3379
 1957PEP     CB74571  20.578   9.472  10.930  0.1884  0.1057 -0.0524
 1957PEP     CB74572  20.234   9.677  11.019  0.1156  0.0961 -0.0382
 1957PEP     CB74573  19.885   9.743  11.341  0.1257 -0.0827  0.0647
 1957PEP     CB74574  19.507   9.860  11.571 -0.1300 -0.6034 -0.0081
 1957PEP     CB74575  19.265  10.173  11.810  0.0385  0.3194 -0.1732
 1957PEP     CB74576  19.329  10.634  11.933 -0.0575  0.0707 -0.1293
 1957PEP     CB74577  19.515  10.914  12.154 -0.2830  0.1378 -0.1483
 1957PEP     CB74578  19.303  11.256  12.374 -0.1135  0.0963  0.0833
 1957PEP     CB74579  19.034  11.553  12.476  0.4915  0.1628  0.0028
 1957PEP     CB74580  18.639  11.779  12.368 -0.0269 -0.3279 -0.1397
 1957PEP     CB74581  18.321  12.031  12.265 -0.2215  0.0927 -0.0703
 1957PEP     CB74582  18.172  12.095  11.950  0.3506 -0.1949 -0.1423
 1957PEP     CB74583  18.293  12.318  11.527  0.2162 -0.0372  0.2150
 1957PEP     CB74584  18.203  12.170  11.161 -0.3466  0.0307  0.3125
 1957PEP     CB74585  18.112  11.744  11.150  0.0777  0.0309 -0.1708
 1957PEP     CB74586  18.425  11.389  11.081 -0.1128 -0.1537  0.1867
 1957PEP     CB74587  18.908  11.338  11.142 -0.1018  0.4432 -0.0402
 1957PEP     CB74588  19.226  11.480  11.415  0.2251  0.0305 -0.0503
 1957PEP     CB74589  19.402  11.756  11.599  0.1742  0.0888  0.4008
 1957PEP     CB74590  19.603  12.156  11.602  0.1479 -0.2217 -0.0760
 1957PEP     CB74591  19.919  12.420  11.637 -0.2005 -0.4949 -0.1604
 1957PEP     CB74592  20.178  12.698  11.925  0.2652  0.1245 -0.1991
 1957PEP     CB74593  20.516  12.877  12.009  0.1572 -0.0242  0.3457
 1957PEP     CB74594  20.903  12.600  11.993 -0.1311 -0.0139 -0.1123
 1957PEP     CB74595  20.928  12.164  11.956 -0.2229  0.1770  0.0434
 1957PEP     CB74596  20.862  11.808  12.184 -0.1105 -0.0668  0.2804
 1957PEP     CB74597  20.943  11.524  12.471 -0.3302  0.0872  0.1276
 1957PEP     CB74598  21.337  11.270  12.608 -0.0484  0.0206  0.0006
 1957PEP     CB74599  21.740  11.058  12.644  0.0048 -0.3236 -0.0119
 1957PEP     CB74600  22.159  11.243  12.683 -0.1711  0.0367  0.0851
 1958PEP     CB74601  19.879  20.471  17.851 -0.2599 -0.3659  0.0160
 1958PEP     CB74602  20.289  20.421  17.764 -0.5754  0.0554  0.1953
 1958PEP     CB74603  20.570  20.218  17.537 -0.2118  0.1260  0.0180
 1958PEP     CB74604  20.827  19.974  17.336 -0.2501 -0.0739 -0.4731
 1958PEP     CB74605  20.769  19.521  17.248  0.1177 -0.5846 -0.0633
 1958PEP     CB74606  20.384  19.320  17.210  0.1282  0.4809 -0.1818
 1958PEP     CB74607  19.961  19.521  17.255 -0.0622 -0.3616 -0.0174
 1958PEP     CB74608  19.687  19.787  17.029  0.0861 -0.0698 -0.4175
 1958PEP     CB74609  19.661  20.073  16.734  0.1188 -0.0423  0.0106
 1958PEP     CB74610  19.831  20.343  16.502 -0.1214 -0.2762 -0.0078
 1958PEP     CB74611  20.024  20.721  16.406  0.1081  0.3888 -0.2296
 1958PEP     CB74612  19.768  21.111  16.335 -0.0714  0.0059  0.0835
 1958PEP     CB74613  19.344  21.279  16.280 -0.0652 -0.0240 -0.0354
 1958PEP     CB74614  19.011  21.361  16.516  0.0707 -0.1277 -0.1709
 1958PEP     CB74615  19.003  21.213  16.961  0.1415 -0.0320 -0.0941
 1958PEP     CB74616  19.329  21.211  17.165 -0.2407 -0.1940  0.1426
 1958PEP     CB74617  19.483  21.149  17.570  0.1188 -0.0634 -0.1926
 1958PEP     CB74618  19.426  20.872  17.873 -0.2771  0.3641  0.0901
 1958PEP     CB74619  19.351  20.444  17.850 -0.0257 -0.0808 -0.1839
 1958PEP     CB74620  19.229  20.103  17.577  0.1801  0.1168  0.0207
 1958PEP     CB74621  19.246  20.094  17.056 -0.2247 -0.1249 -0.0883
 1958PEP     CB74622  19.233  20.234  16.699  0.2296 -0.3236  0.2431
 1958PEP     CB74623  19.372  20.446  16.347 -0.3485  0.3158 -0.1437
 1958PEP     CB74624  19.454  20.746  16.110 -0.2194 -0.1397 -0.0196
 1958PEP     CB74625  19.611  21.075  15.855 -0.0924 -0.0002 -0.5348
 1958PEP     CB74626  20.026  21.176  15.571 -0.1966  0.1506 -0.0029
 1958PEP     CB74627  20.418  21.398  15.341 -0.3824  0.0824 -0.2580
 1958PEP     CB74628  20.771  21.586  15.264 -0.0266 -0.1889 -0.1523
 1958PEP     CB74629  20.977  21.932  15.059  0.3679  0.2366  0.2034
 1958PEP     CB74630  21.162  22.239  14.780  0.3534  0.0713  0.0717
 1958PEP     CB74631  21.095  22.434  14.363  0.6928 -0.0118 -0.1094
 1958PEP     CB74632  20.897  22.376  13.904 -0.2360 -0.0484  0.4903
 1958PEP     CB74633  20.828  22.023  13.580  0.2139 -0.1564 -0.3314
 1958PEP     CB74634  20.584  21.799  13.275 -0.1869 -0.1901  0.3124
 1958PEP     CB74635  20.200  21.732  12.919 -0.1164 -0.0660  0.2474
 1958PEP     CB74636  20.068  21.743  12.502 -0.1274 -0.0439 -0.2599
 1958PEP     CB74637  20.338  21.750  12.091 -0.0592 -0.1757  0.0346
 1958PEP     CB74638  20.717  21.998  12.069  0.3564  0.3594  0.0554
 1958PEP     CB74639  21.030  21.996  12.368  0.1678  0.2044  0.0853
 1958PEP     CB74640  21.082  21.670  12.690  0.3162  0.3433  0.1029
 1959PEP     CB74641   3.910  18.951  17.505  0.0545 -0.2027 -0.2137
 1959PEP     CB74642   3.734  19.057  17.165 -0.2496 -0.2431 -0.0532
 1959PEP     CB74643   3.607  18.899  16.790 -0.1366 -0.1188  0.2807
 1959PEP     CB74644   3.401  18.591  16.603 -0.0720 -0.0752 -0.0322
 1959PEP     CB74645   3.377  18.120  16.796 -0.0282  0.1313 -0.0200
 1959PEP     CB74646   3.566  18.141  17.209 -0.4137 -0.1348  0.2235
 1959PEP     CB74647   3.593  18.556  17.320 -0.0588 -0.2785 -0.2502
 1959PEP     CB74648   3.283  18.844  17.260 -0.1420  0.1137  0.3633
 1959PEP     CB74649   2.845  19.083  17.410 -0.1345 -0.2084 -0.1787
 1959PEP     CB74650   2.558  19.212  17.754 -0.1039 -0.1106  0.2436
 1959PEP     CB74651   2.435  19.419  18.127 -0.1403  0.2488 -0.2192
 1959PEP     CB74652   2.224  19.624  18.495  0.3378 -0.1536  0.0999
 1959PEP     CB74653   2.350  19.839  18.751  0.4681 -0.2407  0.0284
 1959PEP     CB74654   2.559  20.166  18.750 -0.3266  0.1515  0.0015
 1959PEP     CB74655   2.930  20.211  18.525 -0.3461 -0.0523 -0.3045
 1959PEP     CB74656   3.041  19.952  18.140 -0.0494  0.2860  0.2114
 1959PEP     CB74657   2.956  19.488  18.080 -0.0399 -0.0388 -0.0651
 1959PEP     CB74658   2.927  19.031  18.076 -0.2403  0.1177  0.0999
 1959PEP     CB74659   2.946  18.707  17.811 -0.0803  0.0504  0.1362
 1959PEP     CB74660   3.015  18.501  17.449 -0.1707  0.2255 -0.2223
 1959PEP     CB74661   3.081  18.505  17.031  0.4300  0.4991  0.0136
 1959PEP     CB74662   2.976  18.833  16.743  0.4218 -0.0129  0.1577
 1959PEP     CB74663   2.675  19.129  16.572  0.2059  0.1363 -0.0573
 1959PEP     CB74664   2.422  19.496  16.585 -0.3089 -0.0690  0.1737
 1959PEP     CB74665   2.089  19.491  16.910  0.1914  0.0957  0.0109
 1959PEP     CB74666   1.814  19.293  17.178 -0.3181  0.0034  0.3112
 1959PEP     CB74667   1.552  18.987  17.541  0.0783 -0.3138  0.0119
 1959PEP     CB74668   1.183  18.770  17.596 -0.2834  0.2951 -0.2920
 1959PEP     CB74669   1.001  18.399  17.608 -0.3088 -0.2336  0.2396
 1959PEP     CB74670   0.602  18.111  17.555 -0.2035  0.0805 -0.2098
 1959PEP     CB74671   0.257  17.956  17.263 -0.0085 -0.0407  0.6211
 1959PEP     CB74672  -0.144  17.704  17.192 -0.0004  0.1314  0.0209
 1959PEP     CB74673  -0.584  17.704  17.111 -0.0844  0.2466 -0.1361
 1959PEP     CB74674  -1.058  17.847  17.245 -0.2200  0.1420 -0.2364
 1959PEP     CB74675  -1.483  17.606  17.143  0.0585  0.1000 -0.0534
 1959PEP     CB74676  -1.604  17.242  16.914 -0.2586  0.4682  0.1229
 1959PEP     CB74677  -1.542  16.948  16.525  0.1178 -0.2023  0.1917
 1959PEP     CB74678  -1.263  16.949  16.249  0.4313  0.1135  0.3178
 1959PEP     CB74679  -0.974  17.283  16.152 -0.1937  0.2464  0.2163
 1959PEP     CB74680  -0.717  17.599  16.277 -0.2623 -0.0449 -0.0353
 1960PEP     CB74681  12.543   1.895  15.681  0.2272  0.2446 -0.0847
 1960PEP     CB74682  12.359   1.656  15.345 -0.2623  0.1727  0.3701
 1960PEP     CB74683  12.041   1.924  15.130 -0.0324  0.1496  0.2019
 1960PEP     CB74684  12.152   2.304  15.021  0.1720 -0.1812 -0.2638
 1960PEP     CB74685  11.886   2.701  15.003 -0.2583 -0.2537  0.4937
 1960PEP     CB74686  11.916   2.965  14.726 -0.0246 -0.2374  0.0183
 1960PEP     CB74687  11.782   3.120  14.412  0.5203  0.1479  0.2623
 1960PEP     CB74688  11.515   3.044  14.139  0.3424 -0.1885  0.0425
 1960PEP     CB74689  11.182   3.088  13.785 -0.2489  0.4519 -0.0641
 1960PEP     CB74690  10.974   2.998  13.425  0.0050 -0.1449  0.2097
 1960PEP     CB74691  10.812   3.051  12.957  0.1894 -0.1349  0.3793
 1960PEP     CB74692  10.704   3.359  12.719  0.2611  0.0465 -0.1291
 1960PEP     CB74693  10.949   3.715  12.601 -0.1038 -0.1980 -0.0950
 1960PEP     CB74694  11.214   3.930  12.912  0.1828 -0.1895  0.1192
 1960PEP     CB74695  11.491   3.703  13.276  0.3732 -0.1835 -0.1868
 1960PEP     CB74696  11.623   3.366  13.197  0.5863 -0.0879  0.3676
 1960PEP     CB74697  11.508   2.938  13.447 -0.1467  0.2029 -0.1557
 1960PEP     CB74698  11.329   2.472  13.396  0.0659 -0.0122 -0.4985
 1960PEP     CB74699  11.028   2.163  13.318  0.6217 -0.3613  0.1735
 1960PEP     CB74700  11.049   1.706  13.512 -0.1072  0.3321 -0.4467
 1960PEP     CB74701  11.218   1.616  13.871  0.0076 -0.0490  0.3334
 1960PEP     CB74702  11.290   1.312  14.231  0.4524  0.1125  0.1478
 1960PEP     CB74703  11.430   1.269  14.644  0.2071 -0.2419 -0.3860
 1960PEP     CB74704  11.415   1.195  15.198  0.1166 -0.1036 -0.1382
 1960PEP     CB74705  11.142   1.491  15.433 -0.1891 -0.0983 -0.0126
 1960PEP     CB74706  10.903   1.584  15.797 -0.2683  0.1570  0.1551
 1960PEP     CB74707  10.914   1.449  16.241 -0.1100  0.2568 -0.4379
 1960PEP     CB74708  11.125   1.437  16.694 -0.1668  0.4065  0.2854
 1960PEP     CB74709  11.238   1.213  17.062  0.0954 -0.2109  0.3111
 1960PEP     CB74710  10.889   1.034  17.378  0.1976  0.0930  0.1385
 1960PEP     CB74711  10.603   0.670  17.496  0.0439  0.0080 -0.1784
 1960PEP     CB74712  10.264   0.446  17.509  0.1528  0.3260 -0.2564
 1960PEP     CB74713   9.844   0.422  17.657 -0.5331 -0.4094  0.0411
 1960PEP     CB74714   9.553   0.566  17.913  0.1044  0.0489 -0.3269
 1960PEP     CB74715   9.435   0.827  18.264  0.0127 -0.0651  0.3946
 1960PEP     CB74716   9.300   1.198  18.638  0.2511 -0.6437  0.1300
 1960PEP     CB74717   9.137   1.368  18.987  0.2811 -0.1788  0.1712
 1960PEP     CB74718   8.963   1.449  19.296  0.3086 -0.0892 -0.4176
 1960PEP     CB74719   8.923   1.545  19.760  0.5753 -0.3207 -0.1806
 1960PEP     CB74720   8.881   1.546  20.211 -0.0024  0.5089  0.0229
 1961PEP     CB74721  13.338  16.958  21.004 -0.1607 -0.0483  0.0176
 1961PEP     CB74722  13.033  17.199  21.222  0.1728 -0.4236  0.1916
 1961PEP     CB74723  12.684  17.353  21.462  0.0366  0.1319 -0.4375
 1961PEP     CB74724  12.404  17.426  21.757 -0.2100 -0.0802  0.2661
 1961PEP     CB74725  12.282  17.586  22.127 -0.0892 -0.2850  0.2391
 1961PEP     CB74726  12.157  18.045  22.142 -0.0681  0.2278 -0.0597
 1961PEP     CB74727  12.017  18.403  22.451 -0.0574  0.0768  0.2096
 1961PEP     CB74728  11.788  18.750  22.387  0.0223 -0.1316 -0.1347
 1961PEP     CB74729  11.599  19.053  22.217  0.4414 -0.2501 -0.1103
 1961PEP     CB74730  11.662  19.411  21.959 -0.5096  0.1555  0.1861
 1961PEP     CB74731  11.472  19.808  21.799 -0.0228  0.1955 -0.1344
 1961PEP     CB74732  11.158  20.192  21.921  0.0404 -0.1976 -0.1780
 1961PEP     CB74733  11.012  20.503  22.298  0.0433  0.1540 -0.2637
 1961PEP     CB74734  10.802  20.684  22.627  0.1318 -0.0050  0.1666
 1961PEP     CB74735  10.424  20.600  22.690  0.2242  0.0418  0.1491
 1961PEP     CB74736   9.977  20.577  22.779 -0.0801  0.1034  0.3830
 1961PEP     CB74737   9.612  20.836  22.780  0.2214  0.2493 -0.3255
 1961PEP     CB74738   9.158  20.921  22.964 -0.0050  0.0747  0.1772
 1961PEP     CB74739   8.756  20.838  23.150 -0.2958 -0.0237  0.3007
 1961PEP     CB74740   8.420  20.707  23.454 -0.0048 -0.1222 -0.1967
 1961PEP     CB74741   8.287  20.300  23.563 -0.0998  0.2787  0.0164
 1961PEP     CB74742   8.217  19.948  23.739  0.2253  0.0372 -0.0905
 1961PEP     CB74743   8.224  19.532  23.862 -0.3672 -0.2174 -0.2697
 1961PEP     CB74744   7.816  19.229  23.859 -0.1152  0.2917 -0.2783
 1961PEP     CB74745   7.442  19.428  23.796 -0.3314  0.2186 -0.3739
 1961PEP     CB74746   7.315  19.786  23.827  0.0687 -0.1079  0.0381
 1961PEP     CB74747   7.177  20.174  24.096 -0.2627  0.3360  0.0293
 1961PEP     CB74748   6.807  20.368  24.209 -0.0946  0.2823  0.2487
 1961PEP     CB74749   6.754  20.747  24.453 -0.1646 -0.0419 -0.1504
 1961PEP     CB74750   6.931  20.970  24.745  0.1630  0.1866  0.4188
 1961PEP     CB74751   7.108  21.317  24.866 -0.5037  0.2402  0.1727
 1961PEP     CB74752   6.955  21.664  24.987  0.3304 -0.0673 -0.0413
 1961PEP     CB74753   6.571  21.799  25.086 -0.3643  0.2587 -0.0549
 1961PEP     CB74754   6.261  22.003  25.345  0.3175  0.5295  0.0424
 1961PEP     CB74755   6.125  22.292  25.636  0.2969  0.2479  0.0019
 1961PEP     CB74756   6.414  22.547  25.959 -0.2038 -0.1555  0.1010
 1961PEP     CB74757   6.800  22.707  26.182 -0.2854  0.1239  0.2830
 1961PEP     CB74758   7.102  22.916  26.405 -0.0152 -0.3101 -0.0168
 1961PEP     CB74759   7.503  22.959  26.711  0.3244  0.0046  0.1136
 1961PEP     CB74760   7.608  22.782  27.178  0.4423  0.1582 -0.0383
 1962PEP     CB74761   2.840  16.776  18.694  0.1000 -0.2284 -0.0138
 1962PEP     CB74762   3.023  16.440  18.501 -0.1612  0.4170  0.1605
 1962PEP     CB74763   3.026  16.435  18.089  0.1174  0.0436 -0.1546
 1962PEP     CB74764   2.718  16.265  17.737  0.4393  0.3087 -0.2456
 1962PEP     CB74765   2.674  16.236  17.203  0.4251 -0.2543 -0.5476
 1962PEP     CB74766   2.794  15.880  16.992 -0.0410  0.1985 -0.0488
 1962PEP     CB74767   2.551  15.522  16.902 -0.1474 -0.0359 -0.1917
 1962PEP     CB74768   2.230  15.320  16.931  0.0229  0.2592  0.1716
 1962PEP     CB74769   1.875  15.295  16.706 -0.1457 -0.0738 -0.2094
 1962PEP     CB74770   1.549  15.401  16.569  0.0605 -0.0508  0.2332
 1962PEP     CB74771   1.224  15.279  16.837 -0.3683 -0.4089 -0.0428
 1962PEP     CB74772   1.236  15.033  17.212  0.0080 -0.0809 -0.0938
 1962PEP     CB74773   1.524  14.812  17.199 -0.2171  0.0155 -0.3675
 1962PEP     CB74774   1.744  14.811  16.803  0.2282 -0.2354  0.1764
 1962PEP     CB74775   2.072  14.655  16.607  0.0608 -0.0478 -0.0600
 1962PEP     CB74776   2.503  14.740  16.542  0.1861 -0.2439  0.0923
 1962PEP     CB74777   2.978  14.951  16.390  0.1489  0.0546 -0.0951
 1962PEP     CB74778   3.190  15.018  16.102 -0.0442  0.3261 -0.0615
 1962PEP     CB74779   3.623  15.009  16.030 -0.0093 -0.0424  0.0646
 1962PEP     CB74780   4.056  14.973  15.997 -0.1313 -0.2372  0.2198
 1962PEP     CB74781   4.465  14.842  16.257 -0.0212  0.1117  0.2226
 1962PEP     CB74782   4.926  15.026  16.367  0.2563 -0.1368 -0.3091
 1962PEP     CB74783   4.959  15.466  16.327  0.0144 -0.3671  0.1980
 1962PEP     CB74784   4.963  15.883  16.447  0.3186 -0.0858  0.0567
 1962PEP     CB74785   4.655  16.134  16.692 -0.1006  0.0545  0.3477
 1962PEP     CB74786   4.354  16.374  16.983  0.4715 -0.2252 -0.2214
 1962PEP     CB74787   3.971  16.586  17.197 -0.3027  0.3781 -0.3021
 1962PEP     CB74788   3.682  16.870  17.332  0.3104 -0.0092 -0.0076
 1962PEP     CB74789   3.266  16.865  17.507 -0.4242  0.4421 -0.0866
 1962PEP     CB74790   2.820  17.011  17.573 -0.2386  0.2683 -0.0343
 1962PEP     CB74791   2.469  17.035  17.801  0.0069  0.1987  0.1329
 1962PEP     CB74792   2.486  17.246  18.177 -0.3184 -0.1478 -0.3906
 1962PEP     CB74793   2.928  17.449  18.235 -0.4136 -0.0492  0.1359
 1962PEP     CB74794   3.258  17.670  17.970 -0.2034  0.2015  0.2590
 1962PEP     CB74795   3.545  17.940  17.955 -0.0829 -0.4064  0.4315
 1962PEP     CB74796   3.932  18.092  18.066 -0.0490 -0.3393  0.1209
 1962PEP     CB74797   4.197  18.053  18.371 -0.1248 -0.2349  0.3026
 1962PEP     CB74798   4.612  17.866  18.494  0.1526  0.0347  0.2765
 1962PEP     CB74799   5.053  17.715  18.559 -0.0975 -0.2504  0.2664
 1962PEP     CB74800   5.430  17.525  18.395  0.4291  0.0445 -0.2260
 1963PEP     CB74801  17.841   2.241  13.698  0.2562  0.2016 -0.0578
 1963PEP     CB74802  17.390   2.438  13.729  0.1006  0.0164  0.2703
 1963PEP     CB74803  17.218   2.623  14.015  0.0814  0.3738  0.0136
 1963PEP     CB74804  17.084   2.659  14.435 -0.0424  0.0910  0.1094
 1963PEP     CB74805  17.179   2.712  14.872  0.2242  0.0401 -0.4964
 1963PEP     CB74806  17.607   2.701  15.153  0.2098  0.0845 -0.0719
 1963PEP     CB74807  17.796   2.673  15.621  0.0160  0.0922  0.1637
 1963PEP     CB74808  17.994   3.053  15.807 -0.3211 -0.0871 -0.1015
 1963PEP     CB74809  18.023   3.573  15.708 -0.1047  0.3302 -0.1356
 1963PEP     CB74810  17.796   3.913  15.754  0.1880  0.1160  0.0146
 1963PEP     CB74811  17.597   4.266  15.565 -0.2166  0.2855 -0.2547
 1963PEP     CB74812  17.620   4.429  15.243 -0.2231 -0.2435  0.2566
 1963PEP     CB74813  17.671   4.294  14.803 -0.0594  0.2848  0.1196
 1963PEP     CB74814  17.602   3.963  14.682  0.3279  0.2474  0.0157
 1963PEP     CB74815  17.651   3.519  14.872  0.3942 -0.1415 -0.1335
 1963PEP     CB74816  17.820   3.153  15.026  0.4199 -0.2338  0.6538
 1963PEP     CB74817  18.081   2.980  15.340  0.0991  0.3029 -0.1960
 1963PEP     CB74818  18.558   3.106  15.526  0.0390 -0.1073 -0.0892
 1963PEP     CB74819  18.895   3.386  15.571 -0.1053  0.1774  0.3567
 1963PEP     CB74820  19.069   3.803  15.700  0.0447 -0.2941  0.3053
 1963PEP     CB74821  19.128   4.240  15.687  0.1581 -0.2448 -0.2911
 1963PEP     CB74822  18.873   4.499  15.547 -0.2492  0.0926 -0.4276
 1963PEP     CB74823  18.491   4.658  15.496  0.1511  0.0982  0.2318
 1963PEP     CB74824  18.116   4.569  15.705 -0.2917  0.5667  0.0115
 1963PEP     CB74825  17.879   4.338  16.014 -0.0280 -0.1028 -0.1835
 1963PEP     CB74826  17.802   4.273  16.436 -0.1505  0.1672 -0.4444
 1963PEP     CB74827  17.544   3.984  16.783  0.2142 -0.1984  0.1530
 1963PEP     CB74828  17.336   3.953  17.199 -0.2429 -0.0130 -0.1556
 1963PEP     CB74829  17.280   3.702  17.604 -0.2054 -0.1640  0.0534
 1963PEP     CB74830  17.147   3.488  17.929 -0.0837 -0.0143  0.1585
 1963PEP     CB74831  17.092   3.052  18.006 -0.0453 -0.0837 -0.2710
 1963PEP     CB74832  16.938   2.747  17.699  0.0321 -0.1685  0.1248
 1963PEP     CB74833  16.660   2.704  17.381 -0.2255  0.0024  0.0682
 1963PEP     CB74834  16.584   2.728  17.001  0.3477  0.0891  0.2758
 1963PEP     CB74835  16.340   3.065  16.765  0.2946 -0.0556  0.1241
 1963PEP     CB74836  16.075   3.392  16.840  0.2258  0.3223  0.3905
 1963PEP     CB74837  16.000   3.768  17.172 -0.4140  0.1386 -0.2605
 1963PEP     CB74838  15.926   4.175  17.150 -0.3644 -0.0276 -0.3142
 1963PEP     CB74839  15.694   4.435  16.814  0.4878  0.3247 -0.1450
 1963PEP     CB74840  15.509   4.684  16.414  0.2517 -0.0772 -0.3639
 1964PEP     CB74841  19.888  20.594  15.948  0.1468  0.0036  0.3380
 1964PEP     CB74842  19.809  20.268  15.669 -0.1991 -0.0565 -0.0290
 1964PEP     CB74843  19.828  19.890  15.395  0.4398  0.0258 -0.1535
 1964PEP     CB74844  19.645  19.629  15.170 -0.0320 -0.5203  0.1704
 1964PEP     CB74845  19.376  19.627  14.871  0.0029  0.2082 -0.0645
 1964PEP     CB74846  19.164  19.930  14.591 -0.0677 -0.1911 -0.0787
 1964PEP     CB74847  18.944  19.987  14.203  0.0337  0.1137 -0.1453
 1964PEP     CB74848  18.667  20.084  13.833 -0.3498  0.5990 -0.1530
 1964PEP     CB74849  18.366  20.202  13.608  0.2197  0.0649  0.1550
 1964PEP     CB74850  18.184  20.623  13.480  0.0901  0.3118  0.0336
 1964PEP     CB74851  18.365  21.053  13.567  0.6113 -0.1819  0.0053
 1964PEP     CB74852  18.607  21.105  13.928 -0.1328  0.0643 -0.3108
 1964PEP     CB74853  18.844  21.110  14.379  0.1679  0.1460 -0.2263
 1964PEP     CB74854  19.025  21.425  14.670 -0.3975 -0.0573  0.2068
 1964PEP     CB74855  19.045  21.755  14.781 -0.2858 -0.4305  0.0636
 1964PEP     CB74856  19.172  22.158  14.697 -0.3951  0.1898  0.0466
 1964PEP     CB74857  19.377  22.491  14.522 -0.1904  0.0635 -0.0331
 1964PEP     CB74858  19.183  22.773  14.263 -0.3979 -0.2508 -0.0792
 1964PEP     CB74859  18.844  22.764  13.996  0.0843 -0.0384  0.0810
 1964PEP     CB74860  18.509  22.585  13.995  0.0535  0.1387  0.2397
 1964PEP     CB74861  18.337  22.381  14.344  0.4538 -0.2784  0.0699
 1964PEP     CB74862  18.583  22.013  14.592  0.3959 -0.1939  0.3927
 1964PEP     CB74863  18.841  21.762  14.285  0.1139  0.0786  0.0944
 1964PEP     CB74864  18.873  21.592  13.905  0.0600 -0.3769  0.0874
 1964PEP     CB74865  18.983  21.334  13.555 -0.0187 -0.1504  0.2069
 1964PEP     CB74866  18.771  21.170  13.241  0.2501 -0.2634  0.1062
 1964PEP     CB74867  18.332  21.067  13.049 -0.1573  0.5731  0.2320
 1964PEP     CB74868  17.904  21.101  13.265  0.0650 -0.1195  0.1780
 1964PEP     CB74869  17.464  20.983  13.323  0.1886  0.3203 -0.0315
 1964PEP     CB74870  17.112  20.773  13.246 -0.3737 -0.1949 -0.0059
 1964PEP     CB74871  16.781  20.451  13.000  0.2860  0.1906  0.1338
 1964PEP     CB74872  16.389  20.344  12.869  0.1403  0.0445  0.0789
 1964PEP     CB74873  15.974  20.595  12.900  0.0588 -0.3148 -0.1477
 1964PEP     CB74874  15.878  21.065  12.955  0.0332 -0.1622  0.1319
 1964PEP     CB74875  16.010  21.358  13.120 -0.0217 -0.0860 -0.2379
 1964PEP     CB74876  16.439  21.479  13.297 -0.0857 -0.0936  0.0220
 1964PEP     CB74877  16.862  21.740  13.103  0.2348  0.2067  0.3180
 1964PEP     CB74878  16.860  22.213  13.060  0.3875 -0.2313  0.3253
 1964PEP     CB74879  16.609  22.530  12.934  0.1405 -0.0543 -0.1154
 1964PEP     CB74880  16.278  22.592  12.679 -0.1517 -0.1971 -0.1906
 1965PEP     CB74881  14.244   2.397   4.459 -0.0944 -0.0786  0.1172
 1965PEP     CB74882  13.998   2.045   4.311 -0.1224  0.2985  0.0262
 1965PEP     CB74883  13.654   1.994   3.948 -0.1386  0.1458  0.3133
 1965PEP     CB74884  13.398   2.124   3.640  0.2312 -0.2659  0.4309
 1965PEP     CB74885  13.044   2.327   3.627 -0.1771  0.0085  0.2182
 1965PEP     CB74886  12.668   2.411   3.686  0.1421  0.2644  0.5749
 1965PEP     CB74887  12.444   2.420   4.108 -0.1563 -0.0875 -0.0381
 1965PEP     CB74888  12.597   2.125   4.330 -0.2690 -0.5056  0.3406
 1965PEP     CB74889  12.864   2.049   4.635 -0.1744  0.3735  0.3281
 1965PEP     CB74890  13.037   1.663   4.728  0.2198 -0.0845 -0.3410
 1965PEP     CB74891  12.729   1.351   4.670  0.3530  0.2213 -0.3454
 1965PEP     CB74892  12.371   1.047   4.793  0.1656 -0.0725 -0.2104
 1965PEP     CB74893  11.938   0.876   5.014 -0.0683 -0.1928 -0.2193
 1965PEP     CB74894  11.735   0.510   5.345 -0.2688  0.1962  0.0190
 1965PEP     CB74895  11.809   0.047   5.252 -0.1008 -0.2149 -0.1392
 1965PEP     CB74896  12.137  -0.064   4.935  0.1816  0.0906 -0.2992
 1965PEP     CB74897  12.482   0.230   4.807 -0.2063 -0.0274 -0.2974
 1965PEP     CB74898  12.436   0.661   5.063 -0.2227 -0.0422  0.1468
 1965PEP     CB74899  12.674   0.967   5.155 -0.0997 -0.1950 -0.0361
 1965PEP     CB74900  13.108   1.178   5.090 -0.0302  0.0236 -0.1742
 1965PEP     CB74901  13.425   1.317   4.768 -0.2279  0.0565 -0.1179
 1965PEP     CB74902  13.702   1.632   4.679  0.0265  0.3918 -0.3011
 1965PEP     CB74903  14.031   1.813   4.857  0.1260 -0.1371 -0.3575
 1965PEP     CB74904  14.293   2.256   4.971  0.2725  0.2219 -0.2127
 1965PEP     CB74905  14.539   2.603   5.078  0.0235 -0.4125 -0.1917
 1965PEP     CB74906  14.737   2.947   5.158  0.1237 -0.0345  0.3135
 1965PEP     CB74907  14.770   3.369   5.022 -0.1069 -0.0130 -0.3524
 1965PEP     CB74908  14.584   3.661   4.722 -0.1657 -0.2390 -0.1363
 1965PEP     CB74909  14.137   3.765   4.503 -0.1127  0.2174 -0.4944
 1965PEP     CB74910  13.965   3.846   4.117  0.0509 -0.3160 -0.2823
 1965PEP     CB74911  13.909   3.494   3.812 -0.1830  0.0962  0.0119
 1965PEP     CB74912  13.925   3.092   3.925 -0.0940 -0.1649 -0.0249
 1965PEP     CB74913  14.023   2.918   4.404 -0.1624  0.0845 -0.4198
 1965PEP     CB74914  14.190   2.743   4.820 -0.1987  0.1782 -0.3203
 1965PEP     CB74915  13.993   2.628   5.185 -0.1986  0.3777 -0.1810
 1965PEP     CB74916  13.779   2.508   5.538  0.1139 -0.0290 -0.2460
 1965PEP     CB74917  13.872   2.069   5.781  0.3195  0.0838  0.3358
 1965PEP     CB74918  13.976   1.644   5.761  0.1425 -0.0734  0.2373
 1965PEP     CB74919  13.979   1.363   5.423  0.0321 -0.0701  0.1750
 1965PEP     CB74920  13.588   1.221   5.217  0.3558 -0.0428  0.1426
 1966PEP     CB74921   0.557  20.381  21.606 -0.0572  0.0164 -0.1544
 1966PEP     CB74922   0.173  20.529  21.934  0.5153  0.4163  0.5508
 1966PEP     CB74923  -0.102  20.774  22.094  0.1139 -0.1821 -0.3533
 1966PEP     CB74924  -0.152  20.957  22.501 -0.0728 -0.1115  0.0423
 1966PEP     CB74925   0.151  20.837  22.824 -0.0097  0.2181 -0.0409
 1966PEP     CB74926   0.091  20.679  23.142  0.1448 -0.0374 -0.1180
 1966PEP     CB74927  -0.039  20.783  23.519 -0.1099 -0.1513 -0.0286
 1966PEP     CB74928  -0.103  21.084  23.851 -0.1766  0.0427  0.1300
 1966PEP     CB74929  -0.280  21.258  24.230 -0.0883 -0.1492 -0.1587
 1966PEP     CB74930  -0.305  21.131  24.630  0.0073  0.0582  0.1035
 1966PEP     CB74931  -0.122  20.744  24.673 -0.6059 -0.1070  0.2282
 1966PEP     CB74932  -0.030  20.511  24.297 -0.0010  0.0419  0.0936
 1966PEP     CB74933  -0.164  20.539  23.934 -0.0081  0.1259  0.0266
 1966PEP     CB74934  -0.486  20.792  23.794  0.0447  0.0720  0.3157
 1966PEP     CB74935  -0.760  21.062  24.009  0.0896 -0.1161 -0.4250
 1966PEP     CB74936  -1.146  21.227  24.155 -0.1489 -0.2356  0.1922
 1966PEP     CB74937  -1.350  21.479  24.387 -0.0773 -0.2672  0.1067
 1966PEP     CB74938  -1.331  21.805  24.669 -0.0651 -0.0945  0.0822
 1966PEP     CB74939  -1.405  21.919  25.101  0.2535  0.0090 -0.1602
 1966PEP     CB74940  -1.851  21.771  25.387 -0.1563 -0.0626  0.1814
 1966PEP     CB74941  -2.237  21.819  25.176 -0.1157 -0.2728  0.0292
 1966PEP     CB74942  -2.362  22.110  24.953  0.0077 -0.3546  0.1301
 1966PEP     CB74943  -2.588  22.417  24.859  0.2816 -0.1601  0.1486
 1966PEP     CB74944  -2.816  22.758  24.646 -0.3184 -0.0840 -0.1462
 1966PEP     CB74945  -2.837  23.201  24.726  0.0145  0.1410 -0.0003
 1966PEP     CB74946  -3.039  23.645  24.785 -0.3482 -0.2702  0.3455
 1966PEP     CB74947  -3.026  24.047  24.758  0.0393  0.0068  0.0855
 1966PEP     CB74948  -3.275  24.251  24.390 -0.1841  0.0686 -0.1377
 1966PEP     CB74949  -3.608  24.211  24.206 -0.0072  0.0105 -0.2494
 1966PEP     CB74950  -3.962  24.237  23.967 -0.1323  0.0473  0.3445
 1966PEP     CB74951  -4.215  24.165  23.612 -0.1303 -0.0521 -0.2129
 1966PEP     CB74952  -4.162  24.001  23.128 -0.4513  0.0956  0.4612
 1966PEP     CB74953  -4.071  24.341  22.829 -0.0581  0.3058 -0.1872
 1966PEP     CB74954  -3.732  24.438  22.564  0.0453 -0.3402 -0.0547
 1966PEP     CB74955  -3.424  24.553  22.203 -0.2927  0.0693 -0.0588
 1966PEP     CB74956  -3.048  24.739  22.071 -0.2122 -0.0631  0.2948
 1966PEP     CB74957  -2.712  24.979  21.961  0.1409 -0.4017  0.0312
 1966PEP     CB74958  -2.496  25.424  21.817 -0.0083 -0.5823 -0.0827
 1966PEP     CB74959  -2.208  25.829  21.693 -0.2355 -0.1360 -0.1740
 1966PEP     CB74960  -1.956  26.092  21.343 -0.0212 -0.1310 -0.5108
 1967PEP     CB74961  19.594   2.471  20.414  0.4174  0.1505  0.0545
 1967PEP     CB74962  19.930   2.401  20.058  0.2043  0.0464  0.2541
 1967PEP     CB74963  19.877   2.143  19.736  0.2358 -0.1062  0.1907
 1967PEP     CB74964  19.538   1.889  19.747 -0.3301  0.1866  0.0391
 1967PEP     CB74965  19.069   1.835  19.919  0.2797 -0.0982  0.0780
 1967PEP     CB74966  18.911   1.801  20.383  0.0971  0.3359  0.0043
 1967PEP     CB74967  19.028   1.868  20.801  0.2310 -0.0210  0.1507
 1967PEP     CB74968  19.135   1.856  21.190 -0.1685 -0.5817 -0.3945
 1967PEP     CB74969  19.301   1.875  21.540 -0.0415  0.0067  0.3617
 1967PEP     CB74970  19.596   2.016  21.854  0.0162 -0.1084 -0.0800
 1967PEP     CB74971  19.731   2.430  21.789 -0.3010  0.3442  0.1171
 1967PEP     CB74972  19.526   2.548  21.388 -0.4014  0.1242 -0.2395
 1967PEP     CB74973  19.262   2.297  21.068  0.0186  0.2813  0.1377
 1967PEP     CB74974  19.503   2.054  20.771 -0.0571 -0.2429 -0.0523
 1967PEP     CB74975  20.002   2.213  20.626 -0.0999 -0.1608  0.0627
 1967PEP     CB74976  20.129   2.567  20.483  0.0160 -0.2485 -0.0860
 1967PEP     CB74977  19.889   2.846  20.271 -0.0452 -0.1788  0.2584
 1967PEP     CB74978  19.576   2.718  19.922  0.1372 -0.1613 -0.0068
 1967PEP     CB74979  19.249   2.389  19.852 -0.1086  0.0778 -0.3278
 1967PEP     CB74980  18.821   2.247  19.887  0.3855 -0.0391 -0.3674
 1967PEP     CB74981  18.576   1.932  20.012 -0.0454  0.1043  0.0702
 1967PEP     CB74982  18.422   1.559  20.154  0.3193  0.3318 -0.8044
 1967PEP     CB74983  18.157   1.227  20.329 -0.2081 -0.0994 -0.2847
 1967PEP     CB74984  18.011   0.865  20.148  0.3128  0.2444  0.2189
 1967PEP     CB74985  18.015   0.709  19.702  0.2073 -0.0083 -0.2119
 1967PEP     CB74986  18.013   0.786  19.256  0.0941 -0.1117 -0.0885
 1967PEP     CB74987  18.126   1.064  18.913 -0.1284 -0.4260 -0.1412
 1967PEP     CB74988  18.319   0.959  18.507  0.1201  0.2172 -0.1334
 1967PEP     CB74989  18.553   0.624  18.345 -0.1052 -0.1756 -0.0880
 1967PEP     CB74990  18.801   0.294  18.254  0.0624 -0.0850  0.1875
 1967PEP     CB74991  18.872  -0.187  18.257  0.0231 -0.4319 -0.0909
 1967PEP     CB74992  18.657  -0.570  18.193  0.0515 -0.3914 -0.1927
 1967PEP     CB74993  18.340  -0.892  18.155  0.0108 -0.0046  0.0139
 1967PEP     CB74994  18.394  -1.428  18.141  0.0634 -0.4999 -0.2470
 1967PEP     CB74995  18.235  -1.811  17.923 -0.1930  0.2458 -0.4552
 1967PEP     CB74996  18.160  -2.147  17.692 -0.1799 -0.1073 -0.1163
 1967PEP     CB74997  18.297  -2.385  17.340  0.0931  0.1043  0.0666
 1967PEP     CB74998  18.164  -2.762  17.118  0.2583  0.0492  0.0443
 1967PEP     CB74999  18.305  -3.069  16.691 -0.4589  0.2700  0.1487
 1967PEP     CB75000  18.582  -3.461  16.620 -0.0658 -0.0166  0.0457
 1968PEP     CB75001   8.923   1.305  14.918  0.2624  0.0590  0.0944
 1968PEP     CB75002   9.227   1.024  14.761 -0.5033 -0.0621 -0.1326
 1968PEP     CB75003   9.290   0.545  14.733  0.5081 -0.1352  0.1959
 1968PEP     CB75004   9.318   0.204  15.031 -0.1460 -0.0779  0.0680
 1968PEP     CB75005   9.219   0.167  15.494  0.0438 -0.3106 -0.1604
 1968PEP     CB75006   9.358   0.043  15.955  0.2109 -0.3871 -0.0835
 1968PEP     CB75007   9.596  -0.342  16.139 -0.0288 -0.0899  0.0866
 1968PEP     CB75008   9.926  -0.628  16.040 -0.0512  0.0616  0.0792
 1968PEP     CB75009  10.284  -0.531  15.757 -0.4390 -0.1749  0.0753
 1968PEP     CB75010  10.293  -0.279  15.327 -0.1544 -0.3106 -0.2694
 1968PEP     CB75011  10.102  -0.076  14.955 -0.2233  0.1984 -0.2772
 1968PEP     CB75012   9.708  -0.073  14.628 -0.2725  0.0509  0.2260
 1968PEP     CB75013   9.452  -0.153  14.218  0.2609 -0.2524  0.1437
 1968PEP     CB75014   9.597   0.110  13.853 -0.2715  0.0097 -0.2688
 1968PEP     CB75015  10.045   0.285  13.790  0.0162  0.0200 -0.0638
 1968PEP     CB75016  10.385   0.295  14.105  0.0593 -0.1589 -0.2335
 1968PEP     CB75017  10.805   0.067  14.103  0.1455 -0.3512 -0.2733
 1968PEP     CB75018  11.082  -0.141  13.783 -0.0821  0.1013 -0.1415
 1968PEP     CB75019  10.890  -0.380  13.392  0.3043  0.4698  0.2225
 1968PEP     CB75020  10.488  -0.663  13.469  0.2009 -0.0302 -0.2524
 1968PEP     CB75021  10.273  -0.671  13.906  0.1694  0.0212 -0.1524
 1968PEP     CB75022  10.418  -0.368  14.314  0.2492 -0.1591  0.2864
 1968PEP     CB75023  10.539  -0.013  14.525 -0.2549 -0.0054 -0.1383
 1968PEP     CB75024  10.276   0.326  14.749  0.0964 -0.2770  0.2125
 1968PEP     CB75025   9.913   0.496  14.686 -0.0248  0.4159  0.2079
 1968PEP     CB75026   9.622   0.826  14.459 -0.2017 -0.3107  0.4676
 1968PEP     CB75027   9.574   1.217  14.172  0.1079  0.0161  0.1849
 1968PEP     CB75028   9.698   1.619  14.067 -0.1683  0.1762 -0.0574
 1968PEP     CB75029   9.804   1.851  14.482 -0.1440  0.3489  0.0212
 1968PEP     CB75030   9.770   1.978  14.918  0.0708 -0.2813  0.0949
 1968PEP     CB75031   9.561   2.080  15.367 -0.0281 -0.1645 -0.0507
 1968PEP     CB75032   9.247   2.249  15.691  0.0547  0.1889  0.0936
 1968PEP     CB75033   8.880   2.332  15.946  0.1460  0.1173 -0.1166
 1968PEP     CB75034   8.539   2.458  16.219  0.0207  0.0313 -0.3315
 1968PEP     CB75035   8.161   2.490  16.423 -0.3165 -0.1781  0.1105
 1968PEP     CB75036   7.845   2.213  16.530  0.3370 -0.3084  0.1955
 1968PEP     CB75037   7.844   1.761  16.572  0.0250 -0.1895  0.2953
 1968PEP     CB75038   7.777   1.395  16.529 -0.3802 -0.0522  0.0309
 1968PEP     CB75039   7.762   0.910  16.713 -0.0215 -0.2058  0.0527
 1968PEP     CB75040   7.795   0.606  16.984  0.0522 -0.1346  0.2923
 1969PEP     CB75041  11.341   5.114  19.641 -0.0178  0.0479  0.1148
 1969PEP     CB75042  11.059   5.201  19.280  0.0639 -0.2363  0.0409
 1969PEP     CB75043  10.786   4.866  19.060  0.0260 -0.6019 -0.0428
 1969PEP     CB75044  10.480   4.639  19.309  0.6585 -0.4629 -0.0166
 1969PEP     CB75045  10.392   4.252  19.589  0.2949  0.0530 -0.0129
 1969PEP     CB75046  10.547   4.036  19.975 -0.1510 -0.4045  0.0810
 1969PEP     CB75047  10.652   3.898  20.353 -0.0034  0.1550  0.1930
 1969PEP     CB75048  10.620   3.987  20.808  0.1189 -0.0431 -0.2119
 1969PEP     CB75049  10.571   3.912  21.259 -0.0148  0.2023 -0.1433
 1969PEP     CB75050  10.586   3.626  21.644 -0.1917  0.0782  0.0683
 1969PEP     CB75051  10.558   3.295  22.002  0.0930  0.0578  0.0677
 1969PEP     CB75052  10.448   2.839  22.017  0.2018 -0.3920 -0.0388
 1969PEP     CB75053  10.234   2.597  21.737 -0.2497 -0.1001 -0.1651
 1969PEP     CB75054  10.248   2.690  21.307  0.0802  0.3067  0.2271
 1969PEP     CB75055  10.074   2.858  20.935 -0.0272  0.1152  0.2415
 1969PEP     CB75056  10.114   3.312  20.734  0.0509  0.2364 -0.2121
 1969PEP     CB75057  10.178   3.713  20.916  0.5223  0.1362  0.1509
 1969PEP     CB75058  10.127   4.059  21.196 -0.0327  0.0469  0.0959
 1969PEP     CB75059  10.449   4.393  21.143 -0.4956  0.0046  0.0646
 1969PEP     CB75060  10.662   4.680  20.971  0.1605 -0.0772  0.0738
 1969PEP     CB75061  10.615   4.849  20.563 -0.0193  0.1730  0.2922
 1969PEP     CB75062  10.584   5.044  20.236 -0.2437 -0.0630  0.1527
 1969PEP     CB75063  10.609   5.162  19.879 -0.2145  0.3875 -0.2333
 1969PEP     CB75064  10.838   4.895  19.576  0.5455 -0.1723  0.2352
 1969PEP     CB75065  10.870   4.447  19.704 -0.1824  0.0636 -0.1065
 1969PEP     CB75066  11.141   4.051  19.793  0.0016  0.0035  0.2718
 1969PEP     CB75067  11.598   3.857  19.731 -0.0425  0.1066 -0.2817
 1969PEP     CB75068  11.955   3.780  19.557  0.1910  0.1577 -0.0759
 1969PEP     CB75069  12.384   3.889  19.448  0.0240 -0.1089  0.1228
 1969PEP     CB75070  12.689   4.144  19.206  0.0781  0.0893 -0.5798
 1969PEP     CB75071  12.993   4.007  18.991  0.0384  0.3550 -0.2549
 1969PEP     CB75072  13.084   4.043  18.535  0.0289  0.3385  0.0963
 1969PEP     CB75073  12.680   3.877  18.236 -0.2171  0.0751 -0.0393
 1969PEP     CB75074  12.252   3.772  18.253  0.1987  0.4444 -0.1189
 1969PEP     CB75075  11.796   3.678  18.473  0.0721  0.0035  0.2738
 1969PEP     CB75076  11.552   3.796  18.722 -0.0562  0.0622 -0.3206
 1969PEP     CB75077  11.261   3.522  18.927 -0.0011 -0.0272  0.2077
 1969PEP     CB75078  11.167   3.155  18.908  0.2541 -0.1035 -0.0153
 1969PEP     CB75079  10.998   2.738  19.012  0.2729  0.0540  0.5655
 1969PEP     CB75080  11.141   2.425  19.250 -0.1409  0.0080  0.0661
 1970PEP     CB75081  13.192   0.483  13.449  0.1173  0.1284  0.1554
 1970PEP     CB75082  13.606   0.746  13.361 -0.0997 -0.3482 -0.1447
 1970PEP     CB75083  13.853   0.887  13.048  0.0495  0.1021  0.2070
 1970PEP     CB75084  14.103   1.163  12.689  0.3449  0.2160 -0.1600
 1970PEP     CB75085  14.305   1.475  12.403  0.1215  0.0794  0.0397
 1970PEP     CB75086  14.520   1.824  12.167  0.1733  0.0225 -0.1263
 1970PEP     CB75087  14.706   2.078  11.864 -0.3490 -0.4131 -0.1110
 1970PEP     CB75088  14.979   2.329  11.659  0.4497  0.1488  0.0773
 1970PEP     CB75089  15.091   2.785  11.740 -0.3931  0.0451 -0.1631
 1970PEP     CB75090  15.429   3.047  11.925  0.1153  0.1943  0.1109
 1970PEP     CB75091  15.885   3.203  11.809 -0.4247 -0.2497 -0.0467
 1970PEP     CB75092  16.280   3.403  11.861 -0.2379  0.1488 -0.2944
 1970PEP     CB75093  16.399   3.859  11.959  0.0014 -0.1398  0.1388
 1970PEP     CB75094  16.244   4.182  12.087  0.2033 -0.2456 -0.2632
 1970PEP     CB75095  16.025   4.513  12.018  0.1315 -0.1608  0.0302
 1970PEP     CB75096  16.127   4.868  12.151  0.2231  0.1199 -0.3279
 1970PEP     CB75097  16.299   4.871  12.620  0.2615 -0.0160 -0.5907
 1970PEP     CB75098  16.401   4.590  12.893  0.0213 -0.1889 -0.1677
 1970PEP     CB75099  16.339   4.237  13.110  0.2093 -0.1515 -0.2688
 1970PEP     CB75100  16.046   3.944  13.350  0.2055 -0.4393  0.1660
 1970PEP     CB75101  15.915   3.850  13.893 -0.3536  0.0689  0.1617
 1970PEP     CB75102  16.145   4.084  14.283 -0.1121 -0.0100  0.2834
 1970PEP     CB75103  16.182   4.532  14.292 -0.1433 -0.0765  0.0859
 1970PEP     CB75104  16.229   4.820  13.914 -0.3433 -0.2752 -0.2188
 1970PEP     CB75105  16.436   5.153  13.890  0.2598 -0.2976 -0.3512
 1970PEP     CB75106  16.374   5.625  13.973 -0.2465  0.0504 -0.0062
 1970PEP     CB75107  16.423   6.052  13.837  0.1050 -0.0031  0.5724
 1970PEP     CB75108  16.216   6.435  13.747 -0.1440  0.0909  0.2478
 1970PEP     CB75109  16.250   6.832  13.881 -0.2356  0.0223  0.0684
 1970PEP     CB75110  16.532   7.160  13.883 -0.0764  0.0828 -0.1702
 1970PEP     CB75111  16.727   7.507  14.071  0.1821  0.0501  0.1911
 1970PEP     CB75112  17.057   7.638  14.377 -0.2280 -0.2146 -0.1185
 1970PEP     CB75113  17.478   7.643  14.604 -0.1615 -0.1889 -0.0194
 1970PEP     CB75114  17.683   7.436  14.976  0.1332 -0.0378 -0.0407
 1970PEP     CB75115  17.749   7.598  15.437  0.3559 -0.1358  0.0691
 1970PEP     CB75116  17.713   7.909  15.722  0.2755 -0.2621 -0.0140
 1970PEP     CB75117  17.625   8.124  16.072  0.1063 -0.5871 -0.2743
 1970PEP     CB75118  17.801   8.225  16.449 -0.0385  0.0799 -0.1304
 1970PEP     CB75119  17.649   8.362  16.847  0.3546 -0.1229  0.6373
 1970PEP     CB75120  17.784   8.556  17.212  0.1667  0.1140  0.1880
 1971PEP     CB75121  17.025  11.021   2.251  0.0364 -0.1112  0.0977
 1971PEP     CB75122  16.756  11.263   2.042 -0.1775  0.0601 -0.3063
 1971PEP     CB75123  16.629  11.703   1.889  0.1714 -0.1688 -0.3569
 1971PEP     CB75124  16.291  11.879   1.671 -0.1062  0.1447 -0.2673
 1971PEP     CB75125  15.839  11.866   1.673 -0.1871  0.1621  0.0514
 1971PEP     CB75126  15.448  12.026   1.814 -0.0025 -0.0144 -0.4913
 1971PEP     CB75127  15.038  11.954   2.042  0.1643 -0.3272 -0.0738
 1971PEP     CB75128  14.646  11.828   2.122 -0.0457 -0.3752  0.2506
 1971PEP     CB75129  14.231  11.674   2.208 -0.2059  0.2423  0.1483
 1971PEP     CB75130  14.163  11.279   2.157 -0.0589  0.1924  0.0455
 1971PEP     CB75131  14.446  10.955   2.079  0.2660  0.2741 -0.0684
 1971PEP     CB75132  14.358  10.606   1.773 -0.1633  0.1695  0.2492
 1971PEP     CB75133  14.108  10.478   1.427 -0.0170 -0.1862  0.1288
 1971PEP     CB75134  13.812  10.188   1.247  0.1632  0.0034  0.4714
 1971PEP     CB75135  13.922   9.883   0.940 -0.3224  0.5344  0.0122
 1971PEP     CB75136  14.173   9.479   0.764  0.2227 -0.0036  0.0119
 1971PEP     CB75137  14.544   9.287   0.832 -0.1103 -0.2193 -0.2586
 1971PEP     CB75138  15.106   9.375   0.773 -0.5545 -0.0762 -0.0174
 1971PEP     CB75139  15.423   9.187   0.508 -0.1374  0.0174  0.0827
 1971PEP     CB75140  15.552   9.177   0.137  0.5159  0.1237 -0.2699
 1971PEP     CB75141  15.753   9.234  -0.278 -0.1448  0.1333  0.0591
 1971PEP     CB75142  16.142   9.163  -0.347  0.0702  0.3003  0.1546
 1971PEP     CB75143  16.488   9.404  -0.321  0.2692 -0.1537  0.0193
 1971PEP     CB75144  16.778   9.573  -0.021  0.1453 -0.0733 -0.0298
 1971PEP     CB75145  16.773   9.544   0.425  0.0517 -0.0662 -0.2049
 1971PEP     CB75146  16.513   9.370   0.715 -0.3041  0.2371 -0.1047
 1971PEP     CB75147  16.464   9.426   1.187  0.0410  0.3586 -0.1943
 1971PEP     CB75148  16.773   9.522   1.436 -0.6186  0.0216  0.0687
 1971PEP     CB75149  17.156   9.709   1.403  0.0432  0.3404  0.0452
 1971PEP     CB75150  17.500   9.773   1.633  0.3158 -0.0101 -0.0095
 1971PEP     CB75151  17.627   9.877   2.008  0.3679 -0.0003  0.0857
 1971PEP     CB75152  17.429  10.028   2.500  0.1702 -0.1758  0.1910
 1971PEP     CB75153  17.576  10.377   2.675 -0.0911 -0.0182  0.1784
 1971PEP     CB75154  17.984  10.520   2.674 -0.1760  0.0888  0.3808
 1971PEP     CB75155  18.344  10.496   2.640 -0.0524  0.1924 -0.2002
 1971PEP     CB75156  18.772  10.455   2.509  0.1028  0.0940 -0.3167
 1971PEP     CB75157  19.070  10.806   2.443  0.1732 -0.1043 -0.0611
 1971PEP     CB75158  19.269  11.140   2.486  0.1735 -0.1165 -0.0491
 1971PEP     CB75159  19.277  11.498   2.369  0.1574  0.6689  0.1716
 1971PEP     CB75160  19.319  11.888   2.079  0.5791  0.4923  0.0647
 1972PEP     CB75161  13.176  18.506  17.800  0.0388 -0.2578 -0.4019
 1972PEP     CB75162  13.069  18.409  18.136  0.1181 -0.1112 -0.0064
 1972PEP     CB75163  13.192  18.194  18.535  0.0877 -0.1522  0.3799
 1972PEP     CB75164  13.338  17.941  18.832  0.1191 -0.0156  0.1117
 1972PEP     CB75165  13.490  17.764  19.188 -0.4042  0.0888  0.3058
 1972PEP     CB75166  13.608  17.459  19.248  0.0447 -0.0559  0.0381
 1972PEP     CB75167  13.692  17.069  19.359  0.3118 -0.2700 -0.1192
 1972PEP     CB75168  13.974  16.819  19.357  0.1720 -0.0290  0.4564
 1972PEP     CB75169  14.457  16.925  19.445 -0.1765  0.4457  0.3619
 1972PEP     CB75170  14.802  17.025  19.192 -0.0116 -0.1447 -0.0339
 1972PEP     CB75171  15.172  17.014  18.845  0.3624  0.1845 -0.1338
 1972PEP     CB75172  15.572  17.232  18.719  0.0318  0.1643 -0.0812
 1972PEP     CB75173  16.019  17.500  18.609  0.6618 -0.1373 -0.0456
 1972PEP     CB75174  16.399  17.453  18.586  0.1796  0.1878 -0.3512
 1972PEP     CB75175  16.594  16.904  18.640  0.2771 -0.2784 -0.2445
 1972PEP     CB75176  16.361  16.548  18.857 -0.1890  0.0530  0.4691
 1972PEP     CB75177  15.888  16.556  18.872 -0.4283 -0.2758 -0.0553
 1972PEP     CB75178  15.506  16.781  18.557  0.1230 -0.2311  0.1634
 1972PEP     CB75179  15.376  17.140  18.201  0.0227 -0.0933  0.0649
 1972PEP     CB75180  15.599  17.561  18.023 -0.1698  0.0966 -0.0386
 1972PEP     CB75181  15.978  17.674  18.068  0.1283 -0.3062  0.0108
 1972PEP     CB75182  16.227  18.005  17.796 -0.0422  0.1974 -0.0776
 1972PEP     CB75183  16.467  18.402  17.743  0.0479 -0.0160  0.0735
 1972PEP     CB75184  16.631  18.816  17.797 -0.0865 -0.0302  0.3549
 1972PEP     CB75185  16.873  19.179  17.545  0.4677 -0.2335  0.0382
 1972PEP     CB75186  16.979  19.527  17.427  0.0320 -0.2641 -0.0585
 1972PEP     CB75187  16.927  20.021  17.428 -0.3817  0.1203 -0.3161
 1972PEP     CB75188  16.640  20.306  17.242 -0.1027  0.1165  0.1562
 1972PEP     CB75189  16.142  20.225  17.154  0.1900  0.2135 -0.2524
 1972PEP     CB75190  16.044  19.814  17.232  0.0563 -0.2385 -0.0298
 1972PEP     CB75191  16.262  19.698  17.491  0.4387  0.0208  0.0597
 1972PEP     CB75192  16.532  19.922  17.763 -0.4307 -0.1828  0.3918
 1972PEP     CB75193  16.705  20.316  17.789  0.2508  0.2754 -0.0070
 1972PEP     CB75194  16.532  20.641  17.960 -0.5608 -0.1209  0.4439
 1972PEP     CB75195  16.139  20.846  18.004  0.0924 -0.3396  0.3253
 1972PEP     CB75196  15.936  20.998  18.376  0.1600 -0.1168 -0.1092
 1972PEP     CB75197  16.116  21.057  18.736  0.1030  0.0394 -0.1291
 1972PEP     CB75198  16.527  21.296  18.740 -0.1260  0.0104  0.2105
 1972PEP     CB75199  16.575  21.717  18.462 -0.1495  0.2525 -0.0033
 1972PEP     CB75200  16.564  21.682  17.959  0.2887  0.0793  0.0785
 1973PEP     CB75201   4.308   3.623   7.716 -0.2100  0.2829  0.1007
 1973PEP     CB75202   3.921   3.483   7.651  0.0803  0.2698  0.1053
 1973PEP     CB75203   3.490   3.297   7.716 -0.3082  0.0924  0.2309
 1973PEP     CB75204   3.215   3.033   7.517  0.2752  0.4880 -0.0418
 1973PEP     CB75205   2.780   2.898   7.424 -0.0130  0.1436  0.0555
 1973PEP     CB75206   2.544   2.523   7.501 -0.0291  0.0347 -0.3729
 1973PEP     CB75207   2.707   2.034   7.453  0.1091  0.0675  0.0230
 1973PEP     CB75208   2.737   1.614   7.204  0.0963 -0.0280  0.1198
 1973PEP     CB75209   2.545   1.198   7.387 -0.7116  0.3535 -0.0303
 1973PEP     CB75210   2.023   1.215   7.525  0.4773 -0.0677 -0.0042
 1973PEP     CB75211   1.943   1.585   7.802 -0.2639  0.1292 -0.4435
 1973PEP     CB75212   2.188   1.996   8.002 -0.4422  0.1352  0.0227
 1973PEP     CB75213   2.559   2.244   7.978 -0.0545 -0.4355  0.0321
 1973PEP     CB75214   3.000   2.223   8.024 -0.1884 -0.1727 -0.1896
 1973PEP     CB75215   3.411   2.222   8.234 -0.0647 -0.2480  0.3890
 1973PEP     CB75216   3.645   2.363   8.430 -0.1342  0.4379 -0.3804
 1973PEP     CB75217   3.792   2.605   8.714 -0.0508  0.1194 -0.0105
 1973PEP     CB75218   3.962   2.628   9.194  0.0090 -0.2653  0.0598
 1973PEP     CB75219   4.042   2.273   9.517  0.2002  0.1491 -0.3636
 1973PEP     CB75220   3.884   1.910   9.668  0.2062 -0.2598  0.2918
 1973PEP     CB75221   3.816   1.441   9.717 -0.2795 -0.2075 -0.0211
 1973PEP     CB75222   3.558   1.086   9.709 -0.2522  0.1610 -0.0531
 1973PEP     CB75223   3.419   0.707   9.741  0.2954 -0.0977 -0.3638
 1973PEP     CB75224   3.326   0.412   9.433 -0.2056 -0.0034  0.1340
 1973PEP     CB75225   3.368   0.074   9.326  0.1910  0.0361  0.3223
 1973PEP     CB75226   3.266  -0.346   9.340  0.1617  0.0607 -0.0960
 1973PEP     CB75227   2.933  -0.594   9.139  0.0950  0.1362 -0.3931
 1973PEP     CB75228   2.813  -0.360   8.784  0.1657 -0.1115 -0.1309
 1973PEP     CB75229   2.859  -0.093   8.371 -0.6803 -0.4239  0.0947
 1973PEP     CB75230   3.122   0.309   8.341 -0.0549  0.2405  0.2407
 1973PEP     CB75231   3.536   0.471   8.437  0.2167 -0.2681  0.1081
 1973PEP     CB75232   3.854   0.678   8.731 -0.0029  0.0341  0.0856
 1973PEP     CB75233   4.045   0.977   9.052  0.2618 -0.0112 -0.0051
 1973PEP     CB75234   4.067   1.094   9.467  0.1054 -0.1572 -0.0596
 1973PEP     CB75235   4.186   1.094   9.855 -0.2442  0.1464 -0.1411
 1973PEP     CB75236   4.442   0.971  10.281  0.4477 -0.1891 -0.2114
 1973PEP     CB75237   4.724   0.865  10.434 -0.2014 -0.2004  0.2810
 1973PEP     CB75238   5.056   0.754  10.769 -0.2300 -0.2826  0.0487
 1973PEP     CB75239   5.475   0.799  10.930  0.2475 -0.2885 -0.1108
 1973PEP     CB75240   5.887   0.785  10.998  0.0176  0.2781  0.1934
 1974PEP     CB75241   9.766  11.413  16.418  0.1253 -0.0344  0.2928
 1974PEP     CB75242   9.907  11.872  16.409  0.0922 -0.2056  0.2185
 1974PEP     CB75243  10.203  12.121  16.723  0.0862 -0.1181 -0.0396
 1974PEP     CB75244  10.205  12.065  17.193 -0.2237 -0.0236  0.1356
 1974PEP     CB75245  10.329  11.800  17.528 -0.0959 -0.2515  0.1695
 1974PEP     CB75246  10.235  11.532  17.882  0.1719  0.2349  0.1338
 1974PEP     CB75247   9.832  11.542  18.117  0.1704 -0.2435 -0.3456
 1974PEP     CB75248   9.598  11.478  18.436  0.3194  0.2630  0.0340
 1974PEP     CB75249   9.409  11.130  18.726  0.0710  0.3505  0.0222
 1974PEP     CB75250   8.957  11.099  18.915 -0.3946  0.1858  0.1402
 1974PEP     CB75251   8.513  11.175  19.011 -0.0340  0.1559  0.0746
 1974PEP     CB75252   8.307  11.365  19.337  0.2133  0.1904  0.2571
 1974PEP     CB75253   7.977  11.465  19.540 -0.0102 -0.1612  0.0209
 1974PEP     CB75254   7.815  11.875  19.909 -0.0795  0.0007 -0.3991
 1974PEP     CB75255   8.064  12.138  20.139 -0.3094  0.1727 -0.1092
 1974PEP     CB75256   8.427  12.360  20.290  0.1777  0.3532  0.1773
 1974PEP     CB75257   8.707  12.488  20.611  0.0607  0.4895 -0.0579
 1974PEP     CB75258   8.968  12.537  20.929 -0.4690 -0.0047  0.2258
 1974PEP     CB75259   9.072  12.698  21.226 -0.1418  0.0404 -0.6791
 1974PEP     CB75260   8.952  12.968  21.490 -0.4428 -0.2784 -0.0609
 1974PEP     CB75261   8.778  13.074  21.871 -0.0632 -0.1253 -0.1390
 1974PEP     CB75262   8.594  12.895  22.263  0.2351 -0.0961 -0.1435
 1974PEP     CB75263   8.758  12.569  22.494  0.0094 -0.0355 -0.2299
 1974PEP     CB75264   9.003  12.226  22.333  0.0773  0.1687  0.1367
 1974PEP     CB75265   8.883  11.757  22.176  0.0224 -0.0308 -0.4004
 1974PEP     CB75266   8.666  11.301  21.974 -0.2668 -0.0192  0.1147
 1974PEP     CB75267   8.458  10.968  21.735 -0.4410  0.1118 -0.4955
 1974PEP     CB75268   8.448  10.856  21.259 -0.7685  0.1105 -0.3502
 1974PEP     CB75269   8.352  10.637  20.937 -0.2152 -0.2429 -0.4686
 1974PEP     CB75270   8.302  10.742  20.519  0.1674  0.1198 -0.0684
 1974PEP     CB75271   8.542  10.917  20.135  0.5754 -0.2980 -0.0056
 1974PEP     CB75272   8.965  10.915  19.996  0.0814 -0.0735 -0.2877
 1974PEP     CB75273   9.376  11.050  19.831  0.0974  0.0529 -0.2420
 1974PEP     CB75274   9.806  10.965  19.950 -0.1359 -0.1860 -0.2213
 1974PEP     CB75275   9.943  10.592  19.926  0.2583 -0.0331  0.1177
 1974PEP     CB75276  10.069  10.163  19.934  0.1997 -0.2864 -0.3661
 1974PEP     CB75277  10.305   9.761  19.836 -0.0723 -0.1220 -0.1940
 1974PEP     CB75278  10.777   9.681  19.844  0.2188  0.1798  0.0007
 1974PEP     CB75279  11.237   9.840  20.016 -0.4522  0.2456  0.1315
 1974PEP     CB75280  11.674   9.682  20.229  0.4350 -0.0853  0.2556
 1975PEP     CB75281  10.263   6.256  15.617  0.3216  0.0989 -0.2216
 1975PEP     CB75282  10.088   6.175  15.910  0.2316 -0.4254  0.1683
 1975PEP     CB75283   9.872   5.761  16.094 -0.3964  0.0178  0.1826
 1975PEP     CB75284   9.515   5.496  15.972 -0.2123 -0.0054  0.4881
 1975PEP     CB75285   9.260   5.378  15.587  0.1468 -0.2618 -0.0719
 1975PEP     CB75286   9.290   5.526  15.170 -0.1785 -0.0403 -0.1846
 1975PEP     CB75287   9.681   5.455  14.956 -0.1480 -0.3475  0.3267
 1975PEP     CB75288  10.049   5.240  14.904  0.2970  0.0842  0.4144
 1975PEP     CB75289  10.275   4.747  14.880 -0.1042 -0.2058  0.4921
 1975PEP     CB75290  10.087   4.373  14.770  0.2231 -0.2838 -0.3671
 1975PEP     CB75291   9.958   3.948  14.879 -0.0064 -0.3811  0.4490
 1975PEP     CB75292  10.089   3.511  14.818  0.2497 -0.3443  0.0488
 1975PEP     CB75293  10.063   3.003  14.578  0.0063 -0.3841 -0.0916
 1975PEP     CB75294   9.980   2.582  14.491 -0.3449  0.3489 -0.4089
 1975PEP     CB75295   9.660   2.369  14.536  0.3853  0.2991  0.1010
 1975PEP     CB75296   9.274   2.240  14.548  0.2665 -0.2786  0.1267
 1975PEP     CB75297   8.827   2.112  14.818  0.0043 -0.3610  0.2027
 1975PEP     CB75298   8.409   2.086  14.707  0.0918  0.1208 -0.2214
 1975PEP     CB75299   8.118   1.877  14.390 -0.1126  0.0614  0.0548
 1975PEP     CB75300   8.263   1.668  14.005  0.2163  0.1817 -0.2376
 1975PEP     CB75301   8.637   1.672  13.735  0.3559 -0.4142 -0.1527
 1975PEP     CB75302   9.041   1.744  13.407  0.4544  0.0060  0.0054
 1975PEP     CB75303   9.455   1.980  13.272 -0.1528  0.4580 -0.2540
 1975PEP     CB75304   9.866   2.006  13.573  0.0849 -0.0496  0.1070
 1975PEP     CB75305   9.699   2.185  13.986 -0.3234 -0.0624  0.2302
 1975PEP     CB75306   9.274   2.295  14.035 -0.1056 -0.4347  0.1186
 1975PEP     CB75307   8.930   2.503  13.955  0.1195  0.1109 -0.3912
 1975PEP     CB75308   8.698   2.968  13.935 -0.3554  0.1091  0.2429
 1975PEP     CB75309   8.579   3.408  13.945  0.1662  0.0325  0.0452
 1975PEP     CB75310   8.287   3.745  14.043 -0.0168  0.0546 -0.3329
 1975PEP     CB75311   7.886   3.929  13.930  0.0152 -0.0654 -0.0661
 1975PEP     CB75312   7.562   4.087  13.645 -0.2154  0.1481  0.2343
 1975PEP     CB75313   7.348   4.397  13.453 -0.6086 -0.0629  0.0379
 1975PEP     CB75314   7.002   4.447  13.216  0.0876  0.2858  0.2855
 1975PEP     CB75315   6.604   4.348  13.106 -0.0464 -0.1808  0.1910
 1975PEP     CB75316   6.234   4.225  12.901  0.0271 -0.0453 -0.0220
 1975PEP     CB75317   5.851   4.459  12.890  0.0746  0.1473 -0.1413
 1975PEP     CB75318   5.361   4.471  13.064  0.0010 -0.0607  0.0027
 1975PEP     CB75319   4.859   4.476  13.070 -0.2607  0.0160  0.0434
 1975PEP     CB75320   4.538   4.775  12.992 -0.0939 -0.2923  0.4620
 1976PEP     CB75321   0.879  19.097   2.336  0.0668  0.0304  0.0677
 1976PEP     CB75322   1.213  18.799   2.348 -0.0951 -0.1235  0.2385
 1976PEP     CB75323   1.427  18.395   2.335 -0.1722  0.1106 -0.3522
 1976PEP     CB75324   1.509  17.946   2.190 -0.1789  0.2454 -0.1156
 1976PEP     CB75325   1.315  17.689   1.912  0.1599 -0.0031 -0.3454
 1976PEP     CB75326   0.893  17.585   1.669  0.0686 -0.1022 -0.0366
 1976PEP     CB75327   0.519  17.802   1.585 -0.1134 -0.4954 -0.0368
 1976PEP     CB75328   0.336  18.075   1.419  0.1126 -0.3716 -0.2838
 1976PEP     CB75329   0.032  18.378   1.649  0.0787 -0.3777 -0.0149
 1976PEP     CB75330  -0.158  18.576   2.157 -0.6775 -0.3015  0.1292
 1976PEP     CB75331  -0.546  18.490   2.229  0.1711 -0.1548  0.2582
 1976PEP     CB75332  -0.716  18.187   2.497  0.2289  0.0473 -0.2036
 1976PEP     CB75333  -0.874  18.185   2.808 -0.0867 -0.1163 -0.0442
 1976PEP     CB75334  -0.974  18.434   3.087 -0.1086 -0.0108 -0.0207
 1976PEP     CB75335  -0.900  18.864   3.224 -0.0412  0.1070  0.1014
 1976PEP     CB75336  -0.834  19.389   3.147 -0.0455 -0.0125  0.2309
 1976PEP     CB75337  -0.635  19.600   2.825 -0.4104 -0.1674  0.2170
 1976PEP     CB75338  -0.342  19.507   2.449 -0.1167  0.1853 -0.3356
 1976PEP     CB75339   0.008  19.540   2.112  0.1363  0.0612 -0.3599
 1976PEP     CB75340   0.072  19.348   1.675 -0.2614 -0.1086  0.1294
 1976PEP     CB75341  -0.071  19.185   1.321 -0.5718  0.5372  0.3833
 1976PEP     CB75342  -0.030  19.083   0.891 -0.0338 -0.1079 -0.1398
 1976PEP     CB75343   0.236  19.129   0.428  0.0369 -0.5103 -0.2522
 1976PEP     CB75344   0.631  18.922   0.406 -0.1846  0.1010  0.3031
 1976PEP     CB75345   0.873  18.687   0.190  0.0985  0.1650  0.1386
 1976PEP     CB75346   1.268  18.486  -0.068 -0.0169  0.0681  0.1323
 1976PEP     CB75347   1.630  18.415  -0.050 -0.0853  0.0916 -0.2134
 1976PEP     CB75348   1.932  18.182   0.013  0.0162  0.2296 -0.1986
 1976PEP     CB75349   1.828  17.854   0.248 -0.1559 -0.1613 -0.0426
 1976PEP     CB75350   1.374  17.578   0.261 -0.2095 -0.0006  0.1558
 1976PEP     CB75351   1.128  17.168   0.280 -0.0940  0.1414  0.0361
 1976PEP     CB75352   1.161  16.775   0.198  0.1828  0.0238  0.1352
 1976PEP     CB75353   1.354  16.332   0.423  0.1831 -0.1111  0.1875
 1976PEP     CB75354   1.481  16.097   0.865  0.1007 -0.0611  0.0768
 1976PEP     CB75355   1.443  15.906   1.322 -0.2355 -0.0868  0.1702
 1976PEP     CB75356   1.518  15.621   1.592  0.4583 -0.2039  0.3420
 1976PEP     CB75357   1.517  15.447   1.954  0.4418 -0.3333  0.1513
 1976PEP     CB75358   1.279  15.334   2.287 -0.4866  0.4567 -0.1791
 1976PEP     CB75359   0.961  15.413   2.641 -0.1298 -0.0288 -0.7153
 1976PEP     CB75360   0.605  15.635   2.636  0.0155 -0.2554  0.2135
 1977PEP     CB75361  12.687   8.535   3.045 -0.0669 -0.0857 -0.1021
 1977PEP     CB75362  12.618   8.787   2.700 -0.1921  0.1459 -0.0434
 1977PEP     CB75363  12.948   8.904   2.450  0.1419  0.1898 -0.1016
 1977PEP     CB75364  13.386   8.777   2.295  0.4898 -0.3358 -0.2520
 1977PEP     CB75365  13.777   8.478   2.306  0.1196  0.0024 -0.1502
 1977PEP     CB75366  14.149   8.449   2.244  0.0630 -0.2091 -0.0160
 1977PEP     CB75367  14.561   8.534   2.102 -0.4804 -0.2572 -0.4062
 1977PEP     CB75368  14.924   8.795   2.079 -0.0582  0.0889  0.0641
 1977PEP     CB75369  15.199   9.086   2.337 -0.0735 -0.1861 -0.2686
 1977PEP     CB75370  15.569   9.058   2.643  0.0403  0.0947 -0.0279
 1977PEP     CB75371  15.987   9.264   2.611 -0.6303 -0.3638 -0.1555
 1977PEP     CB75372  16.322   9.239   2.370  0.3379 -0.0965 -0.3038
 1977PEP     CB75373  16.721   9.339   2.091  0.1808 -0.0878  0.2080
 1977PEP     CB75374  17.129   9.430   1.821  0.6138 -0.2014  0.3695
 1977PEP     CB75375  17.629   9.357   1.801 -0.2387  0.1960  0.0682
 1977PEP     CB75376  17.960   9.505   1.548  0.0252 -0.3107  0.2616
 1977PEP     CB75377  18.223   9.500   1.208 -0.0617  0.0865 -0.0293
 1977PEP     CB75378  18.277   9.463   0.818 -0.2327 -0.0962  0.1607
 1977PEP     CB75379  18.307   9.176   0.505  0.1721 -0.5441 -0.0862
 1977PEP     CB75380  18.381   9.001   0.120 -0.0585 -0.3053  0.0310
 1977PEP     CB75381  18.394   9.267  -0.242 -0.0370  0.1240 -0.0355
 1977PEP     CB75382  18.577   9.455  -0.675  0.0436 -0.0662 -0.0870
 1977PEP     CB75383  18.672   9.352  -1.102 -0.4492  0.2016 -0.0294
 1977PEP     CB75384  18.731   9.494  -1.453  0.1022 -0.3424 -0.1310
 1977PEP     CB75385  18.963   9.825  -1.697 -0.1904 -0.1182 -0.0565
 1977PEP     CB75386  19.123   9.858  -2.077  0.1097  0.3487 -0.3798
 1977PEP     CB75387  19.512   9.622  -2.338 -0.1294 -0.0671 -0.0700
 1977PEP     CB75388  19.812   9.260  -2.075  0.0036  0.1643 -0.1717
 1977PEP     CB75389  19.969   9.278  -1.629 -0.3164  0.0334 -0.1187
 1977PEP     CB75390  20.006   9.690  -1.422  0.2469  0.1451  0.1227
 1977PEP     CB75391  19.874  10.092  -1.612 -0.0452  0.1765 -0.1287
 1977PEP     CB75392  19.985  10.504  -1.872 -0.3138  0.1539 -0.0636
 1977PEP     CB75393  20.009  10.829  -2.135 -0.2007  0.5983 -0.0010
 1977PEP     CB75394  20.056  11.213  -2.326  0.0185  0.0713  0.1219
 1977PEP     CB75395  19.837  11.487  -2.602  0.1463 -0.1309  0.0820
 1977PEP     CB75396  19.521  11.341  -2.911  0.3448 -0.6231 -0.2607
 1977PEP     CB75397  19.292  10.965  -3.056  0.3160 -0.1972 -0.3896
 1977PEP     CB75398  19.200  10.531  -3.304 -0.1794 -0.7200  0.1122
 1977PEP     CB75399  19.246  10.291  -3.586  0.0924 -0.5488  0.0106
 1977PEP     CB75400  19.352  10.151  -3.939 -0.4915 -0.0699  0.0171
 1978PEP     CB75401  14.058   2.717   9.564  0.3175  0.1166 -0.1914
 1978PEP     CB75402  14.531   2.705   9.578 -0.1342 -0.0736 -0.1805
 1978PEP     CB75403  14.967   2.529   9.553 -0.1519  0.1531 -0.0253
 1978PEP     CB75404  15.383   2.540   9.696 -0.3080  0.1230  0.2369
 1978PEP     CB75405  15.843   2.493   9.599 -0.0158 -0.1017 -0.2518
 1978PEP     CB75406  16.290   2.591   9.558  0.3379 -0.0741 -0.2447
 1978PEP     CB75407  16.712   2.674   9.377 -0.1258  0.0498  0.2922
 1978PEP     CB75408  17.161   2.714   9.551  0.2890  0.0126  0.0414
 1978PEP     CB75409  17.455   2.651   9.879  0.0841  0.1108 -0.1919
 1978PEP     CB75410  17.589   2.266  10.035 -0.0782  0.0502  0.2526
 1978PEP     CB75411  17.574   1.798  10.260  0.1073  0.2547 -0.3654
 1978PEP     CB75412  17.433   1.380  10.340 -0.0884 -0.1790  0.0485
 1978PEP     CB75413  17.489   0.886  10.264 -0.1892 -0.0980 -0.1208
 1978PEP     CB75414  17.338   0.598   9.958 -0.1475  0.0476  0.0099
 1978PEP     CB75415  17.325   0.591   9.528  0.1038 -0.1176 -0.0080
 1978PEP     CB75416  17.210   0.940   9.247  0.4278  0.2911  0.1433
 1978PEP     CB75417  17.342   1.353   9.199 -0.5195 -0.3871  0.5237
 1978PEP     CB75418  17.490   1.791   9.195  0.1335 -0.2946 -0.0634
 1978PEP     CB75419  17.875   1.998   9.190  0.1118  0.0824  0.0021
 1978PEP     CB75420  18.321   2.019   9.241 -0.1476 -0.3707  0.1133
 1978PEP     CB75421  18.771   1.973   9.115  0.3707  0.1230  0.4314
 1978PEP     CB75422  19.231   2.110   9.076 -0.1225 -0.0033 -0.2371
 1978PEP     CB75423  19.557   2.208   9.335 -0.1468 -0.0364 -0.1284
 1978PEP     CB75424  19.592   2.292   9.775  0.0355 -0.1495 -0.2414
 1978PEP     CB75425  19.703   2.205  10.215  0.2905 -0.3187 -0.2442
 1978PEP     CB75426  20.030   2.086  10.474  0.0815 -0.2882  0.3890
 1978PEP     CB75427  20.231   1.917  10.768 -0.0039 -0.2195 -0.1474
 1978PEP     CB75428  20.380   1.513  10.745  0.1472 -0.0260  0.1341
 1978PEP     CB75429  20.341   1.119  10.552 -0.0644  0.3899  0.0697
 1978PEP     CB75430  20.022   0.773  10.634 -0.3124  0.1345  0.1662
 1978PEP     CB75431  19.540   0.758  10.792  0.2865  0.5403 -0.1027
 1978PEP     CB75432  19.337   0.785  11.265 -0.5307 -0.1229  0.1381
 1978PEP     CB75433  19.529   0.794  11.578 -0.0209 -0.1103  0.0456
 1978PEP     CB75434  19.715   0.466  11.705 -0.0412  0.1127 -0.1156
 1978PEP     CB75435  19.752   0.071  11.514 -0.1428 -0.2202 -0.1004
 1978PEP     CB75436  19.884  -0.221  11.069  0.3715  0.3053 -0.3530
 1978PEP     CB75437  20.022  -0.660  10.983 -0.1619 -0.2319 -0.3647
 1978PEP     CB75438  20.249  -1.003  11.103  0.2323  0.0750  0.0903
 1978PEP     CB75439  20.390  -1.078  11.449  0.2267  0.1710 -0.3296
 1978PEP     CB75440  20.312  -1.308  11.912 -0.0206 -0.0030  0.2624
 1979PEP     CB75441  16.565   6.325   4.815 -0.1860  0.1036  0.0305
 1979PEP     CB75442  16.916   6.158   5.199 -0.0457 -0.0010  0.0960
 1979PEP     CB75443  17.001   5.820   5.535  0.0891  0.0496  0.3046
 1979PEP     CB75444  17.186   5.387   5.643 -0.2530 -0.2138 -0.0041
 1979PEP     CB75445  17.363   4.952   5.553  0.2504  0.3643 -0.4550
 1979PEP     CB75446  17.782   4.942   5.425 -0.0165 -0.4978  0.3484
 1979PEP     CB75447  18.120   5.255   5.475 -0.2208  0.2294  0.0205
 1979PEP     CB75448  18.196   5.599   5.667 -0.3218  0.1164  0.1055
 1979PEP     CB75449  18.421   5.972   5.626  0.0994 -0.1023  0.1144
 1979PEP     CB75450  18.261   6.282   5.440  0.1875  0.0498  0.1730
 1979PEP     CB75451  17.905   6.353   5.067 -0.1646  0.3849 -0.1708
 1979PEP     CB75452  17.622   6.613   4.752  0.0247  0.1310 -0.0107
 1979PEP     CB75453  17.474   7.108   4.606 -0.0545 -0.2706  0.0997
 1979PEP     CB75454  17.517   7.424   4.929  0.2664  0.1798  0.1228
 1979PEP     CB75455  17.894   7.510   5.138  0.1504  0.0118  0.2814
 1979PEP     CB75456  18.164   7.383   4.920 -0.2775 -0.2017 -0.0561
 1979PEP     CB75457  18.146   7.197   4.503 -0.1837 -0.0127  0.0617
 1979PEP     CB75458  17.826   6.863   4.296  0.0687  0.0123 -0.5076
 1979PEP     CB75459  17.430   6.732   4.327  0.1617  0.0195 -0.0732
 1979PEP     CB75460  17.079   6.484   4.283 -0.0978 -0.0950  0.1232
 1979PEP     CB75461  16.568   6.606   4.250  0.7595  0.3931 -0.3682
 1979PEP     CB75462  16.492   6.938   4.064  0.0669  0.0986 -0.1643
 1979PEP     CB75463  16.661   7.142   3.729 -0.4615 -0.2486  0.0236
 1979PEP     CB75464  17.025   7.250   3.636 -0.1111 -0.1571 -0.1043
 1979PEP     CB75465  17.320   7.427   3.394 -0.1303 -0.5192 -0.0099
 1979PEP     CB75466  17.681   7.473   3.135  0.0502  0.3812  0.3262
 1979PEP     CB75467  17.872   7.445   2.598  0.2760  0.2334  0.2407
 1979PEP     CB75468  17.752   7.135   2.367 -0.1044 -0.0496  0.1291
 1979PEP     CB75469  17.316   6.984   2.407 -0.1017  0.0649  0.0411
 1979PEP     CB75470  17.033   7.226   2.623  0.0265 -0.0650  0.0597
 1979PEP     CB75471  17.144   7.445   2.915  0.0421 -0.2502  0.1738
 1979PEP     CB75472  17.319   7.871   3.115  0.2049 -0.3084  0.2617
 1979PEP     CB75473  17.358   8.101   3.427  0.2719 -0.2716  0.1204
 1979PEP     CB75474  17.407   8.308   3.791  0.2342 -0.1418 -0.2710
 1979PEP     CB75475  17.411   8.407   4.215 -0.0029 -0.2961 -0.1826
 1979PEP     CB75476  17.416   8.119   4.600  0.3468 -0.3184 -0.4080
 1979PEP     CB75477  17.343   8.031   5.005  0.1322  0.2807 -0.3509
 1979PEP     CB75478  17.315   7.716   5.425 -0.1479 -0.4372  0.2603
 1979PEP     CB75479  17.124   7.331   5.545 -0.1802  0.0695 -0.1365
 1979PEP     CB75480  16.927   6.981   5.634  0.3625 -0.1505 -0.2688
 1980PEP     CB75481  15.691   8.572   3.098 -0.0610  0.1914 -0.2824
 1980PEP     CB75482  15.985   8.915   3.006  0.0002  0.2874  0.1813
 1980PEP     CB75483  16.408   9.122   2.906 -0.2499 -0.1130  0.0874
 1980PEP     CB75484  16.745   8.950   2.524 -0.2978  0.1698 -0.1539
 1980PEP     CB75485  16.592   8.789   2.087  0.1585  0.2774 -0.2511
 1980PEP     CB75486  16.318   8.940   1.768 -0.0366 -0.1343  0.3539
 1980PEP     CB75487  16.187   9.353   1.745  0.1410 -0.0943 -0.0993
 1980PEP     CB75488  16.067   9.648   1.520  0.0057 -0.4188  0.2413
 1980PEP     CB75489  16.093   9.870   1.197  0.0524  0.0307 -0.0271
 1980PEP     CB75490  15.969  10.147   0.919  0.4698 -0.3125  0.1981
 1980PEP     CB75491  15.751  10.460   0.861 -0.0728  0.1597 -0.3395
 1980PEP     CB75492  15.702  10.716   1.112  0.1430 -0.1208  0.1472
 1980PEP     CB75493  15.743  10.919   1.505  0.1363  0.2287 -0.2369
 1980PEP     CB75494  15.679  11.406   1.561  0.2373 -0.0564 -0.5342
 1980PEP     CB75495  15.467  11.774   1.316 -0.2637 -0.0371  0.0791
 1980PEP     CB75496  15.442  12.220   1.293 -0.1969 -0.0013 -0.1334
 1980PEP     CB75497  15.401  12.677   1.410  0.0004  0.0860 -0.0099
 1980PEP     CB75498  15.510  13.020   1.645  0.1162 -0.0292 -0.3255
 1980PEP     CB75499  15.568  13.520   1.723  0.1025  0.1531  0.0969
 1980PEP     CB75500  15.752  13.693   2.089 -0.4902 -0.1002 -0.0942
 1980PEP     CB75501  16.042  13.991   2.333  0.1342  0.3878  0.0593
 1980PEP     CB75502  16.136  14.101   2.796 -0.4102  0.1613 -0.2642
 1980PEP     CB75503  16.319  14.463   3.030  0.2066 -0.1569 -0.0332
 1980PEP     CB75504  16.381  14.764   3.192  0.4567  0.2837  0.2152
 1980PEP     CB75505  16.278  14.873   3.683  0.2137  0.2269 -0.1050
 1980PEP     CB75506  16.081  15.124   4.046  0.0668  0.0355 -0.0261
 1980PEP     CB75507  16.051  15.528   4.179 -0.1414 -0.3808 -0.1480
 1980PEP     CB75508  15.902  15.867   4.015  0.2315  0.1383  0.2982
 1980PEP     CB75509  15.729  15.934   3.631 -0.4721  0.2637 -0.0896
 1980PEP     CB75510  15.573  15.984   3.249  0.1887 -0.1911 -0.2038
 1980PEP     CB75511  15.198  16.226   2.949  0.0299 -0.0380  0.1765
 1980PEP     CB75512  14.676  16.328   2.837 -0.2274  0.0014  0.0649
 1980PEP     CB75513  14.374  16.474   2.554  0.4105  0.0360 -0.5044
 1980PEP     CB75514  14.226  16.775   2.269 -0.2700 -0.3377  0.1632
 1980PEP     CB75515  14.241  17.079   1.901  0.1838  0.0254  0.0843
 1980PEP     CB75516  13.760  17.086   1.607 -0.1087 -0.0366  0.3987
 1980PEP     CB75517  13.357  16.902   1.710 -0.2487 -0.1646 -0.2583
 1980PEP     CB75518  12.956  16.815   1.824  0.2883 -0.4807 -0.0880
 1980PEP     CB75519  12.562  16.953   1.951  0.0112  0.2402 -0.0239
 1980PEP     CB75520  12.176  17.208   1.891 -0.4407  0.0414  0.1125
 1981PEP     CB75521   1.218  14.182   7.512  0.3293  0.3335 -0.0235
 1981PEP     CB75522   1.162  13.751   7.459 -0.0389  0.3034 -0.3124
 1981PEP     CB75523   0.762  13.554   7.596  0.2516  0.4024 -0.0417
 1981PEP     CB75524   0.655  13.161   7.824 -0.3889 -0.0954 -0.0138
 1981PEP     CB75525   0.412  13.015   8.024 -0.0389 -0.3523 -0.0279
 1981PEP     CB75526   0.354  12.969   8.420  0.5499  0.3965  0.2913
 1981PEP     CB75527   0.585  12.986   8.833  0.2162 -0.1379  0.0369
 1981PEP     CB75528   0.714  12.974   9.300  0.0465  0.1668 -0.0142
 1981PEP     CB75529   0.565  13.036   9.688  0.6162  0.0844 -0.5461
 1981PEP     CB75530   0.698  12.844  10.010 -0.4221 -0.0269  0.1841
 1981PEP     CB75531   0.521  12.520  10.255 -0.3304 -0.0832  0.4154
 1981PEP     CB75532   0.470  12.079  10.417  0.1735  0.1257  0.1044
 1981PEP     CB75533   0.250  11.812  10.660 -0.1826 -0.2399 -0.0752
 1981PEP     CB75534   0.341  11.625  11.111 -0.1371  0.1333 -0.0725
 1981PEP     CB75535   0.588  11.645  11.524  0.1557 -0.0067 -0.2341
 1981PEP     CB75536   0.633  11.537  11.891 -0.1698 -0.1450 -0.0978
 1981PEP     CB75537   0.998  11.318  12.160  0.1060  0.0851  0.3624
 1981PEP     CB75538   1.339  11.346  12.097  0.1424 -0.2166 -0.2862
 1981PEP     CB75539   1.739  11.578  11.952  0.0999  0.2858  0.2573
 1981PEP     CB75540   2.116  11.712  11.763  0.0009  0.1250 -0.2934
 1981PEP     CB75541   2.232  11.842  11.286 -0.3298  0.3973 -0.2111
 1981PEP     CB75542   2.294  11.630  10.853  0.4786 -0.0083 -0.1552
 1981PEP     CB75543   2.377  11.194  10.731  0.0528 -0.1303 -0.1077
 1981PEP     CB75544   2.506  10.740  10.735 -0.1522 -0.5874  0.1360
 1981PEP     CB75545   2.924  10.551  10.630 -0.1017 -0.2145 -0.2637
 1981PEP     CB75546   3.305  10.793  10.375  0.1849 -0.1712  0.1268
 1981PEP     CB75547   3.297  10.936  10.038 -0.1030 -0.0677  0.0656
 1981PEP     CB75548   3.557  10.804   9.770  0.1287  0.2747  0.3602
 1981PEP     CB75549   3.755  10.384   9.671 -0.0149 -0.2420 -0.0018
 1981PEP     CB75550   3.812  10.066   9.868  0.0855 -0.0420 -0.1233
 1981PEP     CB75551   3.757   9.644  10.093 -0.0364  0.4908  0.0102
 1981PEP     CB75552   3.563   9.258  10.271 -0.4502 -0.1166  0.0648
 1981PEP     CB75553   3.346   8.873  10.305 -0.0770 -0.0471  0.1858
 1981PEP     CB75554   3.073   8.728  10.723 -0.3705  0.2823  0.3569
 1981PEP     CB75555   2.928   9.084  10.977  0.0928  0.2574  0.3594
 1981PEP     CB75556   2.526   9.312  10.878 -0.3479  0.2038 -0.1149
 1981PEP     CB75557   2.232   9.139  10.539  0.0831 -0.1165  0.2436
 1981PEP     CB75558   1.977   8.773  10.544 -0.0261 -0.3347 -0.0628
 1981PEP     CB75559   1.907   8.467  10.826  0.0584  0.0446 -0.0416
 1981PEP     CB75560   1.544   8.168  10.926  0.0728  0.0726 -0.1887
 1982PEP     CB75561  16.203  12.674   8.884  0.2696 -0.4324  0.0068
 1982PEP     CB75562  16.604  12.582   8.598 -0.3693  0.1696 -0.1281
 1982PEP     CB75563  17.008  12.335   8.557 -0.1103 -0.2870  0.2632
 1982PEP     CB75564  17.391  12.192   8.452  0.6626  0.0781  0.1473
 1982PEP     CB75565  17.484  11.719   8.429  0.0622  0.0727  0.0153
 1982PEP     CB75566  17.512  11.367   8.650 -0.4083  0.0480 -0.1110
 1982PEP     CB75567  17.281  11.035   8.596 -0.0406  0.1399 -0.3988
 1982PEP     CB75568  17.059  10.652   8.353 -0.0575  0.0086  0.0005
 1982PEP     CB75569  16.738  10.325   8.138 -0.0768 -0.1801 -0.0530
 1982PEP     CB75570  16.451  10.320   7.792  0.2227 -0.0148  0.0850
 1982PEP     CB75571  16.275  10.342   7.390 -0.0508 -0.1293  0.1957
 1982PEP     CB75572  16.039  10.700   7.269 -0.5314  0.3322  0.1485
 1982PEP     CB75573  15.815  10.972   7.448  0.2610  0.2932  0.3697
 1982PEP     CB75574  15.892  11.411   7.493  0.3740  0.0302  0.4305
 1982PEP     CB75575  15.901  11.744   7.247  0.5600 -0.7709 -0.0655
 1982PEP     CB75576  15.783  12.144   7.093 -0.1434 -0.0709 -0.3903
 1982PEP     CB75577  15.517  12.522   7.327  0.0405 -0.1478  0.0345
 1982PEP     CB75578  15.672  12.784   7.631  0.2872  0.0744  0.1901
 1982PEP     CB75579  15.816  12.680   8.048 -0.0509 -0.0142 -0.4255
 1982PEP     CB75580  15.716  12.743   8.542 -0.0896 -0.0798  0.1409
 1982PEP     CB75581  15.330  12.914   8.743 -0.1079  0.0336  0.4803
 1982PEP     CB75582  14.833  12.983   8.881 -0.5022 -0.0942 -0.2140
 1982PEP     CB75583  14.471  12.814   8.726  0.3417 -0.1043 -0.4346
 1982PEP     CB75584  14.178  12.758   8.335  0.4145 -0.2985  0.2718
 1982PEP     CB75585  14.095  12.391   8.079  0.0018  0.2497 -0.0385
 1982PEP     CB75586  14.123  12.137   7.816  0.1526 -0.2035  0.1237
 1982PEP     CB75587  14.174  11.971   7.395 -0.0875 -0.2709 -0.4133
 1982PEP     CB75588  14.189  11.741   7.017 -0.1046  0.7231  0.1914
 1982PEP     CB75589  14.377  11.777   6.649 -0.2905  0.2125 -0.0145
 1982PEP     CB75590  14.818  11.994   6.349  0.2836 -0.3134 -0.0971
 1982PEP     CB75591  15.189  12.211   6.308  0.1695  0.1406 -0.2921
 1982PEP     CB75592  15.542  12.539   6.239  0.0196 -0.4425 -0.1116
 1982PEP     CB75593  15.852  12.698   5.907  0.1517 -0.0373  0.1289
 1982PEP     CB75594  16.228  12.519   5.732  0.1659  0.3240  0.0073
 1982PEP     CB75595  16.318  12.460   5.289 -0.3024 -0.0374 -0.0006
 1982PEP     CB75596  16.427  12.366   4.905  0.3374  0.0523  0.3146
 1982PEP     CB75597  16.396  12.428   4.476 -0.0566  0.1386 -0.2367
 1982PEP     CB75598  16.610  12.494   4.152 -0.1556 -0.0708 -0.0822
 1982PEP     CB75599  16.869  12.250   3.863  0.1135  0.1302  0.0779
 1982PEP     CB75600  17.000  11.799   3.868  0.0377 -0.2795  0.0121
 1983PEP     CB75601  18.998  13.617  15.395  0.0097  0.0376 -0.1741
 1983PEP     CB75602  19.168  13.225  15.369 -0.2578  0.1366  0.0370
 1983PEP     CB75603  19.270  12.770  15.322  0.2835 -0.2488  0.3270
 1983PEP     CB75604  19.400  12.339  15.230 -0.1498  0.1285  0.0431
 1983PEP     CB75605  19.439  11.904  15.131 -0.1147 -0.1595  0.1970
 1983PEP     CB75606  19.202  11.523  15.193  0.2392 -0.4339  0.0509
 1983PEP     CB75607  19.272  11.180  15.420 -0.0272 -0.0195 -0.4110
 1983PEP     CB75608  19.231  11.009  15.802  0.3358  0.2057 -0.1673
 1983PEP     CB75609  18.990  11.017  16.166  0.1781  0.0336  0.2608
 1983PEP     CB75610  18.637  10.936  16.502 -0.5710  0.2686  0.1260
 1983PEP     CB75611  18.205  10.846  16.707 -0.2419 -0.2179  0.3282
 1983PEP     CB75612  17.971  10.417  16.810 -0.2810  0.5198 -0.0334
 1983PEP     CB75613  17.637  10.058  16.996  0.1546  0.1462  0.2519
 1983PEP     CB75614  17.176   9.937  17.253 -0.1508 -0.1090  0.0916
 1983PEP     CB75615  16.819  10.166  17.425  0.3123 -0.2096  0.1591
 1983PEP     CB75616  16.787  10.381  17.843  0.1211  0.2392  0.0102
 1983PEP     CB75617  17.046  10.660  18.155 -0.0564  0.3266  0.3052
 1983PEP     CB75618  17.276  10.940  18.414  0.1981 -0.1556 -0.1002
 1983PEP     CB75619  17.545  11.171  18.727  0.0986  0.0075 -0.4599
 1983PEP     CB75620  17.454  11.311  19.095 -0.2005 -0.2520  0.1918
 1983PEP     CB75621  17.047  11.553  19.240 -0.6060 -0.3892 -0.5140
 1983PEP     CB75622  16.603  11.552  19.014  0.2442  0.0432 -0.2182
 1983PEP     CB75623  16.526  11.495  18.631  0.2530 -0.1311 -0.0007
 1983PEP     CB75624  16.636  11.559  18.269 -0.0230  0.5966 -0.4699
 1983PEP     CB75625  16.586  11.921  18.038 -0.3643  0.4509 -0.1047
 1983PEP     CB75626  16.541  12.336  17.926 -0.0782  0.2907  0.2103
 1983PEP     CB75627  16.410  12.678  18.118 -0.1892  0.0330  0.0527
 1983PEP     CB75628  16.158  13.022  18.214 -0.0134 -0.4012  0.0415
 1983PEP     CB75629  15.921  13.319  18.484  0.2049  0.4339 -0.0055
 1983PEP     CB75630  15.544  13.590  18.567 -0.4361 -0.0789  0.0780
 1983PEP     CB75631  15.146  13.430  18.701 -0.4983  0.0635 -0.0316
 1983PEP     CB75632  14.671  13.508  18.675  0.2081  0.0994 -0.0174
 1983PEP     CB75633  14.233  13.596  18.554  0.0322 -0.1989  0.1198
 1983PEP     CB75634  14.001  13.997  18.507  0.1630 -0.2004  0.0055
 1983PEP     CB75635  14.224  14.391  18.589  0.3835  0.1548 -0.0842
 1983PEP     CB75636  14.683  14.421  18.771  0.1859  0.1165  0.2030
 1983PEP     CB75637  15.015  14.664  18.837 -0.0172  0.1355  0.1317
 1983PEP     CB75638  15.330  14.619  19.065  0.0913  0.0104  0.1192
 1983PEP     CB75639  15.542  14.819  19.331 -0.2676 -0.0593 -0.0681
 1983PEP     CB75640  15.354  15.209  19.528  0.3346 -0.0733 -0.0415
 1984PEP     CB75641  10.800   2.829   4.153 -0.2064  0.1052 -0.1119
 1984PEP     CB75642  10.422   2.803   4.077  0.3151 -0.1779 -0.2036
 1984PEP     CB75643  10.103   2.761   3.707 -0.1252  0.4756  0.1160
 1984PEP     CB75644   9.827   3.040   3.482 -0.0141  0.1248 -0.0103
 1984PEP     CB75645   9.439   3.218   3.452  0.2358 -0.0026  0.4407
 1984PEP     CB75646   9.068   3.448   3.651  0.1048 -0.3765  0.2177
 1984PEP     CB75647   8.676   3.691   3.751 -0.0676  0.1123 -0.1564
 1984PEP     CB75648   8.282   3.707   3.881  0.2699  0.1592 -0.0006
 1984PEP     CB75649   7.847   3.681   3.862  0.2942 -0.0049 -0.4265
 1984PEP     CB75650   7.312   3.775   3.953  0.0310  0.1495  0.4021
 1984PEP     CB75651   7.113   4.197   3.844 -0.1117 -0.0035 -0.1136
 1984PEP     CB75652   7.360   4.618   3.957 -0.0964 -0.0542 -0.3725
 1984PEP     CB75653   7.796   4.678   4.127 -0.1401 -0.1413 -0.0462
 1984PEP     CB75654   8.228   4.603   4.310  0.5196 -0.0361 -0.1009
 1984PEP     CB75655   8.654   4.497   4.243  0.0666  0.1542 -0.0489
 1984PEP     CB75656   9.077   4.597   4.354 -0.0864 -0.0203 -0.2264
 1984PEP     CB75657   9.429   4.469   4.289  0.0423  0.2341  0.0609
 1984PEP     CB75658   9.636   4.239   3.925  0.4303 -0.1729 -0.1714
 1984PEP     CB75659   9.928   3.930   3.690 -0.0116  0.3235  0.1432
 1984PEP     CB75660  10.334   3.962   3.502 -0.1934  0.0242  0.4236
 1984PEP     CB75661  10.791   4.008   3.640  0.1437 -0.1520  0.0218
 1984PEP     CB75662  11.010   4.045   3.982  0.1702 -0.0561 -0.4400
 1984PEP     CB75663  11.477   4.176   4.081  0.2330  0.2816 -0.1473
 1984PEP     CB75664  11.716   4.435   3.921  0.4040 -0.3147  0.0830
 1984PEP     CB75665  12.051   4.699   4.032  0.1148 -0.1621  0.2258
 1984PEP     CB75666  12.384   4.879   3.960  0.3837 -0.3987 -0.1612
 1984PEP     CB75667  12.583   5.219   4.004 -0.3918  0.1786  0.3542
 1984PEP     CB75668  12.839   5.538   4.107 -0.2331  0.2013 -0.0747
 1984PEP     CB75669  12.781   5.969   4.227  0.2920 -0.3415  0.0836
 1984PEP     CB75670  12.314   6.147   4.228  0.2656 -0.3310  0.0579
 1984PEP     CB75671  11.930   5.984   3.992 -0.2349  0.2652 -0.0826
 1984PEP     CB75672  11.727   5.688   3.822 -0.1430  0.1754  0.0600
 1984PEP     CB75673  11.426   5.617   3.576  0.2102 -0.3719  0.1410
 1984PEP     CB75674  11.204   5.977   3.352 -0.0289  0.0505 -0.4423
 1984PEP     CB75675  11.003   6.374   3.148  0.1298 -0.0059 -0.3546
 1984PEP     CB75676  10.841   6.694   3.151 -0.2829 -0.2900 -0.4180
 1984PEP     CB75677  10.597   7.152   3.025  0.4050 -0.0232  0.3383
 1984PEP     CB75678  10.226   7.360   3.134  0.1125 -0.0340 -0.1933
 1984PEP     CB75679   9.998   7.492   3.497  0.1048  0.3281  0.0946
 1984PEP     CB75680   9.769   7.677   3.872  0.0088 -0.2585 -0.1032
 1985PEP     CB75681  13.993   7.860  15.834  0.1799  0.0637 -0.3441
 1985PEP     CB75682  13.783   7.655  16.118 -0.1092 -0.1267  0.0008
 1985PEP     CB75683  13.602   7.714  16.455  0.0919 -0.1147 -0.0097
 1985PEP     CB75684  13.254   7.886  16.650 -0.0074  0.0914 -0.3288
 1985PEP     CB75685  12.978   8.054  16.922  0.0281 -0.1488  0.1380
 1985PEP     CB75686  12.659   8.189  17.266 -0.0367  0.0072 -0.1897
 1985PEP     CB75687  12.512   8.535  17.599  0.1788  0.3754  0.1363
 1985PEP     CB75688  12.290   8.899  17.458  0.4455 -0.2053 -0.0226
 1985PEP     CB75689  12.209   9.076  17.083 -0.0302 -0.1623  0.0777
 1985PEP     CB75690  11.893   9.216  16.706  0.1013 -0.1391  0.1764
 1985PEP     CB75691  11.523   9.231  16.416 -0.0777  0.2510  0.3151
 1985PEP     CB75692  11.134   9.284  16.238  0.1645  0.3082 -0.3232
 1985PEP     CB75693  10.759   8.930  16.391  0.4403 -0.2539 -0.3317
 1985PEP     CB75694  10.858   8.665  16.766  0.0896  0.0573 -0.0894
 1985PEP     CB75695  11.227   8.377  16.979  0.1294 -0.0619  0.0328
 1985PEP     CB75696  11.675   8.183  17.000 -0.3060  0.2232  0.1860
 1985PEP     CB75697  12.029   8.165  16.689 -0.0890  0.3726  0.1895
 1985PEP     CB75698  12.441   8.092  16.787  0.1436  0.3246  0.0140
 1985PEP     CB75699  12.578   7.669  16.906  0.1248 -0.1844  0.0898
 1985PEP     CB75700  12.273   7.344  17.170 -0.0198 -0.1747 -0.2971
 1985PEP     CB75701  11.879   7.233  17.403 -0.2774  0.0223  0.3087
 1985PEP     CB75702  11.545   7.260  17.555  0.2309  0.1715  0.3009
 1985PEP     CB75703  11.099   7.142  17.698  0.2513  0.1255 -0.2231
 1985PEP     CB75704  10.753   7.134  17.368 -0.2068 -0.4687  0.1241
 1985PEP     CB75705  10.520   7.266  17.040  0.1183  0.3590 -0.2586
 1985PEP     CB75706  10.240   7.365  16.723  0.1480 -0.1626  0.0611
 1985PEP     CB75707   9.916   7.594  16.566  0.2547  0.0143 -0.0148
 1985PEP     CB75708   9.639   7.607  16.140 -0.2599 -0.3050  0.0690
 1985PEP     CB75709   9.423   7.682  15.848 -0.3625  0.2763  0.1081
 1985PEP     CB75710   9.260   7.560  15.494 -0.0493 -0.0127 -0.0266
 1985PEP     CB75711   9.134   7.647  15.018  0.3772  0.3591  0.0122
 1985PEP     CB75712   9.095   7.860  14.698  0.1276  0.2247 -0.2463
 1985PEP     CB75713   8.950   8.240  14.394  0.4209  0.3338 -0.0947
 1985PEP     CB75714   8.565   8.435  14.273  0.5462  0.0652 -0.1661
 1985PEP     CB75715   8.154   8.586  14.369 -0.3981 -0.0563 -0.0926
 1985PEP     CB75716   7.836   8.823  14.568  0.4771 -0.0478 -0.0272
 1985PEP     CB75717   7.419   9.005  14.687 -0.5280  0.0651 -0.2073
 1985PEP     CB75718   7.029   9.056  14.798  0.2108 -0.0780  0.3474
 1985PEP     CB75719   6.707   9.357  14.772 -0.2578 -0.3886  0.3473
 1985PEP     CB75720   6.428   9.677  14.697  0.1761 -0.0257 -0.0241
 1986PEP     CB75721  18.083  15.231  15.191  0.2055 -0.2796 -0.1571
 1986PEP     CB75722  18.383  15.153  14.909  0.0772  0.0147 -0.1730
 1986PEP     CB75723  18.523  14.691  14.960 -0.2467  0.1440 -0.1609
 1986PEP     CB75724  18.222  14.466  15.205  0.1883  0.0669  0.2167
 1986PEP     CB75725  17.898  14.656  15.445 -0.0274  0.0631 -0.0587
 1986PEP     CB75726  17.719  14.913  15.743 -0.2630 -0.0387  0.1751
 1986PEP     CB75727  17.665  14.955  16.205  0.0142 -0.1542 -0.1095
 1986PEP     CB75728  17.477  14.796  16.544 -0.3182 -0.2717 -0.0205
 1986PEP     CB75729  17.257  14.433  16.594  0.1386 -0.6247  0.0741
 1986PEP     CB75730  17.303  14.080  16.265 -0.0488  0.1715 -0.1316
 1986PEP     CB75731  17.748  13.976  16.100  0.1338 -0.2275 -0.1197
 1986PEP     CB75732  18.038  14.163  16.265  0.2119  0.0520 -0.3355
 1986PEP     CB75733  18.181  14.168  16.692  0.2830  0.1446  0.2220
 1986PEP     CB75734  18.030  14.347  17.059  0.0840 -0.1432 -0.0237
 1986PEP     CB75735  17.670  14.341  17.310 -0.3921  0.0500 -0.6581
 1986PEP     CB75736  17.319  14.311  17.662  0.0168 -0.4556 -0.3620
 1986PEP     CB75737  17.031  14.138  17.952 -0.0010 -0.5459 -0.0158
 1986PEP     CB75738  17.054  14.151  18.361  0.2736  0.0578  0.0078
 1986PEP     CB75739  17.101  14.579  18.545  0.1418 -0.0094 -0.3102
 1986PEP     CB75740  16.996  14.995  18.416 -0.0216 -0.0103  0.5917
 1986PEP     CB75741  17.182  15.398  18.334 -0.2811  0.1941 -0.1225
 1986PEP     CB75742  17.239  15.666  18.059  0.2820 -0.4747  0.2443
 1986PEP     CB75743  17.272  15.868  17.629 -0.2550 -0.0016 -0.0178
 1986PEP     CB75744  17.204  16.277  17.479  0.1131  0.2441  0.1690
 1986PEP     CB75745  16.895  16.535  17.747 -0.0419  0.1294 -0.1462
 1986PEP     CB75746  16.980  16.722  18.173  0.1341  0.0353 -0.1347
 1986PEP     CB75747  17.165  16.926  18.625 -0.1983 -0.1592  0.0555
 1986PEP     CB75748  17.324  17.373  18.793 -0.0928  0.0514 -0.1694
 1986PEP     CB75749  17.255  17.689  19.106 -0.0757  0.2992  0.1052
 1986PEP     CB75750  17.241  17.644  19.557 -0.1776 -0.1274  0.2101
 1986PEP     CB75751  17.417  17.341  19.737  0.0655 -0.0620  0.2180
 1986PEP     CB75752  17.865  17.113  19.716  0.7257 -0.1782  0.2514
 1986PEP     CB75753  18.180  16.942  19.495 -0.1866  0.4408 -0.0676
 1986PEP     CB75754  18.419  16.605  19.372  0.2604  0.1229  0.0661
 1986PEP     CB75755  18.787  16.281  19.306  0.0120 -0.3324  0.0467
 1986PEP     CB75756  19.148  16.186  19.156 -0.0960  0.3299 -0.0603
 1986PEP     CB75757  19.635  16.240  19.165 -0.1362 -0.2005 -0.2801
 1986PEP     CB75758  19.928  16.245  19.479  0.2904 -0.1615  0.1143
 1986PEP     CB75759  20.096  16.083  19.853 -0.3892 -0.2991  0.1238
 1986PEP     CB75760  20.417  16.090  20.181  0.0083 -0.4426  0.2075
 1987PEP     CB75761   4.175   3.258  17.239  0.0263 -0.3023 -0.4267
 1987PEP     CB75762   3.698   3.458  17.403 -0.2406  0.2494  0.3315
 1987PEP     CB75763   3.331   3.730  17.389 -0.2009 -0.2212 -0.1840
 1987PEP     CB75764   3.391   4.082  17.179  0.1737 -0.1994  0.0407
 1987PEP     CB75765   3.650   4.395  17.467  0.0829 -0.3646 -0.2306
 1987PEP     CB75766   3.767   4.311  17.910  0.1557  0.3612  0.0527
 1987PEP     CB75767   3.819   3.998  18.222 -0.0271 -0.0193  0.0359
 1987PEP     CB75768   3.902   3.707  18.573 -0.0074 -0.2562  0.0846
 1987PEP     CB75769   3.667   3.536  18.865  0.1017 -0.0484 -0.0885
 1987PEP     CB75770   3.217   3.443  18.833  0.6287  0.3105  0.2262
 1987PEP     CB75771   2.864   3.377  19.124 -0.2913  0.0035 -0.0295
 1987PEP     CB75772   2.681   2.988  19.325  0.2496 -0.1351  0.1602
 1987PEP     CB75773   2.434   2.682  19.555  0.3063 -0.2189 -0.0168
 1987PEP     CB75774   2.171   2.378  19.642  0.1983 -0.0737 -0.1946
 1987PEP     CB75775   2.208   2.013  19.932 -0.1735 -0.2650  0.3646
 1987PEP     CB75776   2.000   1.604  20.068  0.0559 -0.1648 -0.2577
 1987PEP     CB75777   1.744   1.315  20.220 -0.1117 -0.3064 -0.1165
 1987PEP     CB75778   1.424   1.329  20.552 -0.0093 -0.1998 -0.0131
 1987PEP     CB75779   1.085   1.579  20.714 -0.2506  0.1115  0.3546
 1987PEP     CB75780   0.986   1.587  21.172  0.3014  0.0726 -0.2552
 1987PEP     CB75781   0.675   1.460  21.538 -0.0024 -0.0536 -0.1710
 1987PEP     CB75782   0.463   1.126  21.833  0.1683 -0.3305 -0.0885
 1987PEP     CB75783   0.373   0.676  22.054  0.4275  0.1565 -0.0799
 1987PEP     CB75784   0.432   0.508  22.533  0.1158  0.1861  0.1612
 1987PEP     CB75785   0.672   0.615  22.890 -0.0084  0.3148 -0.3855
 1987PEP     CB75786   1.012   0.931  22.811  0.2714 -0.0892  0.1226
 1987PEP     CB75787   1.371   0.887  22.466 -0.2144 -0.1975 -0.2842
 1987PEP     CB75788   1.330   0.585  22.144 -0.1573  0.1881  0.0993
 1987PEP     CB75789   1.079   0.256  22.084  0.0835 -0.1092 -0.1589
 1987PEP     CB75790   0.666   0.133  22.160 -0.0981 -0.4557  0.2091
 1987PEP     CB75791   0.230   0.174  22.049 -0.2088 -0.2553  0.1264
 1987PEP     CB75792  -0.118   0.490  22.169  0.2414  0.0759 -0.4873
 1987PEP     CB75793  -0.437   0.680  22.253 -0.2061 -0.3864 -0.1674
 1987PEP     CB75794  -0.635   0.871  22.662  0.1148 -0.0371 -0.0621
 1987PEP     CB75795  -0.487   1.069  23.092  0.4072  0.3253 -0.0814
 1987PEP     CB75796  -0.282   1.271  23.498 -0.5157 -0.0715 -0.0268
 1987PEP     CB75797  -0.032   1.602  23.609  0.1731 -0.2660 -0.0490
 1987PEP     CB75798   0.378   1.721  23.697 -0.1141  0.0707 -0.5346
 1987PEP     CB75799   0.770   1.703  23.332  0.1833  0.0249 -0.3022
 1987PEP     CB75800   0.840   1.761  22.888  0.0068 -0.0510  0.1754
 1988PEP     CB75801  12.717  11.448   7.979 -0.0882 -0.2166  0.0163
 1988PEP     CB75802  12.583  11.266   7.575  0.1386  0.0064  0.1155
 1988PEP     CB75803  12.321  10.921   7.300  0.1454  0.0989  0.2150
 1988PEP     CB75804  12.174  10.774   6.903  0.4156  0.2677 -0.0708
 1988PEP     CB75805  12.321  10.518   6.531  0.0692 -0.0772 -0.1864
 1988PEP     CB75806  12.257  10.249   6.122 -0.4311  0.0003 -0.2634
 1988PEP     CB75807  12.591   9.865   6.079 -0.0617  0.0407 -0.1223
 1988PEP     CB75808  12.970   9.897   6.358 -0.1993  0.0885 -0.0793
 1988PEP     CB75809  12.892   9.887   6.831  0.4385 -0.0131 -0.2602
 1988PEP     CB75810  12.542   9.730   7.068 -0.4237  0.2892  0.0039
 1988PEP     CB75811  12.181   9.631   6.786  0.1832  0.2058  0.2341
 1988PEP     CB75812  11.980   9.963   6.630  0.1467 -0.3511 -0.1005
 1988PEP     CB75813  11.817  10.372   6.877 -0.0116  0.0742 -0.2010
 1988PEP     CB75814  11.820  10.490   7.248  0.0976 -0.1670 -0.1925
 1988PEP     CB75815  12.153  10.493   7.396 -0.3974 -0.3358  0.2023
 1988PEP     CB75816  12.499  10.380   7.393 -0.3630 -0.0187 -0.2155
 1988PEP     CB75817  12.889  10.097   7.343  0.0003 -0.0844 -0.1580
 1988PEP     CB75818  13.052   9.655   7.528 -0.0973 -0.3238  0.0907
 1988PEP     CB75819  12.837   9.536   7.846 -0.0855 -0.2757  0.0426
 1988PEP     CB75820  12.860   9.852   8.096 -0.1432  0.2036 -0.1886
 1988PEP     CB75821  13.194   9.996   8.121  0.1361 -0.3728  0.0051
 1988PEP     CB75822  13.471  10.242   8.180 -0.0134 -0.3925  0.0246
 1988PEP     CB75823  13.891  10.474   8.037  0.0132  0.1705  0.0831
 1988PEP     CB75824  14.332  10.392   7.790  0.1495 -0.1817 -0.1102
 1988PEP     CB75825  14.466  10.053   7.599 -0.3463 -0.1377  0.0641
 1988PEP     CB75826  14.313   9.647   7.462 -0.0145  0.3202  0.1913
 1988PEP     CB75827  14.164   9.261   7.239  0.1887 -0.4033 -0.0225
 1988PEP     CB75828  14.271   8.813   7.201  0.3025 -0.1229  0.3453
 1988PEP     CB75829  14.420   8.462   6.949  0.3687 -0.0864 -0.1535
 1988PEP     CB75830  14.616   8.211   6.712  0.1464  0.0046 -0.1138
 1988PEP     CB75831  14.842   8.094   6.312  0.0975  0.3236  0.1462
 1988PEP     CB75832  14.997   8.042   5.954  0.0160  0.0517  0.0203
 1988PEP     CB75833  14.782   8.106   5.559  0.2308 -0.0124 -0.0243
 1988PEP     CB75834  14.338   8.180   5.367 -0.0710  0.2460  0.0726
 1988PEP     CB75835  13.884   7.939   5.367 -0.2662  0.3128  0.0999
 1988PEP     CB75836  13.766   7.695   5.746 -0.0181 -0.0038  0.4032
 1988PEP     CB75837  14.085   7.660   5.962 -0.1327 -0.0529  0.0361
 1988PEP     CB75838  14.508   7.686   5.770 -0.0288 -0.4887  0.3037
 1988PEP     CB75839  14.491   7.660   5.373  0.2512  0.2552 -0.0331
 1988PEP     CB75840  14.105   7.868   4.943  0.1143 -0.1057 -0.1678
 1989PEP     CB75841  18.719  21.657  16.070 -0.3613  0.0054  0.2870
 1989PEP     CB75842  18.280  21.796  16.316  0.0567 -0.3453 -0.1361
 1989PEP     CB75843  18.067  22.141  16.596  0.0514  0.0517 -0.1936
 1989PEP     CB75844  18.337  22.515  16.747  0.0283  0.3169 -0.1471
 1989PEP     CB75845  18.650  22.759  16.487  0.3097 -0.1540  0.1547
 1989PEP     CB75846  18.793  22.630  16.046 -0.2441  0.0459 -0.0242
 1989PEP     CB75847  18.823  22.326  15.769  0.0960 -0.1303  0.1472
 1989PEP     CB75848  19.079  22.079  15.471  0.3386  0.0196 -0.0371
 1989PEP     CB75849  19.035  21.675  15.271  0.0870 -0.2545  0.4807
 1989PEP     CB75850  18.937  21.223  15.203  0.0068  0.3071  0.3015
 1989PEP     CB75851  18.775  20.800  15.391 -0.2817 -0.4054 -0.0037
 1989PEP     CB75852  18.754  20.503  15.765 -0.1304  0.3641  0.3126
 1989PEP     CB75853  18.795  20.330  16.201  0.0269 -0.0747  0.4061
 1989PEP     CB75854  18.500  19.939  16.234 -0.2411 -0.3360  0.3626
 1989PEP     CB75855  18.561  19.708  15.818  0.0157 -0.4532  0.2029
 1989PEP     CB75856  18.682  19.533  15.420  0.4640  0.1762 -0.5677
 1989PEP     CB75857  19.014  19.635  15.223 -0.2774 -0.2880  0.1583
 1989PEP     CB75858  19.373  20.007  15.211  0.1065  0.2230 -0.4500
 1989PEP     CB75859  19.671  20.363  15.206 -0.5123  0.6114 -0.0758
 1989PEP     CB75860  19.838  20.555  14.921  0.1669 -0.3528 -0.1453
 1989PEP     CB75861  19.897  20.753  14.570 -0.0400  0.1043  0.2146
 1989PEP     CB75862  20.266  21.032  14.365  0.3749 -0.0245  0.0972
 1989PEP     CB75863  20.240  21.321  13.996  0.0758  0.4664  0.0636
 1989PEP     CB75864  20.067  21.351  13.573  0.0895  0.1079  0.0889
 1989PEP     CB75865  20.137  21.275  13.198 -0.4643  0.1469  0.0933
 1989PEP     CB75866  19.860  21.242  12.744 -0.1458  0.1551 -0.1616
 1989PEP     CB75867  19.565  21.052  12.517  0.2531  0.0630 -0.0357
 1989PEP     CB75868  19.135  20.977  12.343 -0.1312 -0.0337 -0.3996
 1989PEP     CB75869  18.966  20.896  11.928  0.3016 -0.2730  0.0783
 1989PEP     CB75870  18.958  20.604  11.588 -0.1937 -0.1709  0.1221
 1989PEP     CB75871  18.861  20.191  11.397 -0.1119  0.2594 -0.2555
 1989PEP     CB75872  18.834  19.730  11.272  0.1942 -0.1107  0.0819
 1989PEP     CB75873  18.881  19.388  11.017 -0.0226 -0.2583  0.1315
 1989PEP     CB75874  18.836  19.322  10.549 -0.2909 -0.0123  0.3063
 1989PEP     CB75875  18.718  19.607  10.211  0.0057 -0.0716 -0.1538
 1989PEP     CB75876  18.822  19.902   9.814 -0.5065 -0.5351 -0.1297
 1989PEP     CB75877  18.904  20.221   9.595 -0.0597 -0.2162  0.4381
 1989PEP     CB75878  19.212  20.424   9.336 -0.1606 -0.1933  0.1996
 1989PEP     CB75879  19.322  20.442   8.943  0.1710 -0.1515  0.2499
 1989PEP     CB75880  19.390  20.184   8.594  0.0612  0.0001 -0.1767
 1990PEP     CB75881  18.931  16.592  11.053 -0.1255  0.0362 -0.0624
 1990PEP     CB75882  19.095  16.646  11.526  0.0936 -0.1030  0.3226
 1990PEP     CB75883  19.287  16.771  11.788  0.2372  0.3405 -0.4293
 1990PEP     CB75884  19.507  16.830  12.244  0.1213  0.1680  0.0615
 1990PEP     CB75885  19.281  16.906  12.632 -0.4564 -0.2359  0.1521
 1990PEP     CB75886  18.969  16.641  12.781  0.1665  0.1367  0.0105
 1990PEP     CB75887  18.650  16.290  12.573 -0.0449 -0.2089  0.3716
 1990PEP     CB75888  18.177  16.118  12.542 -0.1235 -0.3623  0.0894
 1990PEP     CB75889  17.763  16.298  12.629 -0.3683  0.1479  0.0807
 1990PEP     CB75890  17.546  16.675  12.609 -0.0775 -0.2705 -0.0008
 1990PEP     CB75891  17.424  16.981  12.366 -0.0709 -0.1401 -0.1140
 1990PEP     CB75892  17.118  17.082  12.195  0.1705  0.3190 -0.0112
 1990PEP     CB75893  16.878  17.473  12.109 -0.1953 -0.0990 -0.0379
 1990PEP     CB75894  16.439  17.594  12.119  0.0474 -0.1304 -0.1387
 1990PEP     CB75895  15.909  17.566  11.984 -0.0479  0.4346  0.2412
 1990PEP     CB75896  15.497  17.596  11.945 -0.3108 -0.1033 -0.0492
 1990PEP     CB75897  15.235  17.937  11.939  0.1868  0.1086  0.3575
 1990PEP     CB75898  15.396  18.249  11.753  0.3453  0.4446  0.3643
 1990PEP     CB75899  15.392  18.183  11.326 -0.0845 -0.0655  0.0038
 1990PEP     CB75900  15.098  18.124  11.051  0.1653 -0.0506 -0.0333
 1990PEP     CB75901  14.840  17.755  11.028  0.6430  0.4637 -0.1956
 1990PEP     CB75902  14.733  17.636  11.365  0.3031  0.2172  0.0002
 1990PEP     CB75903  14.790  17.904  11.661 -0.0901  0.1770  0.0204
 1990PEP     CB75904  14.859  18.356  11.595  0.0409  0.1769 -0.4135
 1990PEP     CB75905  14.630  18.602  11.378 -0.1587  0.0142  0.2869
 1990PEP     CB75906  14.484  18.909  11.096 -0.3018  0.1597  0.2386
 1990PEP     CB75907  14.263  19.116  10.839 -0.0465  0.4361 -0.0814
 1990PEP     CB75908  13.962  19.295  10.643  0.3643  0.0754  0.4967
 1990PEP     CB75909  13.630  19.315  10.329 -0.6376 -0.2025  0.0363
 1990PEP     CB75910  13.716  19.556   9.960  0.0013 -0.2649 -0.0010
 1990PEP     CB75911  14.102  19.551   9.694  0.2170 -0.0469  0.0833
 1990PEP     CB75912  14.517  19.580   9.812 -0.1782 -0.2261 -0.2624
 1990PEP     CB75913  14.779  19.558  10.192  0.1425 -0.0608  0.1606
 1990PEP     CB75914  15.145  19.438  10.467 -0.0068 -0.2445 -0.3946
 1990PEP     CB75915  15.460  19.081  10.465 -0.1683  0.0198  0.0086
 1990PEP     CB75916  15.896  18.879  10.339 -0.2901  0.0140  0.0121
 1990PEP     CB75917  16.202  18.603  10.399 -0.2916 -0.2375  0.0721
 1990PEP     CB75918  16.497  18.426  10.598 -0.3685  0.1747 -0.2356
 1990PEP     CB75919  16.785  18.162  10.538 -0.2927  0.1317 -0.1999
 1990PEP     CB75920  17.304  18.108  10.539  0.0572  0.1669 -0.2272
 1991PEP     CB75921  16.115  15.683  17.609  0.5425 -0.1621  0.3353
 1991PEP     CB75922  16.220  15.630  17.280  0.0092 -0.0983  0.0694
 1991PEP     CB75923  16.059  15.627  16.891  0.2492 -0.0635  0.0439
 1991PEP     CB75924  15.686  15.545  16.798  0.0568 -0.0454  0.2705
 1991PEP     CB75925  15.256  15.446  16.982  0.0008 -0.1105  0.1674
 1991PEP     CB75926  15.024  15.305  17.365 -0.4359 -0.0811  0.1302
 1991PEP     CB75927  14.890  15.429  17.849 -0.2333 -0.1525  0.2497
 1991PEP     CB75928  15.074  15.781  18.031 -0.1117 -0.1446  0.3290
 1991PEP     CB75929  14.965  16.194  18.114  0.1060  0.0744  0.1145
 1991PEP     CB75930  14.636  16.366  18.366 -0.3072  0.6272 -0.1941
 1991PEP     CB75931  14.646  16.344  18.882 -0.2262 -0.2071  0.0555
 1991PEP     CB75932  14.810  16.115  19.296 -0.3290 -0.1060  0.0858
 1991PEP     CB75933  14.657  15.851  19.620 -0.1022  0.2645 -0.1721
 1991PEP     CB75934  14.524  15.612  19.933 -0.0086  0.0303 -0.0260
 1991PEP     CB75935  14.134  15.821  20.209 -0.0469  0.3120  0.2887
 1991PEP     CB75936  13.993  16.235  20.250  0.0653  0.1024  0.1962
 1991PEP     CB75937  13.906  16.633  20.087  0.4429  0.3903 -0.5891
 1991PEP     CB75938  14.034  16.939  19.879  0.1772  0.2403  0.1415
 1991PEP     CB75939  14.095  17.303  19.548 -0.3575 -0.1981  0.1914
 1991PEP     CB75940  14.172  17.697  19.279 -0.3578 -0.4326  0.0628
 1991PEP     CB75941  14.451  17.986  19.065 -0.6839 -0.2620  0.1183
 1991PEP     CB75942  14.579  18.251  18.687  0.3985 -0.0173 -0.3456
 1991PEP     CB75943  14.607  18.521  18.367  0.4016 -0.2811  0.2317
 1991PEP     CB75944  14.247  18.711  18.106  0.0244  0.0122  0.2078
 1991PEP     CB75945  13.972  19.053  18.051  0.3479 -0.1755  0.2306
 1991PEP     CB75946  13.652  19.375  17.890 -0.0793 -0.0560  0.2579
 1991PEP     CB75947  13.618  19.842  17.895  0.0490 -0.2535 -0.2872
 1991PEP     CB75948  13.324  20.262  18.014 -0.3346 -0.3519 -0.0259
 1991PEP     CB75949  12.919  20.314  18.251  0.1962 -0.3160 -0.1268
 1991PEP     CB75950  12.816  20.317  18.713  0.3422  0.1292 -0.1329
 1991PEP     CB75951  13.146  20.302  19.038  0.4399  0.2172 -0.0622
 1991PEP     CB75952  13.546  20.453  19.008 -0.2849  0.1442 -0.0579
 1991PEP     CB75953  13.814  20.203  18.906  0.0666 -0.1170 -0.3082
 1991PEP     CB75954  14.132  20.061  18.648  0.2683  0.0809  0.3227
 1991PEP     CB75955  14.087  19.816  18.318  0.4672 -0.2649 -0.0818
 1991PEP     CB75956  14.194  19.540  17.989 -0.4047 -0.1653 -0.2297
 1991PEP     CB75957  14.418  19.592  17.612 -0.2528  0.1068  0.0922
 1991PEP     CB75958  14.268  19.832  17.314 -0.1418  0.1233  0.0322
 1991PEP     CB75959  13.958  19.953  17.045  0.3387  0.1233 -0.0338
 1991PEP     CB75960  13.894  20.136  16.691  0.3449  0.1758  0.0716
 1992PEP     CB75961   8.931   6.766  16.510 -0.0583  0.1177 -0.4443
 1992PEP     CB75962   8.827   7.158  16.407 -0.2800 -0.2001  0.3183
 1992PEP     CB75963   8.602   7.570  16.290 -0.3734 -0.1444  0.2947
 1992PEP     CB75964   8.409   7.956  16.362 -0.0253  0.0103  0.0229
 1992PEP     CB75965   8.277   8.354  16.556  0.6665  0.4338  0.6154
 1992PEP     CB75966   8.053   8.817  16.710  0.0737  0.2244 -0.5087
 1992PEP     CB75967   7.957   9.225  16.854 -0.4355 -0.0120  0.2156
 1992PEP     CB75968   8.006   9.549  17.055  0.1436  0.0442  0.2518
 1992PEP     CB75969   8.154   9.791  17.381 -0.1396 -0.0778 -0.0481
 1992PEP     CB75970   8.334   9.899  17.750  0.0480 -0.1374 -0.1590
 1992PEP     CB75971   8.337   9.937  18.193  0.0202 -0.1788  0.2230
 1992PEP     CB75972   8.199  10.103  18.557  0.3055 -0.1622  0.2120
 1992PEP     CB75973   8.344  10.223  18.942 -0.4054  0.0733 -0.1372
 1992PEP     CB75974   8.663  10.188  19.120 -0.1226 -0.4991 -0.1410
 1992PEP     CB75975   9.010   9.885  18.993 -0.3119  0.1157  0.2544
 1992PEP     CB75976   9.245   9.584  18.773 -0.2427  0.2409 -0.0671
 1992PEP     CB75977   9.113   9.263  18.496 -0.3443 -0.1280  0.1667
 1992PEP     CB75978   8.987   9.271  18.059  0.0758 -0.0196  0.5512
 1992PEP     CB75979   9.168   9.473  17.754  0.1123 -0.2357  0.1785
 1992PEP     CB75980   9.267   9.814  17.789  0.2356 -0.1296 -0.2402
 1992PEP     CB75981   9.389  10.154  17.988  0.1374 -0.0834  0.2796
 1992PEP     CB75982   9.234  10.546  17.840  0.2429  0.0813  0.0478
 1992PEP     CB75983   8.868  10.668  17.601  0.2978  0.0747  0.1740
 1992PEP     CB75984   8.645  10.368  17.273  0.0562  0.0536  0.0996
 1992PEP     CB75985   8.504   9.983  17.158 -0.4975  0.1124  0.3607
 1992PEP     CB75986   8.497   9.663  16.877  0.1834  0.2765  0.2066
 1992PEP     CB75987   8.599   9.195  16.741 -0.1906  0.0652  0.1807
 1992PEP     CB75988   8.656   8.730  16.615  0.0855 -0.2301  0.1874
 1992PEP     CB75989   8.717   8.464  16.357  0.3274  0.1566 -0.0438
 1992PEP     CB75990   8.636   8.592  15.862  0.1545 -0.0465 -0.2583
 1992PEP     CB75991   8.643   8.272  15.513  0.4850  0.2139 -0.4002
 1992PEP     CB75992   9.002   8.019  15.339  0.2385 -0.2504 -0.0585
 1992PEP     CB75993   9.455   8.039  15.095 -0.0127 -0.5207 -0.0813
 1992PEP     CB75994   9.602   8.051  14.810  0.2993 -0.2593  0.0323
 1992PEP     CB75995   9.450   7.989  14.313  0.0991  0.1702  0.1140
 1992PEP     CB75996   9.361   7.439  14.176 -0.1542 -0.4066  0.2265
 1992PEP     CB75997   9.133   7.189  14.412 -0.2407 -0.2939  0.0973
 1992PEP     CB75998   8.928   7.084  14.846 -0.0701  0.1655  0.1604
 1992PEP     CB75999   8.889   7.012  15.272 -0.3023 -0.0848 -0.0795
 1992PEP     CB76000   8.917   7.299  15.670 -0.0446 -0.0437 -0.1914
 1993PEP     CB76001  16.172   7.685  17.245  0.2864 -0.0093  0.0553
 1993PEP     CB76002  15.973   7.320  17.067  0.2465 -0.0676 -0.1906
 1993PEP     CB76003  15.612   7.148  16.831 -0.0343 -0.3671 -0.2680
 1993PEP     CB76004  15.226   7.083  16.596 -0.4293 -0.1233 -0.3048
 1993PEP     CB76005  14.776   7.021  16.323 -0.1115 -0.3463  0.0728
 1993PEP     CB76006  14.628   6.677  16.020 -0.0264 -0.0131  0.0965
 1993PEP     CB76007  14.748   6.386  15.680  0.0283  0.2047 -0.1695
 1993PEP     CB76008  15.043   6.070  15.600 -0.0617  0.2875 -0.0541
 1993PEP     CB76009  15.443   5.887  15.462  0.4570  0.0201  0.2070
 1993PEP     CB76010  15.851   6.227  15.668  0.1840  0.3491  0.0278
 1993PEP     CB76011  16.005   6.608  15.848  0.5236  0.1258  0.2746
 1993PEP     CB76012  16.379   6.636  16.111  0.0131 -0.4331 -0.0676
 1993PEP     CB76013  16.751   6.580  16.197 -0.3163  0.0104  0.0728
 1993PEP     CB76014  17.196   6.547  16.417 -0.0404 -0.0163  0.0384
 1993PEP     CB76015  17.618   6.700  16.538 -0.2052  0.4496 -0.2141
 1993PEP     CB76016  17.895   6.845  16.892 -0.1756  0.1560 -0.0650
 1993PEP     CB76017  17.989   7.081  17.244  0.1316  0.3360  0.0174
 1993PEP     CB76018  18.081   7.176  17.760  0.0339 -0.3735  0.1796
 1993PEP     CB76019  18.444   7.433  18.077 -0.0168 -0.3888  0.1616
 1993PEP     CB76020  18.910   7.335  17.914 -0.2179 -0.2893 -0.1868
 1993PEP     CB76021  19.171   6.932  17.971 -0.2186  0.1512 -0.1462
 1993PEP     CB76022  19.265   6.508  17.940  0.0757 -0.3452  0.1463
 1993PEP     CB76023  19.101   6.241  17.596 -0.3738 -0.0725  0.1948
 1993PEP     CB76024  18.976   6.416  17.247 -0.1039  0.0956  0.0306
 1993PEP     CB76025  18.795   6.850  17.120 -0.1903 -0.3223  0.2620
 1993PEP     CB76026  18.701   6.988  16.758 -0.3089  0.2472 -0.1526
 1993PEP     CB76027  18.601   7.360  16.519  0.0574 -0.1153  0.0424
 1993PEP     CB76028  18.399   7.703  16.680 -0.2335 -0.2292  0.2540
 1993PEP     CB76029  18.043   7.826  16.927 -0.2203 -0.0315 -0.0914
 1993PEP     CB76030  17.896   8.106  17.222  0.1481  0.2059  0.0935
 1993PEP     CB76031  17.626   8.159  17.522 -0.0955  0.1157  0.2368
 1993PEP     CB76032  17.622   8.101  18.004  0.2076 -0.7880 -0.0707
 1993PEP     CB76033  17.977   8.219  18.299  0.0016 -0.0818 -0.2674
 1993PEP     CB76034  18.078   8.634  18.367  0.2726 -0.1493  0.0864
 1993PEP     CB76035  17.782   8.893  18.458 -0.0531 -0.3446  0.1055
 1993PEP     CB76036  17.361   8.856  18.641  0.1598 -0.2347  0.0470
 1993PEP     CB76037  16.951   8.776  18.572  0.2069  0.0323 -0.2626
 1993PEP     CB76038  16.775   8.499  18.912  0.3808  0.3496 -0.4433
 1993PEP     CB76039  16.508   8.433  19.299  0.1040 -0.0894 -0.0627
 1993PEP     CB76040  16.458   8.230  19.648 -0.2480  0.3529  0.1040
 1994PEP     CB76041  11.340   4.784  19.288  0.5430 -0.0643  0.2027
 1994PEP     CB76042  11.361   4.615  18.908 -0.0600 -0.2401  0.2145
 1994PEP     CB76043  11.452   4.610  18.475  0.0849  0.5036  0.0318
 1994PEP     CB76044  11.622   4.611  18.060 -0.0129 -0.2631 -0.1809
 1994PEP     CB76045  11.841   4.546  17.701  0.2532 -0.0464 -0.1314
 1994PEP     CB76046  12.352   4.451  17.605 -0.2956 -0.0470 -0.0431
 1994PEP     CB76047  12.714   4.293  17.837 -0.3159 -0.2342  0.2179
 1994PEP     CB76048  12.938   3.876  17.825  0.1215  0.0119 -0.0825
 1994PEP     CB76049  13.130   3.635  18.070 -0.2926  0.2113  0.4165
 1994PEP     CB76050  13.287   3.396  18.446  0.1079 -0.2980  0.0063
 1994PEP     CB76051  13.380   2.968  18.581 -0.0114 -0.3051  0.0986
 1994PEP     CB76052  13.196   2.555  18.649 -0.0402 -0.4046 -0.2440
 1994PEP     CB76053  12.919   2.223  18.501  0.1866  0.3305 -0.6741
 1994PEP     CB76054  13.082   1.951  18.226  0.0310  0.1360  0.0338
 1994PEP     CB76055  13.221   1.487  18.110 -0.4688 -0.1628  0.0354
 1994PEP     CB76056  13.550   1.265  18.058  0.0464  0.0166  0.1794
 1994PEP     CB76057  13.882   1.263  17.859  0.5053 -0.4785 -0.1299
 1994PEP     CB76058  14.215   1.538  17.849  0.1002 -0.0834 -0.0048
 1994PEP     CB76059  14.219   1.949  17.653  0.5338 -0.0786  0.4130
 1994PEP     CB76060  13.979   2.259  17.543  0.0311  0.1088  0.1584
 1994PEP     CB76061  13.729   2.444  17.808 -0.1801 -0.0569 -0.4391
 1994PEP     CB76062  13.575   2.559  18.219  0.1450  0.2135 -0.2129
 1994PEP     CB76063  13.765   2.658  18.619 -0.1801 -0.0135  0.0661
 1994PEP     CB76064  13.972   2.840  19.047  0.2444 -0.0811 -0.0885
 1994PEP     CB76065  14.318   2.799  19.252 -0.0855 -0.0943  0.0206
 1994PEP     CB76066  14.510   2.667  19.579  0.2121 -0.2004  0.3222
 1994PEP     CB76067  14.644   2.651  19.940 -0.2271 -0.2711  0.0458
 1994PEP     CB76068  14.486   2.863  20.281 -0.1993  0.0798  0.1772
 1994PEP     CB76069  14.277   3.143  20.341  0.1187  0.1334 -0.0479
 1994PEP     CB76070  14.082   3.513  20.234 -0.0943  0.2399  0.1021
 1994PEP     CB76071  13.973   3.927  20.189  0.1881  0.3599 -0.2374
 1994PEP     CB76072  13.999   4.217  19.973 -0.1637  0.2716  0.1542
 1994PEP     CB76073  14.094   4.560  19.647  0.1418  0.4366  0.1476
 1994PEP     CB76074  14.357   4.675  19.276  0.1533  0.4293 -0.0883
 1994PEP     CB76075  14.463   4.719  18.906  0.3824 -0.0445  0.0808
 1994PEP     CB76076  14.774   5.023  18.758  0.1643 -0.1863  0.0572
 1994PEP     CB76077  14.976   5.309  19.011 -0.0288  0.0138 -0.2023
 1994PEP     CB76078  14.974   5.444  19.339  0.0030 -0.1817 -0.2395
 1994PEP     CB76079  15.166   5.301  19.738 -0.3842  0.0840  0.3120
 1994PEP     CB76080  15.316   5.169  20.145 -0.0964 -0.1637 -0.0356
 1995PEP     CB76081   7.002  19.609  21.763 -0.2956  0.0104 -0.1171
 1995PEP     CB76082   6.857  19.456  21.355  0.0894  0.1497 -0.0447
 1995PEP     CB76083   6.646  19.421  20.914 -0.2145 -0.0886  0.1459
 1995PEP     CB76084   6.776  19.454  20.507  0.2308  0.5185 -0.0726
 1995PEP     CB76085   7.155  19.309  20.359  0.0970 -0.1886 -0.3720
 1995PEP     CB76086   7.462  19.413  20.020 -0.0406  0.4856  0.2102
 1995PEP     CB76087   7.489  19.471  19.656  0.0473 -0.2926 -0.2563
 1995PEP     CB76088   7.699  19.585  19.169 -0.2196 -0.2961 -0.0986
 1995PEP     CB76089   8.039  19.724  19.009  0.1802 -0.0419 -0.0623
 1995PEP     CB76090   8.437  19.618  19.051  0.1576  0.5821 -0.1091
 1995PEP     CB76091   8.661  19.769  19.457 -0.2882  0.2043  0.3360
 1995PEP     CB76092   8.834  20.160  19.573 -0.3547  0.0720  0.2622
 1995PEP     CB76093   8.685  20.593  19.462 -0.1299  0.1307  0.1371
 1995PEP     CB76094   8.598  20.654  19.091  0.1019  0.1136 -0.1449
 1995PEP     CB76095   8.852  20.644  18.751  0.0631 -0.0853  0.2396
 1995PEP     CB76096   9.197  20.403  18.614 -0.0562 -0.0233  0.4718
 1995PEP     CB76097   9.390  20.100  18.325 -0.0950  0.1573  0.1243
 1995PEP     CB76098   9.761  20.012  18.325 -0.0764 -0.1644 -0.4021
 1995PEP     CB76099  10.045  19.952  18.749  0.0695  0.1616  0.1501
 1995PEP     CB76100  10.445  19.897  18.886 -0.0564 -0.0343 -0.1262
 1995PEP     CB76101  10.905  19.864  18.904 -0.2501 -0.0456 -0.6288
 1995PEP     CB76102  11.284  19.914  18.718  0.0814 -0.1203  0.1243
 1995PEP     CB76103  11.428  19.680  18.481  0.7476 -0.0167  0.0853
 1995PEP     CB76104  11.383  19.313  18.528  0.0974  0.4040  0.0119
 1995PEP     CB76105  11.123  19.014  18.303 -0.0001  0.2323 -0.0373
 1995PEP     CB76106  10.794  18.746  18.049  0.1066  0.1917 -0.0454
 1995PEP     CB76107  10.420  18.889  17.835  0.0907 -0.0496 -0.0797
 1995PEP     CB76108  10.236  19.367  17.718  0.2106 -0.0557 -0.1056
 1995PEP     CB76109  10.081  19.762  17.444  0.0839 -0.2666  0.0107
 1995PEP     CB76110   9.877  20.035  17.089 -0.0760 -0.2356 -0.2292
 1995PEP     CB76111   9.553  20.160  16.696  0.1616 -0.1249 -0.1155
 1995PEP     CB76112   9.453  19.980  16.322 -0.0931  0.0993  0.2231
 1995PEP     CB76113   9.614  19.880  15.942  0.1381 -0.0877  0.1932
 1995PEP     CB76114   9.460  19.782  15.599 -0.0280  0.0750 -0.0292
 1995PEP     CB76115   9.445  19.680  15.174 -0.0083 -0.0369  0.0990
 1995PEP     CB76116   9.318  19.326  14.858  0.1639  0.0384 -0.2738
 1995PEP     CB76117   9.196  18.861  15.080  0.4334 -0.1482 -0.3112
 1995PEP     CB76118   9.350  18.819  15.529  0.2898  0.1932 -0.3942
 1995PEP     CB76119   9.498  19.108  15.656 -0.5823 -0.0305  0.3057
 1995PEP     CB76120   9.736  19.232  15.275  0.2873  0.0962  0.1466
 1996PEP     CB76121   2.599  15.671   7.316  0.2158  0.0265 -0.1794
 1996PEP     CB76122   2.320  15.611   7.689  0.1769  0.3680  0.0361
 1996PEP     CB76123   1.952  15.605   7.875 -0.2925  0.3507  0.0794
 1996PEP     CB76124   1.665  15.741   8.067 -0.1686  0.0393 -0.0845
 1996PEP     CB76125   1.498  16.101   8.103  0.1167  0.0577  0.2663
 1996PEP     CB76126   1.193  16.380   7.920  0.3798 -0.0078 -0.3158
 1996PEP     CB76127   0.875  16.705   7.981 -0.0879 -0.0418 -0.0800
 1996PEP     CB76128   0.693  17.105   8.228  0.3700 -0.0550 -0.1433
 1996PEP     CB76129   0.722  17.406   8.465  0.2385 -0.6533 -0.2011
 1996PEP     CB76130   0.867  17.836   8.436  0.2172 -0.0061 -0.3947
 1996PEP     CB76131   1.020  17.877   7.979  0.1686  0.0619  0.0900
 1996PEP     CB76132   0.953  17.474   7.681 -0.3592  0.3243  0.2193
 1996PEP     CB76133   0.706  17.099   7.715  0.0683 -0.4224  0.0395
 1996PEP     CB76134   0.344  16.938   7.925 -0.1984  0.2453 -0.2861
 1996PEP     CB76135   0.261  16.678   8.225 -0.2396  0.1411  0.2612
 1996PEP     CB76136  -0.202  16.497   8.320  0.5394  0.1633 -0.2186
 1996PEP     CB76137  -0.570  16.342   8.575 -0.1241 -0.1251 -0.2705
 1996PEP     CB76138  -0.869  16.060   8.829  0.3578 -0.2368  0.3539
 1996PEP     CB76139  -1.061  15.745   9.016  0.6559 -0.0315 -0.2195
 1996PEP     CB76140  -0.957  15.616   9.567  0.0621 -0.0666  0.0004
 1996PEP     CB76141  -0.663  15.421   9.786  0.1093 -0.3821 -0.2679
 1996PEP     CB76142  -0.342  15.438  10.084 -0.1204 -0.0664  0.0463
 1996PEP     CB76143  -0.361  15.281  10.563 -0.2228 -0.0421  0.2916
 1996PEP     CB76144  -0.250  15.139  10.981  0.1205  0.3249  0.0812
 1996PEP     CB76145  -0.041  15.108  11.410 -0.2269 -0.4952  0.1421
 1996PEP     CB76146   0.208  15.366  11.814 -0.0510 -0.1999 -0.2121
 1996PEP     CB76147   0.506  15.696  11.878  0.1218 -0.0852  0.0301
 1996PEP     CB76148   0.547  16.100  11.550  0.0037  0.2953  0.0651
 1996PEP     CB76149   0.891  16.192  11.344  0.4333  0.3564 -0.2067
 1996PEP     CB76150   1.261  16.001  11.467 -0.4783 -0.1327 -0.0953
 1996PEP     CB76151   1.179  15.646  11.814  0.1973  0.0172 -0.5034
 1996PEP     CB76152   0.913  15.647  12.238 -0.0313 -0.0734 -0.3571
 1996PEP     CB76153   0.922  15.718  12.719 -0.1043 -0.0221  0.1113
 1996PEP     CB76154   1.157  15.871  13.086 -0.1197 -0.0721 -0.1728
 1996PEP     CB76155   1.234  16.259  13.194  0.2708  0.0967 -0.5444
 1996PEP     CB76156   1.197  16.541  13.504 -0.0579 -0.1389 -0.3887
 1996PEP     CB76157   1.194  16.422  13.893 -0.0610  0.2412  0.1019
 1996PEP     CB76158   1.458  15.987  13.964 -0.1099  0.0645 -0.3190
 1996PEP     CB76159   1.796  15.665  13.770 -0.1319  0.0812 -0.3994
 1996PEP     CB76160   2.121  15.301  13.577  0.0136  0.0811 -0.0876
 1997PEP     CB76161   8.050   7.784   1.465  0.0822 -0.0872 -0.1300
 1997PEP     CB76162   7.901   7.534   1.080 -0.0718  0.3611  0.2143
 1997PEP     CB76163   7.636   7.167   1.055  0.0405  0.0221 -0.0341
 1997PEP     CB76164   7.464   7.106   1.436  0.0555 -0.0623  0.0945
 1997PEP     CB76165   7.768   7.321   1.720  0.2272  0.0139 -0.2232
 1997PEP     CB76166   8.150   7.293   2.064 -0.6847 -0.1979 -0.0351
 1997PEP     CB76167   8.619   7.114   2.124 -0.0324  0.1051  0.4513
 1997PEP     CB76168   8.768   6.706   2.093  0.2610  0.2411  0.2111
 1997PEP     CB76169   8.930   6.333   1.918 -0.2324 -0.2039 -0.2053
 1997PEP     CB76170   9.337   6.102   2.026  0.1828  0.3235 -0.3899
 1997PEP     CB76171   9.439   6.025   2.399  0.2075  0.3924  0.2533
 1997PEP     CB76172   9.636   5.710   2.630 -0.1020 -0.0067 -0.4238
 1997PEP     CB76173   9.779   5.279   2.831 -0.3069 -0.4455  0.2986
 1997PEP     CB76174  10.073   4.958   2.756 -0.0481  0.0294  0.0251
 1997PEP     CB76175  10.299   4.613   2.659  0.0102 -0.0999 -0.1983
 1997PEP     CB76176  10.161   4.264   2.914  0.2170 -0.2601 -0.3410
 1997PEP     CB76177  10.057   4.360   3.393 -0.0537 -0.1369  0.0252
 1997PEP     CB76178   9.755   4.603   3.653 -0.0627  0.0235  0.1455
 1997PEP     CB76179   9.275   4.601   3.759 -0.2092  0.2690 -0.0630
 1997PEP     CB76180   8.912   4.810   3.879 -0.2185  0.1180  0.3059
 1997PEP     CB76181   8.705   5.278   3.812 -0.0220  0.1403  0.2744
 1997PEP     CB76182   8.834   5.730   3.772 -0.2507 -0.0457  0.0175
 1997PEP     CB76183   8.668   6.122   3.937  0.2369 -0.0435 -0.2656
 1997PEP     CB76184   8.226   6.019   4.131  0.0665 -0.1036  0.0827
 1997PEP     CB76185   8.089   5.780   4.450  0.1541 -0.3487  0.1343
 1997PEP     CB76186   7.788   5.640   4.643 -0.2613 -0.0087  0.4484
 1997PEP     CB76187   7.505   5.409   4.623 -0.0210  0.1217 -0.2498
 1997PEP     CB76188   7.071   5.169   4.740  0.0620 -0.0883  0.1392
 1997PEP     CB76189   6.959   4.760   4.746  0.2537 -0.2279 -0.2910
 1997PEP     CB76190   6.794   4.262   4.785  0.0543 -0.0472  0.1907
 1997PEP     CB76191   6.597   3.931   4.585 -0.1639  0.3412  0.2374
 1997PEP     CB76192   6.195   3.755   4.784 -0.0757 -0.3279 -0.1004
 1997PEP     CB76193   6.093   3.729   5.171 -0.0210 -0.1524  0.0788
 1997PEP     CB76194   6.162   3.545   5.632  0.0928 -0.1535  0.0159
 1997PEP     CB76195   6.389   3.200   5.955 -0.1804  0.1429 -0.2506
 1997PEP     CB76196   6.666   2.936   6.250  0.0717  0.1515 -0.1720
 1997PEP     CB76197   6.973   2.822   6.593  0.0090 -0.2292 -0.1921
 1997PEP     CB76198   6.896   2.758   6.993  0.0096 -0.1378  0.1297
 1997PEP     CB76199   6.611   2.925   7.210 -0.1215 -0.3411 -0.2112
 1997PEP     CB76200   6.475   3.021   7.559  0.2190 -0.0117 -0.1953
 1998PEP     CB76201  10.762   5.522   5.208  0.0523  0.2137  0.2927
 1998PEP     CB76202  11.224   5.724   5.201  0.1464 -0.1091 -0.0203
 1998PEP     CB76203  11.565   5.884   5.286  0.4749 -0.0939  0.2668
 1998PEP     CB76204  12.068   5.883   5.368 -0.1767  0.0137 -0.2471
 1998PEP     CB76205  12.478   5.824   5.057  0.0198  0.0734  0.1547
 1998PEP     CB76206  12.518   6.047   4.674  0.2775 -0.2529  0.0351
 1998PEP     CB76207  12.386   6.492   4.630  0.2153  0.3624  0.1669
 1998PEP     CB76208  12.052   6.625   4.944  0.0277 -0.5447  0.1813
 1998PEP     CB76209  11.723   6.410   5.137  0.3604  0.3637  0.0729
 1998PEP     CB76210  11.273   6.245   5.158  0.1633 -0.3001  0.1454
 1998PEP     CB76211  10.952   6.250   4.933  0.2731  0.3113 -0.3076
 1998PEP     CB76212  11.060   6.156   4.499  0.2378  0.0987 -0.0542
 1998PEP     CB76213  11.483   6.070   4.327 -0.2339 -0.0486 -0.2944
 1998PEP     CB76214  11.763   5.637   4.309 -0.0343 -0.3805  0.1481
 1998PEP     CB76215  11.893   5.160   4.392  0.0761  0.1512  0.2587
 1998PEP     CB76216  11.772   4.802   4.525 -0.0932  0.2454  0.0547
 1998PEP     CB76217  11.413   4.602   4.316 -0.0306  0.1405  0.0125
 1998PEP     CB76218  11.315   4.791   3.921 -0.2311 -0.3541 -0.0030
 1998PEP     CB76219  11.583   5.102   3.700 -0.2379 -0.1191 -0.0782
 1998PEP     CB76220  12.018   5.002   3.436  0.3421 -0.0502 -0.2599
 1998PEP     CB76221  12.225   4.682   3.331 -0.2567  0.0734 -0.0613
 1998PEP     CB76222  12.361   4.239   3.350 -0.0365  0.0669 -0.2556
 1998PEP     CB76223  12.455   4.010   2.928  0.1217  0.0390 -0.1462
 1998PEP     CB76224  12.247   4.085   2.570 -0.1501 -0.4220  0.0163
 1998PEP     CB76225  12.011   4.230   2.314  0.3094 -0.3227 -0.0468
 1998PEP     CB76226  11.861   4.596   2.080 -0.1366 -0.1324 -0.0688
 1998PEP     CB76227  12.072   4.942   2.057  0.0849 -0.2671 -0.3846
 1998PEP     CB76228  12.533   5.013   2.124 -0.0563 -0.1675 -0.2737
 1998PEP     CB76229  12.846   4.756   2.222 -0.2567 -0.4034 -0.1971
 1998PEP     CB76230  13.226   4.591   2.372 -0.3941 -0.1153 -0.4006
 1998PEP     CB76231  13.555   4.248   2.525 -0.1753 -0.1720  0.3648
 1998PEP     CB76232  13.952   4.368   2.778 -0.1591 -0.1187  0.3574
 1998PEP     CB76233  14.196   4.614   3.238  0.1626 -0.0715 -0.0166
 1998PEP     CB76234  14.369   4.420   3.515 -0.0306 -0.1267 -0.5393
 1998PEP     CB76235  14.178   4.039   3.710 -0.0186  0.3746 -0.1618
 1998PEP     CB76236  13.762   3.867   3.566  0.6345 -0.2255  0.1554
 1998PEP     CB76237  13.329   4.112   3.516 -0.4458  0.1027  0.0098
 1998PEP     CB76238  13.061   4.093   3.198  0.0791 -0.4302 -0.1126
 1998PEP     CB76239  13.189   4.295   2.845 -0.2804 -0.2660  0.2247
 1998PEP     CB76240  13.566   4.631   2.893  0.0804 -0.2536  0.1890
 1999PEP     CB76241  16.132  12.786  15.566  0.0858 -0.0010  0.1454
 1999PEP     CB76242  16.363  12.562  15.841  0.1203  0.0478  0.2692
 1999PEP     CB76243  16.644  12.288  15.975 -0.2095  0.2475 -0.2596
 1999PEP     CB76244  17.015  12.027  16.064 -0.0340  0.0854  0.1994
 1999PEP     CB76245  17.470  12.015  16.053  0.0956  0.0697 -0.1277
 1999PEP     CB76246  17.783  12.367  15.947 -0.0997  0.1176 -0.1573
 1999PEP     CB76247  17.704  12.765  15.997  0.4207  0.2203 -0.0920
 1999PEP     CB76248  17.395  12.901  16.378 -0.0510  0.3668 -0.0514
 1999PEP     CB76249  17.342  12.659  16.776  0.4188 -0.2664  0.2183
 1999PEP     CB76250  17.551  12.254  16.830 -0.0692  0.4652  0.0584
 1999PEP     CB76251  17.704  11.853  16.627  0.0355 -0.3325 -0.0037
 1999PEP     CB76252  18.024  11.543  16.354  0.1152 -0.1028  0.1560
 1999PEP     CB76253  18.486  11.266  16.134  0.2534  0.0967  0.0563
 1999PEP     CB76254  18.661  10.935  15.853  0.4584  0.1334  0.0705
 1999PEP     CB76255  18.811  10.563  16.007  0.2293 -0.0227  0.0378
 1999PEP     CB76256  19.209  10.364  16.023 -0.1633 -0.4053  0.3337
 1999PEP     CB76257  19.644  10.172  15.986 -0.2202 -0.2859  0.0913
 1999PEP     CB76258  19.984   9.860  15.937  0.5967  0.0179  0.0461
 1999PEP     CB76259  20.422   9.758  16.007  0.1530 -0.2193 -0.3248
 1999PEP     CB76260  20.812   9.729  15.876 -0.1745  0.0301  0.0854
 1999PEP     CB76261  21.003   9.765  15.514  0.0422  0.1242  0.0843
 1999PEP     CB76262  20.907  10.051  15.229  0.3706 -0.0766 -0.0277
 1999PEP     CB76263  20.512  10.244  15.106 -0.1021 -0.2115 -0.6408
 1999PEP     CB76264  20.193  10.639  15.024  0.0673  0.0718  0.1942
 1999PEP     CB76265  19.974  10.654  14.658  0.0074 -0.1216 -0.2084
 1999PEP     CB76266  20.011  10.888  14.230  0.1084 -0.1866  0.1272
 1999PEP     CB76267  19.813  10.759  13.894 -0.2711 -0.6202  0.1410
 1999PEP     CB76268  19.559  10.433  13.876  0.1012 -0.0259 -0.0398
 1999PEP     CB76269  19.639  10.024  14.041  0.6344 -0.1499  0.2383
 1999PEP     CB76270  19.635   9.788  14.400 -0.2330  0.4412  0.0992
 1999PEP     CB76271  19.881   9.781  14.736 -0.1060  0.1025  0.2947
 1999PEP     CB76272  20.332   9.770  14.888 -0.2887 -0.0915  0.1561
 1999PEP     CB76273  20.751   9.531  15.066 -0.1322 -0.3447 -0.1460
 1999PEP     CB76274  21.082   9.311  15.251  0.2253  0.1646 -0.2758
 1999PEP     CB76275  21.359   9.031  15.352  0.0600 -0.2578 -0.2339
 1999PEP     CB76276  21.611   9.021  15.789  0.0056 -0.3888 -0.1239
 1999PEP     CB76277  21.801   8.953  16.182 -0.1070  0.3197 -0.2585
 1999PEP     CB76278  21.744   8.680  16.544  0.0864 -0.1784  0.0772
 1999PEP     CB76279  22.011   8.384  16.841  0.4236  0.0046 -0.1196
 1999PEP     CB76280  22.340   8.258  16.793  0.0057  0.0892 -0.0722
 2000PEP     CB76281   6.102  11.413   3.242 -0.2719 -0.1038  0.0275
 2000PEP     CB76282   6.228  11.469   3.729  0.4339 -0.0255 -0.0143
 2000PEP     CB76283   6.588  11.553   4.044 -0.2209 -0.0468 -0.1719
 2000PEP     CB76284   6.863  11.483   4.340  0.0940 -0.1397  0.3927
 2000PEP     CB76285   6.863  11.394   4.786 -0.0927 -0.0020 -0.3745
 2000PEP     CB76286   6.703  11.403   5.239 -0.2167  0.0414  0.1272
 2000PEP     CB76287   6.487  11.522   5.605 -0.0084  0.0247  0.3033
 2000PEP     CB76288   6.120  11.478   5.771  0.1390  0.3674  0.1259
 2000PEP     CB76289   5.739  11.510   5.536  0.1157 -0.1274 -0.0012
 2000PEP     CB76290   5.560  11.609   5.136 -0.1680 -0.0534 -0.3476
 2000PEP     CB76291   5.153  11.850   4.961  0.0690  0.4711 -0.2226
 2000PEP     CB76292   4.752  11.515   4.913 -0.3139 -0.3814  0.0352
 2000PEP     CB76293   4.621  11.122   5.200  0.0489  0.2760  0.2655
 2000PEP     CB76294   4.610  11.128   5.619 -0.0911  0.1874  0.0841
 2000PEP     CB76295   4.512  11.517   5.867 -0.1374 -0.0027 -0.0407
 2000PEP     CB76296   4.247  11.846   5.798 -0.1468 -0.0588  0.2205
 2000PEP     CB76297   4.169  12.043   5.408  0.1815 -0.1663  0.1688
 2000PEP     CB76298   4.364  12.083   5.112  0.1244 -0.5025 -0.0333
 2000PEP     CB76299   4.656  12.344   4.830 -0.0735 -0.1980  0.0868
 2000PEP     CB76300   4.872  12.645   4.643  0.5430  0.1197 -0.0914
 2000PEP     CB76301   5.091  12.889   4.256  0.4119 -0.3241 -0.1393
 2000PEP     CB76302   5.137  13.342   4.142  0.2533  0.0497 -0.1118
 2000PEP     CB76303   5.360  13.669   4.249 -0.0858  0.1546  0.0372
 2000PEP     CB76304   5.653  13.846   4.500 -0.2669 -0.1761  0.0347
 2000PEP     CB76305   5.886  13.729   4.886 -0.0876  0.0670 -0.1615
 2000PEP     CB76306   5.992  13.338   5.159  0.4986 -0.2146  0.2410
 2000PEP     CB76307   6.219  13.019   5.255  0.1011  0.0362 -0.2135
 2000PEP     CB76308   6.536  12.828   5.276 -0.1624 -0.4730 -0.0779
 2000PEP     CB76309   6.798  12.508   5.129 -0.0753 -0.0212 -0.3544
 2000PEP     CB76310   7.207  12.400   5.429 -0.1749 -0.3889 -0.0204
 2000PEP     CB76311   7.350  12.708   5.812 -0.1236 -0.0179 -0.0046
 2000PEP     CB76312   7.095  13.095   5.999  0.0226  0.0367 -0.3492
 2000PEP     CB76313   6.965  13.528   6.021  0.0718  0.0554 -0.0523
 2000PEP     CB76314   6.546  13.740   6.156  0.3076  0.2686 -0.3743
 2000PEP     CB76315   6.155  13.761   5.887  0.0265 -0.5362 -0.1796
 2000PEP     CB76316   6.093  13.762   5.424  0.0289  0.4347  0.4919
 2000PEP     CB76317   6.251  13.958   5.090 -0.3915 -0.5006  0.4187
 2000PEP     CB76318   6.626  14.193   5.102 -0.0816 -0.1319  0.6055
 2000PEP     CB76319   6.989  14.473   4.961 -0.2544 -0.3323  0.0040
 2000PEP     CB76320   7.506  14.509   5.019 -0.0075 -0.2257 -0.0764
 2001PEP     CB76321  13.638  20.924  19.627  0.1375 -0.1025 -0.1474
 2001PEP     CB76322  13.275  20.800  19.478  0.0466 -0.2086 -0.0826
 2001PEP     CB76323  12.998  20.538  19.708  0.0939  0.0427  0.1469
 2001PEP     CB76324  13.139  20.197  20.084  0.0570 -0.2181 -0.0820
 2001PEP     CB76325  13.491  20.327  20.346 -0.1896  0.0005  0.2561
 2001PEP     CB76326  13.820  20.638  20.507  0.0889  0.2119  0.2908
 2001PEP     CB76327  14.127  20.575  20.858 -0.3065 -0.1969  0.0315
 2001PEP     CB76328  13.913  20.417  21.137  0.2283 -0.0630 -0.1311
 2001PEP     CB76329  13.537  20.269  21.420  0.3210 -0.1379  0.2329
 2001PEP     CB76330  13.143  20.026  21.529  0.7222  0.0011 -0.1870
 2001PEP     CB76331  12.715  19.931  21.519  0.7374  0.0944 -0.0832
 2001PEP     CB76332  12.375  19.734  21.456  0.0773  0.2072  0.2139
 2001PEP     CB76333  12.190  19.437  21.156 -0.2467  0.1279 -0.0942
 2001PEP     CB76334  11.917  19.156  20.969  0.0379 -0.1757 -0.0406
 2001PEP     CB76335  11.960  18.777  20.686 -0.0936  0.1525 -0.2801
 2001PEP     CB76336  12.397  18.736  20.373  0.4960  0.3319 -0.0075
 2001PEP     CB76337  12.724  19.013  20.536  0.2356 -0.3868 -0.3224
 2001PEP     CB76338  12.975  18.966  20.915 -0.0674  0.0355  0.0211
 2001PEP     CB76339  12.962  18.983  21.367 -0.0597  0.1866  0.1366
 2001PEP     CB76340  12.827  19.212  21.674  0.0261  0.0642  0.0617
 2001PEP     CB76341  12.683  19.550  21.980  0.3205  0.3166 -0.1683
 2001PEP     CB76342  12.479  19.978  22.207 -0.2011  0.0635 -0.0542
 2001PEP     CB76343  12.359  20.364  22.031 -0.1129  0.1584  0.0239
 2001PEP     CB76344  12.367  20.738  21.846  0.3440  0.0006 -0.1695
 2001PEP     CB76345  12.220  21.139  21.781 -0.1080  0.1226 -0.2340
 2001PEP     CB76346  12.154  21.623  21.736  0.1409 -0.3780  0.0464
 2001PEP     CB76347  12.297  22.064  21.901  0.0357  0.0409 -0.5747
 2001PEP     CB76348  12.688  22.281  21.945 -0.2011  0.0875  0.0679
 2001PEP     CB76349  12.905  22.338  22.270  0.2643 -0.2501  0.1686
 2001PEP     CB76350  13.054  22.546  22.581 -0.2998  0.3131  0.0302
 2001PEP     CB76351  13.147  22.937  22.736  0.3843  0.1720  0.0561
 2001PEP     CB76352  13.519  23.053  22.994  0.1046 -0.6604 -0.1769
 2001PEP     CB76353  13.878  22.876  23.298 -0.3721 -0.0758 -0.0114
 2001PEP     CB76354  13.869  22.430  23.364 -0.2080  0.4469 -0.0999
 2001PEP     CB76355  13.488  22.152  23.333 -0.0964  0.3120  0.1424
 2001PEP     CB76356  13.126  21.940  23.412 -0.2829 -0.2954  0.4975
 2001PEP     CB76357  12.744  21.832  23.055 -0.4352 -0.3375  0.1901
 2001PEP     CB76358  13.009  21.921  22.677  0.1826  0.0963  0.1539
 2001PEP     CB76359  13.532  21.921  22.747  0.0632 -0.2246 -0.6598
 2001PEP     CB76360  13.859  22.055  22.889  0.0318  0.0844 -0.0653
 2002PEP     CB76361  11.384   5.435   4.032 -0.1555 -0.3638 -0.2250
 2002PEP     CB76362  11.058   5.687   4.184  0.0984 -0.1214  0.0313
 2002PEP     CB76363  10.767   5.740   4.590 -0.2909 -0.3340  0.0122
 2002PEP     CB76364  10.450   5.667   4.846  0.1944  0.0398 -0.1403
 2002PEP     CB76365  10.244   5.729   5.253 -0.0040 -0.2787 -0.0828
 2002PEP     CB76366  10.092   5.521   5.592 -0.2863 -0.3146 -0.2545
 2002PEP     CB76367  10.147   5.444   6.038  0.2795 -0.2066 -0.1463
 2002PEP     CB76368  10.237   5.245   6.371 -0.0176  0.0286  0.1380
 2002PEP     CB76369  10.358   5.373   6.841 -0.0049 -0.3015  0.0588
 2002PEP     CB76370  10.362   5.642   7.165 -0.1181 -0.1793  0.3521
 2002PEP     CB76371  10.009   5.843   7.357  0.1138 -0.3135  0.1939
 2002PEP     CB76372   9.746   6.287   7.394  0.1436  0.2614  0.0928
 2002PEP     CB76373   9.557   6.611   7.043 -0.1029 -0.3455  0.0406
 2002PEP     CB76374   9.542   6.757   6.611  0.2441 -0.0164 -0.0547
 2002PEP     CB76375   9.487   6.601   6.126  0.2473  0.0267  0.2161
 2002PEP     CB76376   9.472   6.343   5.723  0.1175  0.0597  0.1524
 2002PEP     CB76377   9.691   6.019   5.589 -0.2787  0.1252 -0.3976
 2002PEP     CB76378   9.700   5.741   5.264  0.2474  0.1944 -0.0672
 2002PEP     CB76379   9.778   5.697   4.933 -0.0733  0.1976 -0.0022
 2002PEP     CB76380   9.987   5.385   4.616  0.1086 -0.2244  0.3383
 2002PEP     CB76381  10.011   5.146   4.333 -0.0927 -0.4444 -0.0137
 2002PEP     CB76382  10.099   4.793   4.017 -0.2409 -0.0914  0.2300
 2002PEP     CB76383  10.184   4.311   3.921 -0.2472 -0.0526  0.3735
 2002PEP     CB76384  10.322   3.925   4.112  0.1895  0.1283  0.2501
 2002PEP     CB76385  10.128   3.508   3.898  0.0721  0.3091 -0.4714
 2002PEP     CB76386   9.959   3.520   3.390 -0.2912  0.0348  0.0501
 2002PEP     CB76387   9.827   3.860   3.145 -0.4043  0.0686 -0.1148
 2002PEP     CB76388   9.667   4.050   2.803  0.1890  0.0280 -0.2576
 2002PEP     CB76389   9.616   4.154   2.373  0.0473  0.1033  0.1971
 2002PEP     CB76390   9.647   4.374   2.061 -0.0070  0.0627 -0.1208
 2002PEP     CB76391   9.706   4.644   1.723  0.3912 -0.3319 -0.1294
 2002PEP     CB76392   9.736   5.073   1.621 -0.2081 -0.0624 -0.4013
 2002PEP     CB76393   9.924   5.475   1.620 -0.0308 -0.1005  0.1067
 2002PEP     CB76394  10.316   5.815   1.832  0.3335  0.0457  0.1073
 2002PEP     CB76395  10.696   5.764   1.895  0.2222 -0.1146 -0.3188
 2002PEP     CB76396  10.945   5.398   1.962  0.0925  0.1924  0.1070
 2002PEP     CB76397  10.786   4.931   1.843  0.1725 -0.1006 -0.1636
 2002PEP     CB76398  10.773   4.452   1.864  0.3520 -0.0786  0.1865
 2002PEP     CB76399  10.729   3.924   1.932  0.0298  0.3530 -0.3665
 2002PEP     CB76400  10.562   3.638   1.629 -0.2282  0.1806 -0.2008
 2003PEP     CB76401  20.765  17.844  12.379 -0.0772 -0.1301  0.0006
 2003PEP     CB76402  21.000  17.970  12.016 -0.2256 -0.3353 -0.3161
 2003PEP     CB76403  21.030  17.857  11.627 -0.4564 -0.1705  0.0680
 2003PEP     CB76404  21.214  17.394  11.493  0.0648  0.0202  0.2626
 2003PEP     CB76405  21.390  17.129  11.749 -0.0179 -0.5580  0.1223
 2003PEP     CB76406  21.372  17.104  12.155  0.0830  0.1233  0.1787
 2003PEP     CB76407  21.071  17.135  12.500 -0.1629  0.1238 -0.1455
 2003PEP     CB76408  20.725  17.368  12.403 -0.1207 -0.0672 -0.1877
 2003PEP     CB76409  20.537  17.580  11.978 -0.2260  0.0242  0.5368
 2003PEP     CB76410  20.399  17.705  11.612 -0.0829 -0.3053  0.3233
 2003PEP     CB76411  20.076  17.746  11.423 -0.5065 -0.1536  0.0667
 2003PEP     CB76412  19.722  17.897  11.112 -0.0934 -0.3765 -0.6307
 2003PEP     CB76413  19.823  18.018  10.660  0.2847 -0.3812  0.1143
 2003PEP     CB76414  20.219  17.918  10.458  0.3527 -0.1039  0.1115
 2003PEP     CB76415  20.521  17.676  10.336  0.2460  0.1830 -0.0090
 2003PEP     CB76416  20.951  17.521  10.522  0.1656  0.0306  0.0518
 2003PEP     CB76417  20.947  17.245  10.918  0.0391 -0.0862 -0.6417
 2003PEP     CB76418  20.630  17.063  11.069 -0.4204  0.2924  0.2485
 2003PEP     CB76419  20.140  17.154  11.150  0.0682  0.2296 -0.2462
 2003PEP     CB76420  19.818  17.347  11.238 -0.4309 -0.6138  0.2150
 2003PEP     CB76421  19.415  17.550  11.168  0.4398 -0.4669  0.0116
 2003PEP     CB76422  19.156  17.902  10.887 -0.1678 -0.3227  0.1276
 2003PEP     CB76423  18.861  17.907  10.502  0.0084 -0.0089 -0.1086
 2003PEP     CB76424  18.741  17.999  10.155  0.1522  0.1424 -0.2849
 2003PEP     CB76425  18.572  17.817   9.886 -0.1234  0.0931  0.2460
 2003PEP     CB76426  18.445  17.537   9.705 -0.1695  0.2772 -0.0503
 2003PEP     CB76427  18.381  17.139   9.376 -0.2637 -0.0123  0.2762
 2003PEP     CB76428  18.335  16.673   9.319 -0.2133 -0.1008 -0.1473
 2003PEP     CB76429  18.388  16.305   9.111 -0.2386  0.1218 -0.0787
 2003PEP     CB76430  18.647  16.065   8.805  0.0252  0.2513 -0.4015
 2003PEP     CB76431  18.582  15.745   8.428 -0.0078 -0.1329 -0.2197
 2003PEP     CB76432  18.722  15.347   8.159 -0.1046  0.0439  0.3044
 2003PEP     CB76433  18.892  14.947   8.179 -0.3142  0.2190  0.2249
 2003PEP     CB76434  18.973  14.588   8.456 -0.2025  0.3718 -0.1137
 2003PEP     CB76435  19.122  14.680   8.891  0.1444 -0.0398  0.3233
 2003PEP     CB76436  19.448  14.779   9.076 -0.0309 -0.0134  0.1876
 2003PEP     CB76437  19.963  14.734   9.167  0.2701 -0.0370 -0.1211
 2003PEP     CB76438  20.189  14.495   9.521  0.0350 -0.3107  0.0849
 2003PEP     CB76439  20.120  14.526   9.953 -0.5428  0.3268  0.1562
 2003PEP     CB76440  20.373  14.530  10.281  0.0701  0.2444  0.4133
 2004PEP     CB76441  18.413  13.322  10.249  0.3815  0.3177  0.1036
 2004PEP     CB76442  18.855  13.341  10.404 -0.1090  0.0439 -0.0758
 2004PEP     CB76443  18.961  13.595  10.798  0.4416 -0.2516  0.0849
 2004PEP     CB76444  18.865  13.924  10.920 -0.4389 -0.3301 -0.1531
 2004PEP     CB76445  18.492  14.212  10.847  0.1774 -0.3265  0.1130
 2004PEP     CB76446  18.075  14.061  10.678  0.0987  0.0148  0.0133
 2004PEP     CB76447  17.701  13.814  10.667  0.1320  0.0544  0.0595
 2004PEP     CB76448  17.568  13.548  10.463  0.0189  0.0415  0.1074
 2004PEP     CB76449  17.416  13.562  10.074 -0.0386 -0.2427 -0.2274
 2004PEP     CB76450  17.296  14.058   9.983 -0.0554  0.0602  0.2553
 2004PEP     CB76451  17.330  14.172  10.389  0.0971  0.0115 -0.1870
 2004PEP     CB76452  17.184  13.947  10.743 -0.1980 -0.1238 -0.1803
 2004PEP     CB76453  17.328  13.574  10.973 -0.2779 -0.1152 -0.3095
 2004PEP     CB76454  17.266  13.095  10.823  0.2422  0.0519 -0.2959
 2004PEP     CB76455  17.368  12.969  10.367  0.2503 -0.5401 -0.3018
 2004PEP     CB76456  17.359  13.023   9.883 -0.1166 -0.1354 -0.0824
 2004PEP     CB76457  17.552  13.234   9.637 -0.0209  0.1849  0.1723
 2004PEP     CB76458  17.907  13.455   9.675 -0.3264  0.0010 -0.1196
 2004PEP     CB76459  18.166  13.793   9.795 -0.1045 -0.0798  0.1613
 2004PEP     CB76460  18.628  13.986   9.710 -0.2606  0.0551 -0.6591
 2004PEP     CB76461  19.131  13.927   9.716  0.0724  0.1161  0.0613
 2004PEP     CB76462  19.530  13.654   9.653 -0.1438 -0.2778 -0.1051
 2004PEP     CB76463  19.888  13.387   9.593  0.1065  0.0925  0.1468
 2004PEP     CB76464  20.050  12.818   9.665  0.0460 -0.3335  0.1719
 2004PEP     CB76465  20.400  12.754   9.976 -0.0571  0.0122 -0.0427
 2004PEP     CB76466  20.501  12.974  10.340  0.5779  0.4082 -0.0589
 2004PEP     CB76467  20.376  12.977  10.750 -0.2126  0.1493  0.4044
 2004PEP     CB76468  20.214  13.248  11.085 -0.3845  0.1677  0.2572
 2004PEP     CB76469  20.214  13.463  11.438  0.1304 -0.0217 -0.2405
 2004PEP     CB76470  19.924  13.694  11.635 -0.1798 -0.0078 -0.1377
 2004PEP     CB76471  19.536  14.014  11.673  0.1807  0.3141 -0.1297
 2004PEP     CB76472  19.501  14.381  11.871  0.2603  0.0398 -0.0834
 2004PEP     CB76473  19.601  14.696  12.284  0.2675 -0.0080  0.2059
 2004PEP     CB76474  19.565  14.714  12.649  0.0721 -0.0089 -0.3782
 2004PEP     CB76475  19.305  14.948  12.912 -0.5124 -0.0321  0.3596
 2004PEP     CB76476  19.193  15.312  13.235  0.0444 -0.2123  0.1093
 2004PEP     CB76477  19.290  15.373  13.556 -0.0397  0.2845 -0.1393
 2004PEP     CB76478  19.295  15.457  13.992 -0.0650 -0.0223 -0.0036
 2004PEP     CB76479  19.553  15.392  14.392  0.0567 -0.0590 -0.0717
 2004PEP     CB76480  19.672  15.200  14.777  0.1684  0.0415 -0.1874
 2005PEP     CB76481  12.444  20.879  16.002 -0.0294 -0.2467 -0.1356
 2005PEP     CB76482  12.336  21.145  15.729 -0.1217  0.0539  0.2321
 2005PEP     CB76483  12.039  21.407  15.475  0.0251  0.1205  0.1130
 2005PEP     CB76484  11.818  21.800  15.398  0.1981  0.2091  0.1722
 2005PEP     CB76485  11.470  22.150  15.381 -0.0403 -0.3492 -0.0557
 2005PEP     CB76486  11.055  22.169  15.333  0.0735 -0.1353 -0.2659
 2005PEP     CB76487  10.646  22.202  15.371 -0.2168  0.0057 -0.0134
 2005PEP     CB76488  10.166  22.236  15.403  0.2910 -0.1080  0.1753
 2005PEP     CB76489   9.798  22.020  15.305  0.2828  0.1418  0.2502
 2005PEP     CB76490   9.713  21.672  15.188  0.0449 -0.0959 -0.2166
 2005PEP     CB76491  10.075  21.349  15.057  0.0252  0.0952  0.2356
 2005PEP     CB76492  10.274  20.974  14.894 -0.1547  0.1775  0.0830
 2005PEP     CB76493  10.569  20.680  14.775 -0.0683 -0.0490 -0.1205
 2005PEP     CB76494  10.780  20.498  14.491 -0.2800  0.7172 -0.2156
 2005PEP     CB76495  10.879  20.101  14.222  0.0532 -0.0530 -0.0385
 2005PEP     CB76496  10.576  19.689  14.222  0.4839 -0.0997 -0.0260
 2005PEP     CB76497  10.179  19.422  14.249 -0.2973 -0.1082  0.0943
 2005PEP     CB76498   9.904  19.109  14.239 -0.3306  0.3411 -0.0500
 2005PEP     CB76499   9.670  18.702  14.446 -0.4795  0.1365 -0.2925
 2005PEP     CB76500   9.471  18.360  14.380 -0.0946 -0.1021 -0.1719
 2005PEP     CB76501   9.159  18.079  14.165  0.0551  0.3626  0.0760
 2005PEP     CB76502   8.788  17.828  14.169  0.5577  0.2275  0.1267
 2005PEP     CB76503   8.477  17.515  14.131 -0.3623  0.0799 -0.0801
 2005PEP     CB76504   8.030  17.350  14.281  0.0638  0.0809 -0.0484
 2005PEP     CB76505   7.637  17.327  14.160  0.1465 -0.0189  0.0241
 2005PEP     CB76506   7.288  17.142  14.111  0.2933  0.2882 -0.0054
 2005PEP     CB76507   6.822  17.046  14.000  0.3095 -0.3319 -0.1582
 2005PEP     CB76508   6.474  16.850  14.183  0.1934 -0.4409 -0.1450
 2005PEP     CB76509   6.136  16.625  14.368  0.1414 -0.0565  0.0726
 2005PEP     CB76510   5.634  16.486  14.586 -0.0135 -0.0611 -0.1811
 2005PEP     CB76511   5.327  16.189  14.829 -0.1161 -0.3835  0.4077
 2005PEP     CB76512   4.988  16.162  15.069  0.1861 -0.1076  0.0052
 2005PEP     CB76513   4.734  16.210  15.450  0.0589 -0.1150  0.3073
 2005PEP     CB76514   4.745  16.298  15.916  0.4434 -0.4442 -0.1643
 2005PEP     CB76515   4.584  16.674  16.267  0.0033  0.1198  0.0783
 2005PEP     CB76516   4.346  16.747  16.682 -0.2202 -0.1225 -0.1128
 2005PEP     CB76517   4.455  16.837  17.098  0.0119  0.0520 -0.1610
 2005PEP     CB76518   4.627  16.575  17.404 -0.3666  0.0439 -0.2704
 2005PEP     CB76519   4.543  16.183  17.567  0.5477 -0.0039 -0.3495
 2005PEP     CB76520   4.420  15.726  17.508 -0.0114 -0.3095 -0.1924
 2006PEP     CB76521   1.811   8.959   1.577 -0.0394 -0.0147 -0.0029
 2006PEP     CB76522   1.704   9.306   1.903 -0.2777 -0.4518  0.2424
 2006PEP     CB76523   1.757   9.300   2.311  0.1998 -0.0966 -0.1686
 2006PEP     CB76524   1.543   9.064   2.626  0.2315 -0.0559  0.3661
 2006PEP     CB76525   1.201   8.864   2.734 -0.0749  0.1229 -0.1077
 2006PEP     CB76526   0.861   8.756   2.571 -0.4012  0.1553 -0.2667
 2006PEP     CB76527   0.627   8.386   2.394  0.1033 -0.1830 -0.3744
 2006PEP     CB76528   0.495   8.156   2.136  0.0051 -0.2825  0.4136
 2006PEP     CB76529   0.393   7.719   1.969 -0.3900 -0.3037  0.2995
 2006PEP     CB76530   0.073   7.422   1.797 -0.4076 -0.0324  0.1590
 2006PEP     CB76531  -0.048   7.253   1.375 -0.2862 -0.0620 -0.0239
 2006PEP     CB76532  -0.011   7.267   0.938  0.2263 -0.0543 -0.1872
 2006PEP     CB76533   0.211   7.560   0.774  0.0414 -0.3474  0.0982
 2006PEP     CB76534   0.159   7.946   0.602 -0.0387  0.0746 -0.3419
 2006PEP     CB76535  -0.099   8.243   0.401  0.1073 -0.1323 -0.3407
 2006PEP     CB76536  -0.411   8.590   0.285 -0.0545  0.2809  0.0516
 2006PEP     CB76537  -0.649   8.887   0.054 -0.3977 -0.1254 -0.1829
 2006PEP     CB76538  -0.574   9.190  -0.286  0.3894  0.0168 -0.2231
 2006PEP     CB76539  -0.730   9.131  -0.724 -0.1793 -0.0997 -0.2203
 2006PEP     CB76540  -0.931   8.800  -0.995  0.3907  0.2924 -0.4360
 2006PEP     CB76541  -1.135   8.676  -1.375 -0.1294  0.1633  0.0554
 2006PEP     CB76542  -1.040   8.556  -1.776  0.1723 -0.1220  0.0931
 2006PEP     CB76543  -0.558   8.369  -1.843 -0.0624 -0.1999  0.0768
 2006PEP     CB76544  -0.197   8.502  -1.648 -0.1722  0.0155 -0.0020
 2006PEP     CB76545  -0.192   8.503  -1.140  0.1995 -0.2640 -0.1247
 2006PEP     CB76546  -0.379   8.761  -0.835  0.1889  0.4585 -0.2860
 2006PEP     CB76547  -0.451   8.767  -0.424 -0.3292 -0.0159  0.2903
 2006PEP     CB76548  -0.144   8.908  -0.056 -0.0749 -0.3000 -0.2375
 2006PEP     CB76549  -0.199   9.103   0.332 -0.1462  0.3064 -0.4254
 2006PEP     CB76550  -0.552   9.056   0.619  0.5408  0.3013  0.0525
 2006PEP     CB76551  -0.878   9.130   0.896 -0.3276  0.0599 -0.0253
 2006PEP     CB76552  -1.312   8.897   0.988  0.0242  0.3716  0.0137
 2006PEP     CB76553  -1.645   8.813   1.287  0.1700 -0.2697  0.0879
 2006PEP     CB76554  -1.857   9.028   1.662 -0.1545 -0.1562 -0.0333
 2006PEP     CB76555  -1.926   9.334   1.906  0.0746 -0.1370  0.0804
 2006PEP     CB76556  -2.006   9.636   2.298 -0.5523  0.0304  0.0858
 2006PEP     CB76557  -1.734   9.634   2.600  0.1793 -0.1162 -0.1878
 2006PEP     CB76558  -1.335   9.451   2.645  0.2970  0.0102  0.0208
 2006PEP     CB76559  -1.131   9.173   2.471  0.0458 -0.2541  0.0694
 2006PEP     CB76560  -1.064   8.670   2.556  0.1462 -0.1814  0.4100
 2007PEP     CB76561   2.950  13.546  13.111  0.0463  0.1999 -0.0109
 2007PEP     CB76562   2.893  13.966  13.303  0.5619  0.2499 -0.1899
 2007PEP     CB76563   2.521  14.282  13.302 -0.1999 -0.0953  0.3979
 2007PEP     CB76564   1.997  14.218  13.504  0.0692 -0.0521  0.0122
 2007PEP     CB76565   1.879  14.023  13.889  0.4074  0.0340 -0.2600
 2007PEP     CB76566   2.133  13.739  14.122 -0.1290  0.1077  0.0711
 2007PEP     CB76567   2.599  13.661  14.024 -0.2428 -0.6831 -0.0915
 2007PEP     CB76568   2.743  13.549  13.595 -0.3649  0.1762  0.0005
 2007PEP     CB76569   2.460  13.436  13.281  0.1028 -0.1030  0.2380
 2007PEP     CB76570   1.961  13.501  13.200  0.1082  0.1983 -0.3197
 2007PEP     CB76571   1.637  13.256  13.413  0.3494 -0.0040  0.1334
 2007PEP     CB76572   1.602  12.861  13.648 -0.3043  0.1987  0.0753
 2007PEP     CB76573   1.799  12.432  13.765  0.0356  0.1366 -0.2236
 2007PEP     CB76574   2.064  12.059  13.856  0.0405 -0.1095 -0.3044
 2007PEP     CB76575   2.149  11.738  14.130  0.4716 -0.0996 -0.0851
 2007PEP     CB76576   2.263  11.429  14.412  0.1808 -0.1610  0.1286
 2007PEP     CB76577   2.512  11.292  14.785  0.1606 -0.1586  0.0712
 2007PEP     CB76578   2.733  11.144  15.171 -0.2013 -0.1145  0.2130
 2007PEP     CB76579   2.768  11.007  15.588  0.0321  0.0282 -0.2903
 2007PEP     CB76580   3.010  10.918  15.967 -0.0278 -0.0725 -0.2033
 2007PEP     CB76581   3.313  10.934  16.270 -0.2676 -0.4075 -0.1939
 2007PEP     CB76582   3.681  10.827  16.643 -0.1351  0.1660  0.1681
 2007PEP     CB76583   4.013  10.806  16.915  0.3170 -0.2937  0.2567
 2007PEP     CB76584   4.408  10.907  17.130 -0.0360  0.5221 -0.2459
 2007PEP     CB76585   4.679  11.086  17.290 -0.4096 -0.0094 -0.1323
 2007PEP     CB76586   5.055  11.164  17.520  0.0335 -0.0088  0.1225
 2007PEP     CB76587   5.229  11.041  17.878  0.0642  0.0041 -0.2595
 2007PEP     CB76588   5.487  11.306  18.194 -0.1724  0.1343  0.1189
 2007PEP     CB76589   5.884  11.525  18.116 -0.2160  0.0964 -0.0491
 2007PEP     CB76590   6.307  11.302  18.167  0.3334  0.1231  0.3558
 2007PEP     CB76591   6.472  10.922  18.272  0.0129 -0.1506  0.0763
 2007PEP     CB76592   6.731  10.620  18.249  0.1102  0.0348  0.0416
 2007PEP     CB76593   6.578  10.186  18.101 -0.2551  0.0339 -0.3282
 2007PEP     CB76594   6.069  10.134  17.970 -0.1756  0.2549 -0.3442
 2007PEP     CB76595   5.822  10.540  17.812  0.1522  0.3227 -0.0724
 2007PEP     CB76596   5.896  10.967  17.999  0.0653 -0.0597 -0.0347
 2007PEP     CB76597   5.998  11.008  18.456 -0.0563 -0.2660  0.0570
 2007PEP     CB76598   6.279  10.697  18.730  0.0635  0.1380  0.0294
 2007PEP     CB76599   6.342  10.219  18.619  0.1896 -0.2101  0.1736
 2007PEP     CB76600   6.183   9.919  18.395 -0.0398  0.1554  0.0051
 2008PEP     CB76601   0.343   3.767  13.218 -0.0307  0.0655  0.0160
 2008PEP     CB76602   0.229   4.274  13.180 -0.0281 -0.1902 -0.1654
 2008PEP     CB76603  -0.077   4.603  13.126 -0.0671 -0.2700  0.0499
 2008PEP     CB76604  -0.332   4.934  13.107  0.2667 -0.3598 -0.4883
 2008PEP     CB76605  -0.704   5.126  13.173 -0.2397 -0.0273 -0.0537
 2008PEP     CB76606  -0.901   5.410  13.311  0.1593 -0.0192 -0.3529
 2008PEP     CB76607  -1.245   5.432  13.589  0.5570  0.0118 -0.0427
 2008PEP     CB76608  -1.667   5.326  13.736  0.3095  0.2577  0.2641
 2008PEP     CB76609  -1.730   5.174  14.146  0.1620  0.3486 -0.1793
 2008PEP     CB76610  -1.421   5.329  14.531 -0.3871 -0.2296 -0.1307
 2008PEP     CB76611  -1.120   5.585  14.513 -0.0233 -0.2040  0.4052
 2008PEP     CB76612  -0.997   5.972  14.415 -0.1924 -0.0427  0.1715
 2008PEP     CB76613  -1.198   6.389  14.510 -0.1212 -0.0346  0.1375
 2008PEP     CB76614  -1.547   6.580  14.371  0.2604 -0.1342  0.1457
 2008PEP     CB76615  -1.766   6.720  13.923 -0.0064 -0.2086 -0.0127
 2008PEP     CB76616  -1.762   6.939  13.488 -0.4110 -0.1841  0.1258
 2008PEP     CB76617  -1.758   7.347  13.281  0.0092 -0.1712 -0.5276
 2008PEP     CB76618  -2.150   7.541  13.113  0.0929 -0.1097 -0.2381
 2008PEP     CB76619  -2.543   7.528  13.321 -0.0787  0.2263  0.2991
 2008PEP     CB76620  -2.592   7.309  13.776  0.1412  0.1323  0.3015
 2008PEP     CB76621  -2.473   7.387  14.194  0.1049  0.2807 -0.3911
 2008PEP     CB76622  -2.689   7.587  14.520 -0.4544  0.1579  0.2497
 2008PEP     CB76623  -3.089   7.758  14.479  0.2328  0.0089 -0.0757
 2008PEP     CB76624  -3.194   7.861  14.072 -0.3017 -0.1752 -0.1239
 2008PEP     CB76625  -3.050   7.684  13.604 -0.5307 -0.1091 -0.2318
 2008PEP     CB76626  -2.988   7.246  13.414  0.0600  0.5279 -0.0233
 2008PEP     CB76627  -3.322   6.979  13.316 -0.0657  0.2743  0.0933
 2008PEP     CB76628  -3.778   7.056  13.459 -0.0766  0.2282 -0.2239
 2008PEP     CB76629  -3.914   7.318  13.819  0.0734  0.0641 -0.1555
 2008PEP     CB76630  -3.927   7.754  14.047  0.0029 -0.1515  0.0436
 2008PEP     CB76631  -3.617   7.989  14.309 -0.0549 -0.5228 -0.2353
 2008PEP     CB76632  -3.314   8.243  14.400  0.1460 -0.1379 -0.2982
 2008PEP     CB76633  -2.889   8.265  14.216 -0.3473 -0.2215  0.1135
 2008PEP     CB76634  -2.873   8.199  13.747 -0.3021  0.0028 -0.1177
 2008PEP     CB76635  -2.930   8.060  13.349  0.0908 -0.3885  0.0402
 2008PEP     CB76636  -2.981   8.073  12.885 -0.1986 -0.4355 -0.1795
 2008PEP     CB76637  -2.854   8.429  12.671  0.0129  0.1001 -0.1646
 2008PEP     CB76638  -2.532   8.640  12.536 -0.3414 -0.5215  0.1940
 2008PEP     CB76639  -2.493   8.947  12.374 -0.3265  0.4509  0.4184
 2008PEP     CB76640  -2.279   9.323  12.410  0.0074  0.1427  0.1807
 2009PEP     CB76641  13.666   2.439  19.076  0.0592  0.2306  0.2675
 2009PEP     CB76642  13.885   2.177  18.895 -0.2976  0.1381 -0.2154
 2009PEP     CB76643  13.948   1.806  18.610  0.2462  0.0050 -0.0484
 2009PEP     CB76644  14.157   1.848  18.200 -0.1714  0.0794 -0.0582
 2009PEP     CB76645  14.497   2.137  18.035 -0.0937  0.3737 -0.2311
 2009PEP     CB76646  14.516   2.538  18.137 -0.0141  0.0040 -0.1871
 2009PEP     CB76647  14.366   2.873  18.324  0.6295  0.3556 -0.1482
 2009PEP     CB76648  14.247   3.235  18.096 -0.0480 -0.0288  0.4187
 2009PEP     CB76649  13.982   3.195  17.712 -0.0679  0.1073 -0.0079
 2009PEP     CB76650  13.880   2.948  17.374  0.1583 -0.3310 -0.0084
 2009PEP     CB76651  13.802   2.621  17.072 -0.3139  0.0533  0.2912
 2009PEP     CB76652  13.891   2.150  17.068 -0.0102  0.2919 -0.0682
 2009PEP     CB76653  13.815   1.757  17.449  0.4628 -0.1403  0.1310
 2009PEP     CB76654  13.475   1.420  17.553  0.3948  0.2294  0.1726
 2009PEP     CB76655  13.148   1.173  17.727  0.2769  0.0619 -0.0702
 2009PEP     CB76656  13.094   0.978  18.074 -0.1922 -0.0003  0.3030
 2009PEP     CB76657  13.306   1.104  18.485 -0.0558 -0.0533 -0.0238
 2009PEP     CB76658  13.597   1.416  18.523  0.1788 -0.1023  0.0225
 2009PEP     CB76659  13.629   1.825  18.223  0.3425  0.3999 -0.1496
 2009PEP     CB76660  13.491   1.938  17.863  0.0327  0.0187 -0.2100
 2009PEP     CB76661  13.428   2.164  17.480  0.1069 -0.4708  0.2653
 2009PEP     CB76662  13.363   2.509  17.318  0.1437 -0.1627 -0.0227
 2009PEP     CB76663  13.011   2.749  17.379 -0.0161 -0.1660 -0.1407
 2009PEP     CB76664  12.781   2.974  17.679  0.3615  0.4600 -0.3471
 2009PEP     CB76665  12.374   2.908  17.869 -0.2078  0.2297 -0.1426
 2009PEP     CB76666  11.991   3.166  17.807 -0.1098 -0.1205 -0.2325
 2009PEP     CB76667  11.894   3.558  17.956 -0.1258 -0.2117  0.2026
 2009PEP     CB76668  11.922   4.000  17.829  0.2714 -0.1103  0.4302
 2009PEP     CB76669  12.092   4.066  17.480  0.3587 -0.5989  0.0660
 2009PEP     CB76670  12.106   4.325  17.058 -0.0264  0.1436 -0.1312
 2009PEP     CB76671  11.931   4.514  16.600 -0.2638 -0.1050 -0.1611
 2009PEP     CB76672  11.830   4.778  16.276  0.1231  0.0083 -0.3229
 2009PEP     CB76673  11.693   5.063  15.906  0.1367 -0.1757  0.0299
 2009PEP     CB76674  11.757   5.398  15.587 -0.3126 -0.0305 -0.0909
 2009PEP     CB76675  11.961   5.737  15.616 -0.1136  0.1465  0.1004
 2009PEP     CB76676  12.297   6.057  15.708 -0.4807 -0.2543 -0.2122
 2009PEP     CB76677  12.481   6.371  15.828  0.3401 -0.1492  0.0580
 2009PEP     CB76678  12.822   6.669  15.940  0.1336  0.0780  0.0653
 2009PEP     CB76679  12.901   6.912  16.349  0.5430 -0.0509  0.1096
 2009PEP     CB76680  12.735   7.039  16.801 -0.0757 -0.0384  0.1169
 2010PEP     CB76681  13.615   0.265   2.834 -0.0622  0.0860  0.2080
 2010PEP     CB76682  13.610   0.645   2.830  0.1719 -0.3834 -0.0186
 2010PEP     CB76683  13.789   1.095   2.795  0.2536 -0.1895  0.3415
 2010PEP     CB76684  14.121   1.433   2.845  0.4945  0.1013  0.1980
 2010PEP     CB76685  14.143   1.794   3.048  0.1292 -0.0219  0.0424
 2010PEP     CB76686  14.369   2.206   3.092 -0.0435 -0.1077  0.2471
 2010PEP     CB76687  14.362   2.597   2.930 -0.1737  0.2031  0.0572
 2010PEP     CB76688  14.460   2.621   2.550  0.1247 -0.1489 -0.0632
 2010PEP     CB76689  14.858   2.640   2.237  0.2636  0.1961  0.1845
 2010PEP     CB76690  15.190   2.759   2.043  0.1047  0.1030 -0.0230
 2010PEP     CB76691  15.573   2.682   1.988  0.0176 -0.0781 -0.0999
 2010PEP     CB76692  15.951   2.409   1.946  0.3113  0.3022 -0.3326
 2010PEP     CB76693  16.197   2.144   2.276  0.0662 -0.0326 -0.3507
 2010PEP     CB76694  16.320   1.998   2.589 -0.1889  0.1267 -0.5253
 2010PEP     CB76695  16.618   1.700   2.576 -0.1718  0.3189 -0.0655
 2010PEP     CB76696  16.853   1.435   2.338  0.3677  0.3685  0.0170
 2010PEP     CB76697  16.976   1.340   1.864 -0.1182 -0.0903 -0.0347
 2010PEP     CB76698  17.276   1.428   1.721 -0.0354 -0.1036 -0.3444
 2010PEP     CB76699  17.557   1.824   1.844 -0.2613 -0.0822  0.2035
 2010PEP     CB76700  17.395   2.173   1.913  0.2530  0.2667  0.1775
 2010PEP     CB76701  17.509   2.594   1.772  0.1928  0.1773 -0.0098
 2010PEP     CB76702  17.896   2.817   1.792  0.2239  0.0648  0.0526
 2010PEP     CB76703  18.160   3.181   1.950 -0.2649 -0.0154 -0.0657
 2010PEP     CB76704  18.421   3.327   2.292  0.1840  0.1232  0.2353
 2010PEP     CB76705  18.436   3.380   2.812  0.7709 -0.2441 -0.3547
 2010PEP     CB76706  18.226   3.467   3.162 -0.3839  0.1324 -0.1725
 2010PEP     CB76707  18.202   3.415   3.629  0.3788  0.5714 -0.4261
 2010PEP     CB76708  18.504   3.112   3.861  0.0271 -0.3359 -0.0583
 2010PEP     CB76709  18.937   3.061   3.664 -0.0464  0.0716 -0.1776
 2010PEP     CB76710  18.968   3.155   3.252 -0.0831 -0.1364  0.2611
 2010PEP     CB76711  18.728   3.509   3.203  0.3288  0.0858  0.1336
 2010PEP     CB76712  18.612   3.843   3.370  0.1285  0.1758 -0.0725
 2010PEP     CB76713  18.311   4.058   3.334  0.2903 -0.1700 -0.5699
 2010PEP     CB76714  18.235   4.484   3.096 -0.4828 -0.0823  0.1983
 2010PEP     CB76715  18.613   4.630   2.717  0.3340  0.2363 -0.3073
 2010PEP     CB76716  19.014   4.569   2.923  0.1313  0.0440 -0.0681
 2010PEP     CB76717  19.197   4.310   3.252 -0.1727 -0.2501 -0.1461
 2010PEP     CB76718  19.095   3.877   3.557 -0.1670 -0.3977 -0.2952
 2010PEP     CB76719  18.763   3.629   3.756 -0.1837 -0.2741  0.1804
 2010PEP     CB76720  18.380   3.746   3.896 -0.0660 -0.2242 -0.0093
 2011PEP     CB76721  12.407   0.888   1.570 -0.1204 -0.0469  0.1865
 2011PEP     CB76722  12.387   1.211   1.877 -0.4586  0.0344  0.2978
 2011PEP     CB76723  12.147   1.634   2.037  0.1060 -0.2564  0.2021
 2011PEP     CB76724  11.892   1.819   2.327  0.1137  0.1780  0.1034
 2011PEP     CB76725  11.937   1.689   2.782  0.2269 -0.4675  0.2280
 2011PEP     CB76726  12.304   1.317   2.936 -0.2213 -0.0965  0.1141
 2011PEP     CB76727  12.683   1.226   3.091  0.1962  0.0267 -0.1242
 2011PEP     CB76728  12.961   1.065   3.520 -0.1431 -0.2401  0.0801
 2011PEP     CB76729  12.771   1.043   3.917  0.0467 -0.0183  0.1832
 2011PEP     CB76730  12.549   1.171   4.225  0.0079  0.0248 -0.3525
 2011PEP     CB76731  12.029   1.272   4.294 -0.3795  0.0932 -0.2126
 2011PEP     CB76732  11.659   1.288   3.987 -0.2031 -0.0477 -0.1975
 2011PEP     CB76733  11.380   1.621   3.903 -0.2895  0.4289  0.1583
 2011PEP     CB76734  11.369   2.058   4.181  0.0177  0.1266 -0.1932
 2011PEP     CB76735  11.555   2.373   4.422  0.0753 -0.2078 -0.3448
 2011PEP     CB76736  11.697   2.642   4.736  0.1442  0.0242  0.2430
 2011PEP     CB76737  11.641   2.865   5.090 -0.0794  0.0552 -0.0915
 2011PEP     CB76738  11.720   3.182   5.394 -0.0953 -0.1122  0.1864
 2011PEP     CB76739  11.650   3.626   5.269  0.3869 -0.1335  0.0311
 2011PEP     CB76740  11.282   3.684   4.996 -0.3322 -0.3042  0.1830
 2011PEP     CB76741  11.023   3.538   4.834  0.0444  0.1766  0.2013
 2011PEP     CB76742  10.540   3.465   4.864 -0.1857 -0.0591 -0.1031
 2011PEP     CB76743  10.212   3.374   5.079  0.0148  0.0495  0.2365
 2011PEP     CB76744   9.840   3.270   5.287 -0.0778 -0.3104  0.0360
 2011PEP     CB76745   9.502   3.202   5.640  0.2533  0.0643 -0.2168
 2011PEP     CB76746   9.263   2.871   5.835  0.1162 -0.1398 -0.1510
 2011PEP     CB76747   9.387   2.546   6.040 -0.3445  0.1652 -0.1023
 2011PEP     CB76748   9.743   2.297   6.094 -0.4568  0.1692  0.2282
 2011PEP     CB76749  10.140   2.227   5.904 -0.3329  0.3194 -0.0902
 2011PEP     CB76750  10.557   2.376   5.712 -0.0297 -0.0437  0.4676
 2011PEP     CB76751  10.873   2.696   5.664 -0.2267 -0.2325  0.0191
 2011PEP     CB76752  10.810   2.985   5.893  0.2414 -0.1634  0.1501
 2011PEP     CB76753  10.631   3.096   6.263 -0.0272  0.7879  0.0698
 2011PEP     CB76754  10.467   2.969   6.668  0.4427  0.1402  0.1364
 2011PEP     CB76755  10.003   3.022   6.839  0.0149 -0.0195  0.2517
 2011PEP     CB76756   9.735   3.330   6.700 -0.1789 -0.2155  0.1528
 2011PEP     CB76757   9.710   3.452   6.203  0.3101 -0.3424 -0.1873
 2011PEP     CB76758   9.724   3.747   5.859 -0.1282  0.0100 -0.0462
 2011PEP     CB76759   9.844   4.036   5.527  0.4611  0.1793 -0.5635
 2011PEP     CB76760   9.706   4.230   5.161  0.1874  0.1275  0.2123
 2012PEP     CB76761   9.998  16.258   7.350 -0.1453  0.2886 -0.2264
 2012PEP     CB76762   9.678  15.920   7.310  0.2138 -0.2196  0.0040
 2012PEP     CB76763   9.664  15.617   7.084  0.0866  0.5415  0.1659
 2012PEP     CB76764   9.604  15.289   6.961  0.1440  0.3323 -0.2294
 2012PEP     CB76765   9.447  15.000   6.600 -0.0608 -0.1501 -0.0701
 2012PEP     CB76766   9.683  14.996   6.189  0.2187  0.2233 -0.0503
 2012PEP     CB76767   9.917  15.248   6.036  0.0824 -0.0722 -0.0247
 2012PEP     CB76768  10.178  15.486   5.715  0.2608 -0.2497  0.5199
 2012PEP     CB76769  10.231  15.970   5.479 -0.3826  0.0365  0.4027
 2012PEP     CB76770  10.380  16.213   5.095 -0.3000 -0.2595 -0.1001
 2012PEP     CB76771  10.166  16.398   4.747  0.0109 -0.1997 -0.0211
 2012PEP     CB76772   9.853  16.694   4.622  0.0754  0.2595  0.4738
 2012PEP     CB76773   9.800  17.037   4.349  0.0184  0.2165 -0.1330
 2012PEP     CB76774   9.741  17.385   4.095 -0.4565  0.0939  0.1355
 2012PEP     CB76775   9.544  17.680   3.793 -0.0157  0.2777 -0.2858
 2012PEP     CB76776   9.691  17.824   3.460  0.1377 -0.1007  0.1507
 2012PEP     CB76777  10.027  17.685   3.235  0.0330  0.1777  0.2084
 2012PEP     CB76778  10.266  17.827   2.900  0.0174 -0.3350  0.2688
 2012PEP     CB76779  10.674  17.675   2.903 -0.1793  0.1079  0.4163
 2012PEP     CB76780  10.917  17.581   3.223 -0.1281 -0.2624  0.3000
 2012PEP     CB76781  10.871  17.752   3.619  0.3062 -0.0903 -0.3110
 2012PEP     CB76782  10.539  17.723   3.974 -0.2489  0.3508 -0.0513
 2012PEP     CB76783  10.161  17.629   4.292 -0.1081  0.4377  0.2474
 2012PEP     CB76784   9.855  17.553   4.617 -0.0512  0.1832 -0.3320
 2012PEP     CB76785   9.460  17.314   4.793  0.2640  0.0646  0.1611
 2012PEP     CB76786   9.482  16.895   4.909  0.2905  0.0892 -0.3179
 2012PEP     CB76787   9.453  16.504   5.210  0.2433 -0.3236  0.5210
 2012PEP     CB76788   9.269  16.332   5.629  0.3450  0.0781  0.1195
 2012PEP     CB76789   9.422  16.105   5.950  0.0551  0.5370  0.1065
 2012PEP     CB76790   9.675  16.035   6.383 -0.1307 -0.1422 -0.0676
 2012PEP     CB76791   9.845  15.891   6.751 -0.4749  0.3827 -0.0346
 2012PEP     CB76792  10.183  15.877   7.004  0.1254  0.2175 -0.0099
 2012PEP     CB76793  10.455  16.083   7.312 -0.0193 -0.1054 -0.2158
 2012PEP     CB76794  10.364  16.079   7.743 -0.0779  0.0771 -0.0319
 2012PEP     CB76795  10.412  15.627   7.952 -0.2326  0.0400 -0.2122
 2012PEP     CB76796  10.309  15.211   7.938  0.1458  0.1444  0.0313
 2012PEP     CB76797  10.031  14.934   7.639 -0.0049 -0.3392 -0.0501
 2012PEP     CB76798   9.619  14.886   7.446 -0.0570 -0.7133 -0.1214
 2012PEP     CB76799   9.254  14.587   7.435  0.0085 -0.3491  0.2379
 2012PEP     CB76800   9.127  14.181   7.715  0.2333 -0.0854  0.0614
 2013PEP     CB76801   1.622   0.266   9.370  0.0365  0.0303  0.4044
 2013PEP     CB76802   1.459  -0.031   9.581  0.1258 -0.2692 -0.1684
 2013PEP     CB76803   1.127  -0.309   9.436 -0.1460  0.2124  0.3095
 2013PEP     CB76804   0.882  -0.458   9.030 -0.5974 -0.0758 -0.2853
 2013PEP     CB76805   0.697  -0.636   8.707  0.4309  0.3560 -0.1353
 2013PEP     CB76806   0.476  -0.734   8.372  0.1998 -0.0587 -0.3873
 2013PEP     CB76807   0.281  -0.576   8.024  0.3273 -0.1363  0.2901
 2013PEP     CB76808   0.348  -0.214   7.861  0.0294 -0.4791  0.0237
 2013PEP     CB76809   0.752  -0.008   7.796  0.1958 -0.2228 -0.1188
 2013PEP     CB76810   1.172   0.026   7.599  0.2010 -0.0691  0.2235
 2013PEP     CB76811   1.626  -0.066   7.670 -0.0579  0.0203 -0.0890
 2013PEP     CB76812   1.775  -0.290   8.012 -0.1375  0.0577 -0.1304
 2013PEP     CB76813   1.832  -0.513   8.366  0.0921 -0.2613  0.1420
 2013PEP     CB76814   1.734  -0.845   8.542 -0.0323  0.1804  0.1106
 2013PEP     CB76815   1.535  -1.233   8.754 -0.2301 -0.3338  0.1818
 2013PEP     CB76816   1.737  -1.659   8.830  0.0160  0.0422  0.2461
 2013PEP     CB76817   2.076  -1.821   8.638 -0.0683  0.0377  0.3425
 2013PEP     CB76818   2.259  -1.790   8.199  0.3658  0.1830 -0.2009
 2013PEP     CB76819   2.645  -1.687   7.842 -0.0870 -0.0234 -0.1029
 2013PEP     CB76820   2.572  -1.503   7.471  0.2586 -0.2438  0.1723
 2013PEP     CB76821   2.199  -1.634   7.328  0.1703  0.0647 -0.0218
 2013PEP     CB76822   1.816  -1.745   7.579  0.3373 -0.0515  0.0596
 2013PEP     CB76823   1.794  -1.814   8.014  0.4294 -0.1308  0.2064
 2013PEP     CB76824   1.852  -1.485   8.329 -0.1484 -0.0643 -0.0259
 2013PEP     CB76825   1.839  -1.032   8.051  0.2879 -0.2432  0.1869
 2013PEP     CB76826   1.610  -1.116   7.692  0.2919  0.5282  0.2221
 2013PEP     CB76827   1.273  -1.405   7.735 -0.1286  0.0895 -0.2807
 2013PEP     CB76828   1.260  -1.877   7.822  0.3141  0.1830  0.2033
 2013PEP     CB76829   1.460  -2.225   7.857  0.1138  0.2448 -0.1230
 2013PEP     CB76830   1.956  -2.243   7.919 -0.0709 -0.4790 -0.2608
 2013PEP     CB76831   2.227  -1.942   7.726  0.0906 -0.2168 -0.0823
 2013PEP     CB76832   2.226  -1.460   7.852 -0.3094 -0.0827 -0.1474
 2013PEP     CB76833   2.322  -1.244   8.267  0.0247 -0.0138  0.2879
 2013PEP     CB76834   2.107  -1.166   8.737  0.3620  0.0180  0.2915
 2013PEP     CB76835   1.955  -0.891   9.030 -0.2443  0.1017 -0.1439
 2013PEP     CB76836   1.754  -0.859   9.498 -0.2513 -0.0278 -0.1778
 2013PEP     CB76837   1.451  -1.136   9.706  0.0601 -0.0788 -0.1776
 2013PEP     CB76838   1.221  -1.399   9.918  0.2211 -0.2121 -0.0521
 2013PEP     CB76839   0.886  -1.389  10.064 -0.0877 -0.2130  0.2059
 2013PEP     CB76840   0.564  -1.149  10.054 -0.0280 -0.0786  0.2343
 2014PEP     CB76841   3.542   7.632   2.997 -0.2190  0.1811 -0.2830
 2014PEP     CB76842   3.944   7.540   2.853  0.2714 -0.2522  0.3317
 2014PEP     CB76843   4.353   7.531   2.618 -0.0829 -0.0711 -0.1033
 2014PEP     CB76844   4.603   7.597   2.246  0.1156  0.3551 -0.3048
 2014PEP     CB76845   4.919   7.467   2.048 -0.1165  0.2275 -0.4053
 2014PEP     CB76846   5.314   7.294   1.956 -0.1075 -0.3162 -0.1314
 2014PEP     CB76847   5.578   7.010   1.713 -0.0026 -0.3011  0.0195
 2014PEP     CB76848   5.691   6.841   1.327 -0.2425  0.1480 -0.3189
 2014PEP     CB76849   5.974   6.821   1.036  0.4467  0.2357 -0.4361
 2014PEP     CB76850   6.161   7.259   0.863  0.1479  0.3824 -0.0903
 2014PEP     CB76851   6.342   7.634   1.113 -0.0554  0.2931 -0.4042
 2014PEP     CB76852   6.253   7.893   1.483 -0.1374 -0.1878  0.0633
 2014PEP     CB76853   6.391   8.295   1.571 -0.1419  0.2147  0.1921
 2014PEP     CB76854   6.836   8.440   1.695  0.2150  0.2550  0.0799
 2014PEP     CB76855   7.121   8.087   1.747  0.1884 -0.2365 -0.2186
 2014PEP     CB76856   7.066   7.639   1.786 -0.0041  0.4793 -0.0001
 2014PEP     CB76857   6.981   7.223   1.627 -0.1623  0.2977 -0.5027
 2014PEP     CB76858   7.127   6.826   1.764 -0.1086  0.0587  0.2233
 2014PEP     CB76859   7.554   6.705   1.922 -0.1696 -0.0310  0.1388
 2014PEP     CB76860   8.012   6.822   1.688 -0.1956 -0.0134 -0.1110
 2014PEP     CB76861   7.992   6.911   1.270 -0.1217 -0.2835  0.1608
 2014PEP     CB76862   7.806   6.672   0.923  0.0250 -0.1475 -0.2525
 2014PEP     CB76863   7.433   6.748   0.735 -0.0192 -0.3630  0.3231
 2014PEP     CB76864   7.195   7.144   0.857  0.1097 -0.0680  0.4876
 2014PEP     CB76865   7.218   7.546   1.293  0.4001  0.0161 -0.4906
 2014PEP     CB76866   7.477   7.850   1.537 -0.1875 -0.0110  0.1770
 2014PEP     CB76867   7.678   8.210   1.833  0.2341  0.1003 -0.2432
 2014PEP     CB76868   7.955   8.556   1.648  0.1668 -0.0445  0.3601
 2014PEP     CB76869   8.331   8.503   1.375  0.2397 -0.4818  0.0839
 2014PEP     CB76870   8.759   8.342   1.420  0.1678  0.2262 -0.0842
 2014PEP     CB76871   9.010   8.287   1.795  0.1250  0.2565 -0.1343
 2014PEP     CB76872   8.968   8.155   2.166  0.0902 -0.2028  0.1278
 2014PEP     CB76873   8.683   8.192   2.525  0.3302  0.1248 -0.2182
 2014PEP     CB76874   8.233   8.366   2.544 -0.3373  0.0214  0.0828
 2014PEP     CB76875   7.834   8.273   2.447 -0.0215  0.1604 -0.0767
 2014PEP     CB76876   7.517   7.925   2.588 -0.1574  0.2564 -0.0923
 2014PEP     CB76877   7.155   7.684   2.678 -0.4460  0.0562 -0.0843
 2014PEP     CB76878   6.770   7.429   2.682  0.2504 -0.2126 -0.2833
 2014PEP     CB76879   6.409   7.260   2.912 -0.2795  0.2455  0.3356
 2014PEP     CB76880   6.308   6.830   3.154 -0.3810 -0.4563 -0.1828
 2015PEP     CB76881  18.209  19.673  15.011  0.1554  0.0796  0.0641
 2015PEP     CB76882  18.091  20.185  14.968  0.1397  0.1070 -0.0655
 2015PEP     CB76883  17.969  20.654  14.869 -0.2900  0.3096  0.5364
 2015PEP     CB76884  17.808  21.076  14.806 -0.0090  0.1009  0.1700
 2015PEP     CB76885  17.760  21.514  14.618 -0.4623 -0.4108  0.0816
 2015PEP     CB76886  17.629  21.657  14.241  0.4004 -0.4455 -0.1713
 2015PEP     CB76887  17.316  21.905  14.092 -0.1584 -0.1620  0.0252
 2015PEP     CB76888  16.900  21.811  13.885 -0.1625 -0.2890  0.1545
 2015PEP     CB76889  16.565  21.981  13.583 -0.2466  0.1063 -0.3770
 2015PEP     CB76890  16.545  22.363  13.509 -0.0364 -0.1517 -0.1047
 2015PEP     CB76891  16.728  22.613  13.709 -0.1431  0.0748  0.1640
 2015PEP     CB76892  16.663  22.830  14.125  0.0754 -0.0349 -0.3471
 2015PEP     CB76893  17.000  22.829  14.488  0.1056 -0.3765  0.2523
 2015PEP     CB76894  17.427  23.023  14.463  0.1623 -0.2216  0.0966
 2015PEP     CB76895  17.734  23.291  14.181 -0.1918 -0.3367  0.1061
 2015PEP     CB76896  17.977  23.386  13.852  0.4921  0.0149  0.2051
 2015PEP     CB76897  18.002  23.711  13.515  0.5111 -0.1795  0.3367
 2015PEP     CB76898  17.984  24.095  13.233 -0.1778  0.0164 -0.1400
 2015PEP     CB76899  18.039  24.408  12.935  0.0511  0.3708  0.1921
 2015PEP     CB76900  18.363  24.373  12.594  0.4733 -0.0012  0.1173
 2015PEP     CB76901  18.442  24.052  12.388  0.2706  0.0103 -0.0180
 2015PEP     CB76902  18.511  23.766  12.063 -0.1950 -0.1749  0.0633
 2015PEP     CB76903  18.465  23.471  11.692 -0.3021 -0.2463 -0.3687
 2015PEP     CB76904  18.500  23.239  11.333 -0.2848 -0.0920  0.1734
 2015PEP     CB76905  18.169  22.970  11.060  0.1163 -0.1470  0.0560
 2015PEP     CB76906  17.810  22.991  10.802 -0.0674  0.2048 -0.2560
 2015PEP     CB76907  17.481  23.309  10.795 -0.0515 -0.1325 -0.1573
 2015PEP     CB76908  17.442  23.710  10.834  0.0935  0.1952 -0.4080
 2015PEP     CB76909  17.511  24.096  11.067  0.1680 -0.1653 -0.3167
 2015PEP     CB76910  17.592  24.538  11.088  0.3173  0.4289 -0.4633
 2015PEP     CB76911  17.905  24.710  10.908 -0.5241 -0.3303  0.1552
 2015PEP     CB76912  18.414  24.575  10.830 -0.1558  0.0765  0.3682
 2015PEP     CB76913  18.863  24.816  11.004 -0.2637  0.2039  0.1862
 2015PEP     CB76914  19.273  24.802  11.275  0.0915  0.3088 -0.3122
 2015PEP     CB76915  19.595  24.868  11.493 -0.2629 -0.0625 -0.0009
 2015PEP     CB76916  19.693  25.209  11.596 -0.1601  0.1364  0.2048
 2015PEP     CB76917  19.456  25.634  11.498  0.1377  0.1007  0.0090
 2015PEP     CB76918  19.150  25.880  11.680  0.1452  0.0584  0.0757
 2015PEP     CB76919  19.002  26.196  11.723  0.0582 -0.0530 -0.6339
 2015PEP     CB76920  18.674  26.443  11.609  0.2519 -0.2098 -0.2272
 2016PEP     CB76921   8.516   7.564  19.583  0.2819  0.2649  0.1576
 2016PEP     CB76922   8.310   7.520  19.191  0.1061 -0.4755  0.1265
 2016PEP     CB76923   8.051   7.223  18.906 -0.0527 -0.0853  0.0203
 2016PEP     CB76924   7.695   7.193  18.677 -0.1199 -0.0672  0.1399
 2016PEP     CB76925   7.388   7.436  18.474 -0.1007 -0.0167  0.0717
 2016PEP     CB76926   7.106   7.633  18.099 -0.0898 -0.1069  0.1699
 2016PEP     CB76927   6.724   7.792  18.036 -0.0927 -0.0781 -0.0779
 2016PEP     CB76928   6.441   8.092  17.964 -0.3303  0.0251 -0.0067
 2016PEP     CB76929   6.432   8.479  17.889 -0.4864 -0.0564  0.1807
 2016PEP     CB76930   6.462   8.849  18.142 -0.0730  0.0973  0.0940
 2016PEP     CB76931   6.509   9.376  18.225  0.2692  0.3878  0.2490
 2016PEP     CB76932   6.817   9.671  18.322  0.2884 -0.0855  0.3274
 2016PEP     CB76933   6.863  10.101  18.545 -0.3384 -0.3234 -0.1735
 2016PEP     CB76934   6.771  10.424  18.737  0.0620  0.4079 -0.1197
 2016PEP     CB76935   6.936  10.744  18.990  0.1739  0.1668 -0.2544
 2016PEP     CB76936   7.162  10.788  19.366 -0.1848  0.0436 -0.1887
 2016PEP     CB76937   7.587  10.794  19.468 -0.1672 -0.0954 -0.2113
 2016PEP     CB76938   7.962  10.975  19.362 -0.0081  0.0169  0.0140
 2016PEP     CB76939   8.305  10.773  19.255  0.0660 -0.1861 -0.1863
 2016PEP     CB76940   8.691  10.746  19.086  0.3178 -0.1020  0.4339
 2016PEP     CB76941   9.077  10.515  18.820 -0.4755  0.6640  0.0295
 2016PEP     CB76942   9.350  10.228  18.645  0.2415  0.1350 -0.0686
 2016PEP     CB76943   9.657   9.992  18.460 -0.1225 -0.0016 -0.3249
 2016PEP     CB76944   9.817   9.602  18.413  0.0201 -0.2248  0.2073
 2016PEP     CB76945   9.748   9.154  18.481 -0.2554 -0.2425 -0.1376
 2016PEP     CB76946   9.812   8.858  18.685  0.0466  0.0787  0.1772
 2016PEP     CB76947  10.164   8.570  19.007  0.2336  0.2146  0.0457
 2016PEP     CB76948  10.188   8.532  19.429 -0.2173 -0.0706 -0.0665
 2016PEP     CB76949  10.128   8.851  19.797  0.0889  0.3806 -0.4444
 2016PEP     CB76950   9.940   9.225  19.729  0.1534 -0.3078  0.1785
 2016PEP     CB76951   9.549   9.374  19.500 -0.0815  0.2430  0.0168
 2016PEP     CB76952   9.425   9.616  19.239  0.0671 -0.1885 -0.2479
 2016PEP     CB76953   9.601   9.915  18.968  0.0670  0.0127  0.2034
 2016PEP     CB76954   9.687  10.399  18.917  0.0100 -0.2743 -0.1197
 2016PEP     CB76955   9.528  10.723  19.061  0.0420 -0.4126 -0.3194
 2016PEP     CB76956   9.256  10.951  19.311  0.1597 -0.0375 -0.3805
 2016PEP     CB76957   8.869  11.002  19.530  0.1486 -0.1499  0.3244
 2016PEP     CB76958   8.423  10.957  19.645 -0.4199  0.1781  0.4483
 2016PEP     CB76959   8.098  10.661  19.711  0.0685 -0.1320 -0.0167
 2016PEP     CB76960   8.063  10.299  19.722  0.2063  0.1249 -0.4287
 2017PEP     CB76961   1.620  21.364  20.921 -0.0355 -0.1421 -0.2845
 2017PEP     CB76962   1.693  21.687  20.614  0.2162 -0.4413  0.1137
 2017PEP     CB76963   1.435  21.942  20.298  0.1761  0.1600  0.0448
 2017PEP     CB76964   1.138  22.199  20.202  0.1759 -0.2039 -0.1933
 2017PEP     CB76965   0.782  22.448  20.209 -0.0435  0.1590  0.2064
 2017PEP     CB76966   0.440  22.816  20.126  0.1517 -0.1207  0.3241
 2017PEP     CB76967   0.170  23.202  19.995  0.2115 -0.0666  0.1172
 2017PEP     CB76968  -0.208  23.435  20.140  0.1098 -0.1423 -0.0893
 2017PEP     CB76969  -0.315  23.429  20.567  0.1264  0.0234  0.4980
 2017PEP     CB76970  -0.036  23.246  20.814 -0.2996 -0.0482 -0.0932
 2017PEP     CB76971   0.157  22.854  20.671 -0.4575 -0.0762  0.0498
 2017PEP     CB76972   0.456  22.633  20.777  0.2788 -0.0640 -0.4022
 2017PEP     CB76973   0.785  22.621  21.067 -0.3497 -0.1644  0.4728
 2017PEP     CB76974   1.222  22.544  21.138  0.1023 -0.4144 -0.0556
 2017PEP     CB76975   1.521  22.219  21.301 -0.3405  0.2142 -0.0111
 2017PEP     CB76976   1.592  22.096  21.744  0.0596 -0.0237 -0.2371
 2017PEP     CB76977   1.846  22.332  22.154  0.1219 -0.2736  0.1347
 2017PEP     CB76978   1.976  22.739  22.189  0.2507 -0.1119  0.4084
 2017PEP     CB76979   1.792  23.119  21.967  0.2384  0.0310  0.0214
 2017PEP     CB76980   1.406  23.180  21.603 -0.1200  0.3002 -0.4983
 2017PEP     CB76981   1.502  22.908  21.327  0.0880 -0.1160 -0.2026
 2017PEP     CB76982   2.035  22.770  21.254  0.1155  0.1978  0.0348
 2017PEP     CB76983   2.363  22.798  21.606  0.2852  0.2031 -0.2353
 2017PEP     CB76984   2.442  23.109  21.788  0.1082  0.2070 -0.1149
 2017PEP     CB76985   2.315  23.559  21.711  0.0982  0.1791 -0.3672
 2017PEP     CB76986   2.265  23.740  21.281 -0.5863 -0.0114 -0.0465
 2017PEP     CB76987   2.245  23.407  20.980 -0.1360  0.3017 -0.0550
 2017PEP     CB76988   1.819  23.264  20.926 -0.0006  0.1048  0.0578
 2017PEP     CB76989   1.463  23.409  21.101  0.1990  0.2338  0.2297
 2017PEP     CB76990   1.426  23.869  21.110 -0.1417 -0.0871 -0.1826
 2017PEP     CB76991   1.891  24.045  20.939  0.4650 -0.0686 -0.0189
 2017PEP     CB76992   2.205  24.295  21.192 -0.0641 -0.1298 -0.1043
 2017PEP     CB76993   2.108  24.524  21.557 -0.0687  0.1504  0.1191
 2017PEP     CB76994   2.186  24.866  21.861  0.3076 -0.0371  0.0446
 2017PEP     CB76995   2.273  25.190  22.227 -0.5147  0.0907  0.2816
 2017PEP     CB76996   2.394  25.459  22.585 -0.4228  0.3206 -0.0693
 2017PEP     CB76997   2.470  25.664  22.953  0.1694 -0.0614 -0.1749
 2017PEP     CB76998   2.426  26.061  23.047  0.4338 -0.0718  0.1651
 2017PEP     CB76999   2.583  26.470  23.262  0.4105 -0.2012 -0.1814
 2017PEP     CB77000   2.653  26.912  23.319 -0.2109  0.1782  0.1162
 2018PEP     CB77001  15.266  10.449  15.020 -0.3698 -0.1603  0.2054
 2018PEP     CB77002  15.721  10.398  14.959  0.3335 -0.4709  0.0209
 2018PEP     CB77003  16.017  10.362  14.595 -0.3519  0.0808  0.3508
 2018PEP     CB77004  16.261  10.225  14.212 -0.6403 -0.0096 -0.1533
 2018PEP     CB77005  16.669   9.946  14.159 -0.2753 -0.0002 -0.0944
 2018PEP     CB77006  17.055   9.730  14.192 -0.1578 -0.2294  0.2308
 2018PEP     CB77007  17.455   9.897  14.328 -0.0734  0.0637 -0.3550
 2018PEP     CB77008  17.768  10.244  14.292  0.0129  0.0428  0.2858
 2018PEP     CB77009  18.133  10.494  14.242  0.0802 -0.2075  0.5191
 2018PEP     CB77010  18.601  10.563  14.252 -0.0081  0.2631 -0.2159
 2018PEP     CB77011  18.932  10.706  13.993  0.1905 -0.1879 -0.0735
 2018PEP     CB77012  19.262  10.720  13.674 -0.2714 -0.1144 -0.1245
 2018PEP     CB77013  19.444  11.073  13.363 -0.1522  0.4655  0.3393
 2018PEP     CB77014  19.646  11.293  13.578 -0.0170  0.2872  0.1430
 2018PEP     CB77015  19.845  11.348  14.030  0.3229  0.0746 -0.1542
 2018PEP     CB77016  19.752  11.513  14.442 -0.0771  0.1952 -0.1141
 2018PEP     CB77017  19.481  11.395  14.832  0.0412 -0.0401  0.0648
 2018PEP     CB77018  19.156  11.086  14.963 -0.5562  0.1415  0.3338
 2018PEP     CB77019  19.009  10.836  15.296  0.2095  0.0182 -0.2075
 2018PEP     CB77020  18.983  10.534  15.554 -0.4445  0.1199 -0.0115
 2018PEP     CB77021  18.896  10.046  15.677  0.0183  0.0336 -0.5568
 2018PEP     CB77022  18.617   9.816  15.593 -0.2508 -0.2759  0.1256
 2018PEP     CB77023  18.254   9.743  15.793 -0.2814  0.1916 -0.3453
 2018PEP     CB77024  18.015  10.045  16.092 -0.2762  0.0292  0.1956
 2018PEP     CB77025  17.563  10.195  16.049 -0.1819  0.1468 -0.2097
 2018PEP     CB77026  17.446  10.224  15.636 -0.2122  0.5112  0.1113
 2018PEP     CB77027  17.656  10.431  15.250 -0.2783 -0.0153 -0.2295
 2018PEP     CB77028  18.062  10.649  15.242 -0.0561  0.3228  0.1508
 2018PEP     CB77029  18.489  10.629  15.178 -0.0945 -0.1276  0.0188
 2018PEP     CB77030  18.908  10.515  14.968  0.2962 -0.0277  0.2121
 2018PEP     CB77031  19.349  10.566  14.892  0.1842 -0.1469 -0.0695
 2018PEP     CB77032  19.673  10.392  15.044 -0.0114  0.0316 -0.3802
 2018PEP     CB77033  20.058  10.179  14.900 -0.0624  0.0020 -0.1039
 2018PEP     CB77034  20.465  10.224  14.577  0.0183  0.1449 -0.2113
 2018PEP     CB77035  20.864  10.234  14.226 -0.1226  0.3150 -0.5730
 2018PEP     CB77036  21.081   9.990  14.020  0.1417 -0.1089  0.2184
 2018PEP     CB77037  21.459   9.908  13.958  0.0195  0.1285  0.0172
 2018PEP     CB77038  21.917   9.911  13.880 -0.3520  0.4462 -0.7896
 2018PEP     CB77039  22.398   9.897  14.012  0.1928  0.1374 -0.2176
 2018PEP     CB77040  22.728   9.666  14.016  0.1264 -0.0650 -0.1811
 2019PEP     CB77041  19.148  18.684  15.150 -0.5493  0.1016 -0.0157
 2019PEP     CB77042  18.724  18.618  15.140 -0.4363  0.1496  0.0233
 2019PEP     CB77043  18.337  18.607  15.327  0.1809 -0.0297  0.0650
 2019PEP     CB77044  18.119  18.791  15.672 -0.3723  0.0174  0.1456
 2019PEP     CB77045  17.914  18.744  15.952 -0.0921 -0.0835 -0.1660
 2019PEP     CB77046  17.577  19.029  16.217  0.1754  0.1558  0.1828
 2019PEP     CB77047  17.436  19.528  16.325 -0.0661 -0.1562  0.0748
 2019PEP     CB77048  17.743  19.855  16.225 -0.0829  0.5216 -0.2171
 2019PEP     CB77049  17.658  20.287  16.008 -0.1208 -0.1971  0.2604
 2019PEP     CB77050  17.264  20.326  15.708  0.0488  0.2395  0.0410
 2019PEP     CB77051  16.934  20.225  15.362 -0.2203 -0.0146  0.2803
 2019PEP     CB77052  16.518  20.133  15.337 -0.2409  0.1340 -0.1956
 2019PEP     CB77053  16.416  19.687  15.247  0.1489  0.0364 -0.0288
 2019PEP     CB77054  16.803  19.384  15.246  0.0542  0.1459  0.2828
 2019PEP     CB77055  16.888  19.017  15.504 -0.1838  0.0388  0.1423
 2019PEP     CB77056  16.814  18.531  15.515 -0.0532  0.1599 -0.0317
 2019PEP     CB77057  16.673  18.179  15.772 -0.1484  0.0707  0.5925
 2019PEP     CB77058  16.327  17.951  16.032 -0.1661 -0.4856  0.1255
 2019PEP     CB77059  15.945  17.681  16.150 -0.0046  0.0650 -0.0445
 2019PEP     CB77060  15.531  17.554  16.316 -0.3620  0.2473  0.4239
 2019PEP     CB77061  15.320  17.159  16.163  0.2290 -0.2888 -0.2664
 2019PEP     CB77062  15.216  16.748  16.303  0.1509 -0.1744  0.0503
 2019PEP     CB77063  15.504  16.539  16.651  0.1002 -0.0660 -0.0082
 2019PEP     CB77064  15.933  16.441  16.700 -0.2300  0.0136 -0.0795
 2019PEP     CB77065  16.301  16.488  16.478 -0.3976  0.0524 -0.2354
 2019PEP     CB77066  16.403  16.338  16.120  0.0388 -0.0364 -0.3906
 2019PEP     CB77067  16.374  16.240  15.652 -0.0375  0.1482  0.3201
 2019PEP     CB77068  16.083  16.225  15.308 -0.1119  0.4513  0.0956
 2019PEP     CB77069  16.008  16.064  14.886 -0.0198 -0.5124  0.2238
 2019PEP     CB77070  16.030  15.713  14.570 -0.0492  0.0509 -0.1588
 2019PEP     CB77071  16.089  15.658  14.148 -0.2037 -0.1211 -0.2324
 2019PEP     CB77072  15.887  15.862  13.717 -0.1471 -0.1352 -0.0281
 2019PEP     CB77073  15.902  16.204  13.407 -0.0402 -0.1655 -0.4147
 2019PEP     CB77074  15.704  16.607  13.216  0.2015 -0.0077 -0.0476
 2019PEP     CB77075  15.745  17.037  13.288  0.1284  0.1899  0.0143
 2019PEP     CB77076  16.001  17.252  13.536 -0.0197 -0.4759  0.0766
 2019PEP     CB77077  16.379  17.156  13.815 -0.3432  0.2008 -0.3344
 2019PEP     CB77078  16.835  17.103  13.992  0.4232  0.1683  0.1313
 2019PEP     CB77079  17.171  16.819  13.923 -0.0304  0.1775  0.1029
 2019PEP     CB77080  17.375  16.623  13.495 -0.0690 -0.3072 -0.1989
 2020PEP     CB77081  17.329   5.308   5.184  0.2060  0.3264  0.1666
 2020PEP     CB77082  17.682   5.459   5.523 -0.0876  0.2377 -0.3302
 2020PEP     CB77083  17.712   5.206   5.895  0.0436 -0.1117 -0.1533
 2020PEP     CB77084  17.533   4.983   6.176 -0.0500 -0.1361 -0.4148
 2020PEP     CB77085  17.201   4.637   6.206 -0.4252  0.1344 -0.0595
 2020PEP     CB77086  16.872   4.355   6.135 -0.6918  0.1785 -0.1283
 2020PEP     CB77087  16.666   4.240   5.814 -0.1305 -0.0015  0.6204
 2020PEP     CB77088  16.527   4.306   5.451  0.0060 -0.1011 -0.4127
 2020PEP     CB77089  16.547   4.362   5.066 -0.0567 -0.0074  0.1495
 2020PEP     CB77090  16.361   4.308   4.642  0.0149 -0.0074  0.1251
 2020PEP     CB77091  15.951   4.294   4.545 -0.2171  0.1153  0.0860
 2020PEP     CB77092  15.721   4.509   4.824  0.3791 -0.0091  0.0389
 2020PEP     CB77093  15.684   4.815   5.147  0.1988  0.2359 -0.0877
 2020PEP     CB77094  15.460   4.912   5.521  0.0815  0.0243 -0.2689
 2020PEP     CB77095  15.105   5.196   5.460 -0.3920  0.2664 -0.1224
 2020PEP     CB77096  14.887   5.570   5.602  0.1671 -0.0842 -0.1419
 2020PEP     CB77097  14.847   5.891   5.914  0.0778  0.0079  0.0738
 2020PEP     CB77098  14.535   6.010   6.256 -0.1079 -0.1449  0.3790
 2020PEP     CB77099  14.310   5.914   6.651 -0.3029  0.2641  0.0216
 2020PEP     CB77100  14.385   5.930   7.116 -0.3732 -0.0770  0.1700
 2020PEP     CB77101  14.600   6.026   7.544  0.0595 -0.0551 -0.1430
 2020PEP     CB77102  14.676   6.074   7.934 -0.3989 -0.5785  0.1274
 2020PEP     CB77103  14.884   6.194   8.336  0.2269  0.0665 -0.0760
 2020PEP     CB77104  15.104   6.167   8.637  0.3684 -0.2286 -0.0364
 2020PEP     CB77105  15.233   5.803   8.819  0.2012  0.3093  0.1209
 2020PEP     CB77106  15.391   5.521   9.129  0.2548 -0.0935  0.1430
 2020PEP     CB77107  15.495   5.399   9.526  0.3618  0.0958 -0.3520
 2020PEP     CB77108  15.596   5.431   9.960  0.1859  0.3526 -0.3450
 2020PEP     CB77109  15.901   5.455  10.200  0.5047 -0.1321  0.0559
 2020PEP     CB77110  16.225   5.283  10.391 -0.0051  0.0031  0.1182
 2020PEP     CB77111  16.351   4.935  10.211  0.2604 -0.1640 -0.0329
 2020PEP     CB77112  16.498   4.731   9.806  0.3360  0.2089  0.0056
 2020PEP     CB77113  16.889   4.809   9.576  0.0654 -0.2025 -0.3523
 2020PEP     CB77114  16.994   5.252   9.376 -0.5625 -0.3284  0.2291
 2020PEP     CB77115  16.911   5.705   9.580 -0.1413 -0.3462  0.2035
 2020PEP     CB77116  16.835   6.039   9.970  0.2986  0.0310  0.1052
 2020PEP     CB77117  16.548   6.200  10.122 -0.1542 -0.0861  0.2085
 2020PEP     CB77118  16.113   6.198  10.052  0.0836  0.3059 -0.0539
 2020PEP     CB77119  15.816   6.349   9.768 -0.2192 -0.1963  0.2753
 2020PEP     CB77120  15.356   6.362   9.667 -0.2720  0.1781  0.0815
 2021PEP     CB77121  21.046   1.670   9.120 -0.2470 -0.0914 -0.2095
 2021PEP     CB77122  20.613   1.810   8.894 -0.2331  0.0153 -0.1832
 2021PEP     CB77123  20.282   1.877   8.712 -0.1380 -0.0026 -0.1117
 2021PEP     CB77124  20.162   2.257   8.608  0.1369  0.3364 -0.1485
 2021PEP     CB77125  20.400   2.613   8.697 -0.6349 -0.2384  0.1200
 2021PEP     CB77126  20.835   2.544   8.872  0.0252 -0.2953  0.1674
 2021PEP     CB77127  21.131   2.207   8.784  0.4510 -0.0701  0.0637
 2021PEP     CB77128  21.461   1.893   8.781 -0.2909 -0.2174  0.1582
 2021PEP     CB77129  21.812   1.599   8.937 -0.2057 -0.2663  0.1619
 2021PEP     CB77130  22.262   1.470   8.876 -0.1263  0.0774  0.0704
 2021PEP     CB77131  22.646   1.601   8.680  0.1662  0.0941  0.3209
 2021PEP     CB77132  22.943   1.918   8.806 -0.0219 -0.0572  0.1715
 2021PEP     CB77133  22.864   2.312   9.008  0.2059 -0.1284 -0.2407
 2021PEP     CB77134  22.482   2.368   9.278  0.0966 -0.0697 -0.0996
 2021PEP     CB77135  22.179   2.155   9.535  0.0577  0.1864  0.0656
 2021PEP     CB77136  21.994   1.772   9.728  0.2143  0.1530 -0.0893
 2021PEP     CB77137  21.594   1.510   9.813 -0.4178  0.0455  0.2199
 2021PEP     CB77138  21.129   1.570   9.898  0.1325  0.0088  0.1756
 2021PEP     CB77139  20.693   1.748  10.102 -0.2098 -0.1479  0.2509
 2021PEP     CB77140  20.354   1.935   9.890  0.3721  0.1632  0.0336
 2021PEP     CB77141  19.863   1.847   9.938 -0.0926  0.1232  0.0617
 2021PEP     CB77142  19.452   1.803  10.156  0.0752  0.4217  0.1681
 2021PEP     CB77143  19.356   1.532  10.537  0.2801 -0.3655  0.2159
 2021PEP     CB77144  19.267   1.130  10.640  0.0231  0.0496  0.0457
 2021PEP     CB77145  19.377   0.878  10.271 -0.1921 -0.2008  0.0032
 2021PEP     CB77146  19.457   0.907   9.841  0.2413  0.1953 -0.0914
 2021PEP     CB77147  19.675   1.040   9.512 -0.3056 -0.1513 -0.0100
 2021PEP     CB77148  19.920   0.944   9.153 -0.3778 -0.4287  0.0946
 2021PEP     CB77149  20.075   0.762   8.780  0.0893 -0.3940  0.2454
 2021PEP     CB77150  20.420   0.718   8.420 -0.0794  0.0315  0.0350
 2021PEP     CB77151  20.738   0.826   8.235  0.1897  0.3759  0.1640
 2021PEP     CB77152  21.179   0.898   8.030 -0.1932  0.4045  0.0740
 2021PEP     CB77153  21.623   0.907   7.932 -0.0125 -0.0530 -0.2317
 2021PEP     CB77154  22.040   1.121   7.821  0.3700 -0.2951  0.1238
 2021PEP     CB77155  22.364   1.194   7.449 -0.0768  0.1448  0.2673
 2021PEP     CB77156  22.724   1.252   7.316 -0.0335 -0.1844 -0.2719
 2021PEP     CB77157  23.157   1.465   7.182  0.1367  0.1609  0.3738
 2021PEP     CB77158  23.531   1.272   7.023  0.0009 -0.2505 -0.1943
 2021PEP     CB77159  23.647   0.846   6.780  0.1535  0.0012  0.2491
 2021PEP     CB77160  23.654   0.756   6.325  0.0628  0.1275 -0.0965
 2022PEP     CB77161  13.074  16.447   5.785  0.3578 -0.0215 -0.3713
 2022PEP     CB77162  13.352  16.539   6.126  0.2104 -0.2377  0.2379
 2022PEP     CB77163  13.561  16.408   6.444 -0.1673  0.3255 -0.0804
 2022PEP     CB77164  13.908  16.066   6.626  0.4091 -0.1964 -0.0076
 2022PEP     CB77165  14.258  15.824   6.717 -0.3026 -0.1278  0.0893
 2022PEP     CB77166  14.514  15.619   6.978 -0.1766  0.0237  0.2210
 2022PEP     CB77167  14.860  15.673   7.303 -0.0907 -0.0791  0.0302
 2022PEP     CB77168  15.288  15.907   7.313 -0.2976 -0.1714 -0.1356
 2022PEP     CB77169  15.337  16.176   6.908 -0.1309 -0.0083 -0.1415
 2022PEP     CB77170  15.145  16.214   6.521  0.3209 -0.2738  0.1576
 2022PEP     CB77171  15.002  16.498   6.269 -0.1352  0.0243  0.0717
 2022PEP     CB77172  14.726  16.791   6.322 -0.1978 -0.3200 -0.1357
 2022PEP     CB77173  14.481  16.776   6.683  0.2462  0.3252 -0.3933
 2022PEP     CB77174  14.122  16.791   7.027 -0.0454  0.1255  0.0363
 2022PEP     CB77175  13.780  16.836   7.334 -0.1962  0.0032 -0.3450
 2022PEP     CB77176  13.638  16.801   7.733 -0.2723 -0.0877 -0.2733
 2022PEP     CB77177  13.461  16.782   8.122  0.1057  0.1503  0.0277
 2022PEP     CB77178  13.107  16.679   8.310 -0.0426  0.0384 -0.1349
 2022PEP     CB77179  12.907  16.884   8.616 -0.2651 -0.3089  0.4958
 2022PEP     CB77180  12.619  17.140   8.763 -0.1775  0.3346 -0.0925
 2022PEP     CB77181  12.727  17.584   8.782  0.2240 -0.1713 -0.3399
 2022PEP     CB77182  13.059  17.770   8.440  0.0349  0.0287  0.0952
 2022PEP     CB77183  13.193  17.609   8.034  0.0560 -0.3512 -0.5221
 2022PEP     CB77184  13.172  17.574   7.495 -0.4347  0.1981  0.2985
 2022PEP     CB77185  13.210  17.833   7.198 -0.0915 -0.0928 -0.1020
 2022PEP     CB77186  13.164  18.294   7.305  0.1223  0.1851  0.1786
 2022PEP     CB77187  13.564  18.447   7.614  0.3055 -0.1077 -0.2096
 2022PEP     CB77188  13.520  18.307   8.090  0.1298 -0.2037  0.1626
 2022PEP     CB77189  13.097  18.251   8.258  0.1553  0.0917 -0.0155
 2022PEP     CB77190  12.604  18.426   8.297  0.1070  0.0501  0.2546
 2022PEP     CB77191  12.520  18.770   8.593 -0.2297 -0.1981  0.1931
 2022PEP     CB77192  12.154  18.908   8.827  0.0022 -0.1851 -0.0551
 2022PEP     CB77193  11.856  18.913   9.091 -0.0253  0.1759  0.1540
 2022PEP     CB77194  11.556  18.875   9.407  0.2916 -0.1411  0.7068
 2022PEP     CB77195  11.265  18.476   9.528 -0.4711 -0.3519 -0.1929
 2022PEP     CB77196  11.249  18.048   9.607  0.1862 -0.0714 -0.0433
 2022PEP     CB77197  10.962  17.786   9.598  0.2300  0.3132 -0.1845
 2022PEP     CB77198  10.809  17.553   9.800  0.2748 -0.1838  0.4587
 2022PEP     CB77199  10.519  17.324  10.036  0.1002  0.2675  0.1798
 2022PEP     CB77200  10.172  17.389  10.311  0.1411 -0.0297 -0.1382
 2023PEP     CB77201  10.171  12.158  21.557 -0.2703 -0.3419  0.3136
 2023PEP     CB77202  10.215  12.459  21.925 -0.1711  0.2708 -0.0749
 2023PEP     CB77203  10.292  12.817  22.130  0.2804 -0.0618 -0.2167
 2023PEP     CB77204  10.126  13.212  22.315 -0.1999 -0.0873  0.4187
 2023PEP     CB77205   9.829  13.408  22.074 -0.4298  0.1195  0.0493
 2023PEP     CB77206   9.794  13.173  21.770  0.2738 -0.1642  0.4652
 2023PEP     CB77207  10.078  12.934  21.593  0.1217 -0.0075  0.0281
 2023PEP     CB77208  10.439  12.752  21.576  0.4806 -0.0088  0.1651
 2023PEP     CB77209  10.643  12.430  21.594 -0.0940  0.3289  0.0422
 2023PEP     CB77210  10.561  12.077  21.898  0.2056  0.0502 -0.6354
 2023PEP     CB77211  10.133  11.920  22.132  0.2945  0.0292  0.4403
 2023PEP     CB77212   9.777  11.936  21.836 -0.7595 -0.5212 -0.1287
 2023PEP     CB77213   9.470  11.938  21.560 -0.2243 -0.0083  0.0769
 2023PEP     CB77214   9.219  12.093  21.216 -0.1540  0.0670  0.5624
 2023PEP     CB77215   8.774  12.069  20.935  0.0288  0.1766  0.3464
 2023PEP     CB77216   8.323  12.221  20.925 -0.0581 -0.5137  0.2597
 2023PEP     CB77217   8.068  12.344  21.310 -0.2918  0.2834  0.0931
 2023PEP     CB77218   8.205  12.186  21.734 -0.2302 -0.1700 -0.0552
 2023PEP     CB77219   8.543  11.918  21.811 -0.1246 -0.0112 -0.0614
 2023PEP     CB77220   8.763  11.616  21.626 -0.4370 -0.1564 -0.0277
 2023PEP     CB77221   8.808  11.153  21.437  0.2380  0.1697  0.2509
 2023PEP     CB77222   8.952  10.787  21.413  0.2108 -0.3398 -0.0706
 2023PEP     CB77223   9.376  10.557  21.223  0.0221  0.5926 -0.1260
 2023PEP     CB77224   9.796  10.694  21.256 -0.4755 -0.1814 -0.1144
 2023PEP     CB77225   9.930  11.134  21.384  0.0875 -0.2423  0.1258
 2023PEP     CB77226   9.690  11.503  21.600  0.3780  0.1194  0.0295
 2023PEP     CB77227   9.337  11.604  21.889  0.1255  0.2172  0.0122
 2023PEP     CB77228   9.215  11.511  22.368  0.3113  0.0964 -0.0169
 2023PEP     CB77229   9.006  11.390  22.722  0.4420  0.0446 -0.1509
 2023PEP     CB77230   8.654  11.145  22.900 -0.3557  0.0449 -0.5641
 2023PEP     CB77231   8.435  10.677  22.928  0.1812  0.0655 -0.3224
 2023PEP     CB77232   8.298  10.224  22.809 -0.1751 -0.1091  0.2654
 2023PEP     CB77233   8.212   9.904  22.391 -0.1847 -0.2065 -0.0699
 2023PEP     CB77234   8.223   9.592  22.102  0.7299  0.4049  0.0211
 2023PEP     CB77235   8.572   9.184  22.075  0.2134  0.3426  0.1983
 2023PEP     CB77236   8.735   8.701  22.080  0.1512 -0.2940  0.1291
 2023PEP     CB77237   8.949   8.327  21.971  0.0975  0.3876 -0.1147
 2023PEP     CB77238   9.157   8.125  22.276  0.2665 -0.3472 -0.1923
 2023PEP     CB77239   9.222   7.976  22.693  0.1274  0.5147  0.1825
 2023PEP     CB77240   9.475   7.703  23.025 -0.2373 -0.0017  0.3022
 2024PEP     CB77241  12.432   2.360  16.947 -0.0141 -0.2380 -0.1093
 2024PEP     CB77242  12.870   2.345  16.945 -0.1550 -0.1378  0.0852
 2024PEP     CB77243  13.168   2.008  17.112 -0.2798 -0.0349  0.2288
 2024PEP     CB77244  13.533   1.725  17.075 -0.0776 -0.2838 -0.2628
 2024PEP     CB77245  13.812   1.478  16.816 -0.1144 -0.2913 -0.1123
 2024PEP     CB77246  13.630   1.360  16.478 -0.1742  0.0569  0.1834
 2024PEP     CB77247  13.228   1.156  16.433 -0.2085 -0.1393  0.3199
 2024PEP     CB77248  12.974   0.985  16.127 -0.3847  0.0857  0.1154
 2024PEP     CB77249  12.649   0.630  16.020  0.4006 -0.1396 -0.3903
 2024PEP     CB77250  12.433   0.245  15.976 -0.2736  0.0766 -0.1138
 2024PEP     CB77251  11.972   0.101  16.084  0.3003  0.0674 -0.1187
 2024PEP     CB77252  11.596   0.017  16.212  0.0661 -0.1665 -0.3373
 2024PEP     CB77253  11.219   0.034  16.369 -0.1137  0.1380 -0.0026
 2024PEP     CB77254  10.783  -0.215  16.633  0.0205 -0.0958 -0.1545
 2024PEP     CB77255  10.354  -0.297  16.861  0.0182  0.2257 -0.3794
 2024PEP     CB77256  10.193  -0.238  17.203 -0.0383 -0.2767  0.1874
 2024PEP     CB77257  10.420  -0.417  17.557  0.1464  0.1493  0.0073
 2024PEP     CB77258  10.829  -0.370  17.699 -0.0162  0.0682 -0.1736
 2024PEP     CB77259  11.190  -0.230  17.734  0.5473 -0.4432  0.1300
 2024PEP     CB77260  11.693  -0.212  17.771 -0.0071 -0.1608 -0.0307
 2024PEP     CB77261  12.122   0.009  17.825 -0.2023  0.1572 -0.2368
 2024PEP     CB77262  12.563  -0.061  17.975  0.0036 -0.1829 -0.2657
 2024PEP     CB77263  12.774  -0.330  18.330 -0.1818 -0.2011 -0.0181
 2024PEP     CB77264  12.930  -0.226  18.768  0.0022 -0.3877  0.0360
 2024PEP     CB77265  13.201  -0.204  19.096  0.3852  0.0499  0.1978
 2024PEP     CB77266  13.533  -0.321  19.224 -0.4391  0.1449  0.0316
 2024PEP     CB77267  13.762  -0.459  19.656  0.2187  0.0694  0.2987
 2024PEP     CB77268  13.842  -0.158  20.003  0.1246 -0.2501 -0.0617
 2024PEP     CB77269  13.535  -0.063  20.257 -0.0448 -0.5045  0.3188
 2024PEP     CB77270  13.166  -0.146  20.382  0.3469 -0.2367  0.1853
 2024PEP     CB77271  12.674  -0.083  20.213 -0.3162 -0.1098  0.0356
 2024PEP     CB77272  12.296  -0.120  19.924 -0.4829  0.1545 -0.1736
 2024PEP     CB77273  11.826   0.090  19.672 -0.2712  0.2590  0.6311
 2024PEP     CB77274  11.457   0.326  19.854 -0.1661 -0.1666 -0.0943
 2024PEP     CB77275  11.052   0.263  19.967 -0.1319  0.2535 -0.4705
 2024PEP     CB77276  10.805  -0.043  20.048 -0.0340 -0.1070 -0.2311
 2024PEP     CB77277  10.643  -0.391  20.366  0.0692  0.3480  0.0316
 2024PEP     CB77278  10.704  -0.515  20.789 -0.4115  0.3284 -0.2846
 2024PEP     CB77279  10.739  -0.501  21.278 -0.0465  0.3574  0.3004
 2024PEP     CB77280  10.509  -0.335  21.693  0.1929 -0.2279  0.1156
 2025PEP     CB77281  17.983   3.741  16.761 -0.0998 -0.0425  0.1562
 2025PEP     CB77282  18.298   3.597  17.018  0.0068  0.1679 -0.3774
 2025PEP     CB77283  18.776   3.691  17.196 -0.1778 -0.0929  0.1600
 2025PEP     CB77284  19.124   3.821  17.466  0.2075 -0.1705 -0.1688
 2025PEP     CB77285  19.220   4.037  17.915  0.0531 -0.3316  0.1196
 2025PEP     CB77286  19.425   3.861  18.364 -0.2484 -0.0653 -0.1376
 2025PEP     CB77287  19.647   3.689  18.714  0.2087  0.1944  0.0958
 2025PEP     CB77288  19.585   3.309  18.945  0.2161 -0.4175  0.2560
 2025PEP     CB77289  19.786   2.918  18.840 -0.0549 -0.1645  0.0421
 2025PEP     CB77290  20.080   2.872  18.556  0.1969  0.0361  0.0554
 2025PEP     CB77291  20.213   2.700  18.159  0.3536  0.1338  0.0330
 2025PEP     CB77292  20.368   2.384  17.779 -0.2005  0.5126 -0.0100
 2025PEP     CB77293  20.606   2.201  17.546  0.1664  0.1435 -0.2437
 2025PEP     CB77294  20.992   2.045  17.420 -0.2616  0.3075 -0.4384
 2025PEP     CB77295  21.383   1.870  17.588 -0.2853  0.0585 -0.1162
 2025PEP     CB77296  21.775   1.738  17.551  0.1875 -0.2332 -0.2153
 2025PEP     CB77297  22.235   1.901  17.470  0.1038  0.3064 -0.1078
 2025PEP     CB77298  22.603   1.733  17.329  0.0780 -0.0656 -0.1953
 2025PEP     CB77299  23.007   1.458  17.310  0.1124  0.4302 -0.2314
 2025PEP     CB77300  23.374   1.149  17.183 -0.0733 -0.1998 -0.2103
 2025PEP     CB77301  23.610   0.934  17.352 -0.1305  0.2302 -0.0387
 2025PEP     CB77302  23.600   0.925  17.699 -0.3818 -0.1427  0.0918
 2025PEP     CB77303  23.686   1.234  18.018  0.1620  0.0913 -0.0828
 2025PEP     CB77304  23.688   1.692  18.171 -0.1020  0.3531 -0.1108
 2025PEP     CB77305  23.793   2.021  17.973 -0.0291 -0.4064  0.2824
 2025PEP     CB77306  23.843   2.435  17.639 -0.0703 -0.4337 -0.1378
 2025PEP     CB77307  23.820   2.494  17.262 -0.3072  0.1800  0.0938
 2025PEP     CB77308  23.659   2.685  16.932  0.0488 -0.3751  0.1376
 2025PEP     CB77309  23.359   2.935  16.692  0.2419  0.1325  0.2991
 2025PEP     CB77310  22.996   3.281  16.644  0.3725 -0.0736  0.0405
 2025PEP     CB77311  22.660   3.414  16.537  0.1438  0.2574 -0.0086
 2025PEP     CB77312  22.364   3.746  16.420  0.0745 -0.4321  0.1133
 2025PEP     CB77313  22.097   4.028  16.376 -0.1239 -0.0033  0.2922
 2025PEP     CB77314  21.810   4.256  16.601  0.4137 -0.2319 -0.1261
 2025PEP     CB77315  21.436   4.280  16.730  0.0639 -0.0312 -0.1004
 2025PEP     CB77316  21.052   4.515  16.734 -0.2433 -0.2805  0.0957
 2025PEP     CB77317  20.639   4.630  16.589 -0.3091  0.1104 -0.1980
 2025PEP     CB77318  20.317   4.482  16.396  0.0594  0.0727  0.1334
 2025PEP     CB77319  20.066   4.269  16.433 -0.0040  0.0617 -0.1658
 2025PEP     CB77320  19.766   4.019  16.392 -0.0695 -0.2662 -0.2352
 2026PEP     CB77321  10.785  20.147   1.403 -0.1339 -0.2222  0.2406
 2026PEP     CB77322  10.666  20.521   1.714  0.0629 -0.1257  0.1551
 2026PEP     CB77323  10.347  20.672   1.972  0.0313  0.2121 -0.1473
 2026PEP     CB77324  10.024  20.549   2.250 -0.1130 -0.2684 -0.0886
 2026PEP     CB77325   9.670  20.253   2.257  0.0156  0.1666 -0.3779
 2026PEP     CB77326   9.440  20.007   2.017  0.1977  0.1195 -0.1111
 2026PEP     CB77327   9.254  19.697   1.759 -0.1352 -0.1402  0.1249
 2026PEP     CB77328   9.144  19.407   1.488 -0.0918  0.0101 -0.2314
 2026PEP     CB77329   8.760  19.277   1.268  0.3011 -0.5569  0.1561
 2026PEP     CB77330   8.445  19.082   1.441  0.1430 -0.3952  0.1112
 2026PEP     CB77331   8.349  19.020   1.831 -0.1793 -0.1463 -0.0411
 2026PEP     CB77332   8.526  19.227   2.138 -0.0243 -0.2323 -0.1592
 2026PEP     CB77333   8.594  19.677   2.080  0.3176  0.1369  0.0654
 2026PEP     CB77334   8.359  20.133   2.097 -0.0162 -0.1684 -0.0774
 2026PEP     CB77335   7.974  20.415   2.047  0.0475  0.1005  0.0276
 2026PEP     CB77336   7.921  20.830   1.856  0.2769 -0.0981  0.0410
 2026PEP     CB77337   8.050  21.097   1.595  0.0996  0.1630 -0.0191
 2026PEP     CB77338   8.004  21.364   1.261 -0.0552 -0.0312  0.1993
 2026PEP     CB77339   7.665  21.551   1.161 -0.0433 -0.2626  0.1644
 2026PEP     CB77340   7.296  21.756   0.947 -0.0281  0.0564 -0.0777
 2026PEP     CB77341   6.930  21.786   0.608 -0.0998  0.0058  0.2638
 2026PEP     CB77342   6.798  21.437   0.306  0.5445 -0.1951  0.0371
 2026PEP     CB77343   6.871  21.131  -0.029  0.0222 -0.0311 -0.0118
 2026PEP     CB77344   6.982  20.771  -0.235 -0.0476  0.3738 -0.1455
 2026PEP     CB77345   6.939  20.388  -0.490 -0.1387 -0.0839  0.2032
 2026PEP     CB77346   7.008  20.092  -0.667  0.0258  0.3026 -0.1880
 2026PEP     CB77347   7.259  19.789  -0.877  0.0673  0.1914 -0.3397
 2026PEP     CB77348   7.621  19.551  -0.854  0.0830 -0.0386  0.1229
 2026PEP     CB77349   7.984  19.715  -0.708 -0.4316  0.2445  0.0333
 2026PEP     CB77350   8.055  20.068  -0.870 -0.0089 -0.0547  0.0596
 2026PEP     CB77351   7.859  20.409  -0.858  0.1234  0.0711  0.4668
 2026PEP     CB77352   7.623  20.693  -1.000  0.1175  0.2140 -0.1236
 2026PEP     CB77353   7.294  20.955  -1.187  0.0640  0.3819 -0.0300
 2026PEP     CB77354   7.004  20.858  -1.525 -0.2931 -0.3292 -0.0810
 2026PEP     CB77355   6.875  21.016  -1.927 -0.2176 -0.0671  0.0826
 2026PEP     CB77356   6.826  21.007  -2.390 -0.0480  0.3390  0.5146
 2026PEP     CB77357   7.005  20.879  -2.787 -0.0855  0.2820 -0.0318
 2026PEP     CB77358   7.173  20.569  -2.907  0.2929 -0.1012 -0.0124
 2026PEP     CB77359   7.103  20.134  -3.051 -0.0676 -0.1633  0.0810
 2026PEP     CB77360   7.258  19.766  -2.818  0.1284  0.0009  0.1728
 2027PEP     CB77361  13.582  13.612  16.240 -0.2714 -0.0661 -0.0643
 2027PEP     CB77362  13.944  13.375  16.403  0.2202  0.4665  0.0560
 2027PEP     CB77363  14.207  13.162  16.381  0.2664  0.2971 -0.1628
 2027PEP     CB77364  14.423  12.912  16.653 -0.3857  0.1765  0.0598
 2027PEP     CB77365  14.728  12.817  16.927  0.0550  0.0220  0.0684
 2027PEP     CB77366  14.822  12.485  17.239 -0.1437 -0.3061  0.1616
 2027PEP     CB77367  14.868  12.246  17.635 -0.3615  0.1135  0.0152
 2027PEP     CB77368  14.686  12.030  17.925  0.2373  0.1627 -0.0542
 2027PEP     CB77369  14.432  12.154  18.227  0.0236  0.1049  0.0147
 2027PEP     CB77370  14.069  12.548  18.319  0.1628  0.0829  0.0265
 2027PEP     CB77371  13.859  12.948  18.217  0.0749 -0.0046  0.2151
 2027PEP     CB77372  13.755  13.219  18.362 -0.2843 -0.0069 -0.0020
 2027PEP     CB77373  13.876  13.661  18.182 -0.0520 -0.1300  0.2879
 2027PEP     CB77374  14.272  13.799  18.011  0.4384 -0.0284  0.2769
 2027PEP     CB77375  14.576  13.520  18.000 -0.1621 -0.1202  0.3030
 2027PEP     CB77376  14.827  13.277  18.246 -0.0530 -0.1140  0.0605
 2027PEP     CB77377  14.939  13.012  18.551 -0.1400 -0.0967  0.2366
 2027PEP     CB77378  15.042  12.678  18.859  0.5625  0.1277 -0.2023
 2027PEP     CB77379  14.800  12.308  18.919 -0.1887 -0.2875  0.1945
 2027PEP     CB77380  14.712  12.106  18.616  0.0264 -0.2406 -0.0966
 2027PEP     CB77381  14.865  12.357  18.241 -0.0858  0.1838 -0.2969
 2027PEP     CB77382  15.229  12.531  18.060 -0.0005  0.4285 -0.5548
 2027PEP     CB77383  15.473  12.737  17.699 -0.4860  0.1748 -0.1077
 2027PEP     CB77384  15.489  13.151  17.568 -0.1311 -0.0633 -0.2606
 2027PEP     CB77385  15.684  13.601  17.502 -0.5025 -0.3255 -0.0525
 2027PEP     CB77386  15.939  13.942  17.285  0.2014 -0.2088 -0.2928
 2027PEP     CB77387  16.022  14.220  16.910 -0.2703 -0.2049 -0.1511
 2027PEP     CB77388  16.276  14.227  16.596  0.1903  0.0447  0.4155
 2027PEP     CB77389  16.179  14.084  16.191 -0.0861  0.0165  0.2658
 2027PEP     CB77390  15.929  14.198  15.936  0.1468  0.1349 -0.0031
 2027PEP     CB77391  15.484  14.181  15.774  0.0311 -0.0356 -0.4897
 2027PEP     CB77392  14.980  14.165  15.776 -0.1279  0.0294 -0.2568
 2027PEP     CB77393  14.545  14.318  15.920  0.3597  0.0751  0.4038
 2027PEP     CB77394  14.159  14.572  15.879  0.1196  0.6240  0.2862
 2027PEP     CB77395  13.960  14.987  15.891  0.0421  0.2089 -0.0402
 2027PEP     CB77396  13.763  15.537  15.991 -0.0815  0.3008 -0.0995
 2027PEP     CB77397  13.415  15.819  16.031  0.1445 -0.2323 -0.1814
 2027PEP     CB77398  13.075  16.173  15.984 -0.1920 -0.2838  0.0356
 2027PEP     CB77399  12.882  16.542  16.204 -0.3713 -0.3994  0.1193
 2027PEP     CB77400  12.868  16.998  16.032  0.3153  0.6543 -0.1001
 2028PEP     CB77401   0.476   0.926   9.586  0.2447 -0.1666  0.0250
 2028PEP     CB77402   0.585   0.784  10.020  0.2253  0.1795 -0.1285
 2028PEP     CB77403   0.705   1.068  10.394 -0.1002 -0.1561 -0.3802
 2028PEP     CB77404   0.829   1.552  10.395  0.2736  0.4290 -0.1480
 2028PEP     CB77405   0.790   1.726  10.096 -0.3611 -0.0798 -0.0334
 2028PEP     CB77406   0.642   1.674   9.686 -0.0143 -0.1261 -0.0756
 2028PEP     CB77407   0.304   1.512   9.397 -0.0276 -0.3389  0.3497
 2028PEP     CB77408   0.111   1.113   9.211 -0.5708  0.4080 -0.1187
 2028PEP     CB77409   0.128   0.637   9.271 -0.1374 -0.1724  0.4210
 2028PEP     CB77410   0.317   0.349   8.937  0.4480  0.0150  0.2129
 2028PEP     CB77411   0.405   0.510   8.526  0.0783 -0.2254 -0.3720
 2028PEP     CB77412   0.221   0.914   8.345  0.2058 -0.0128 -0.3714
 2028PEP     CB77413   0.022   1.255   8.429 -0.1032  0.1671 -0.0067
 2028PEP     CB77414  -0.346   1.586   8.441 -0.3999 -0.0073  0.0878
 2028PEP     CB77415  -0.398   1.931   8.249  0.4759  0.1523  0.4466
 2028PEP     CB77416  -0.385   2.241   7.992 -0.2526 -0.4797 -0.3225
 2028PEP     CB77417   0.074   2.371   7.794  0.0376  0.0511  0.0625
 2028PEP     CB77418   0.431   2.614   7.847  0.1996  0.0078 -0.1118
 2028PEP     CB77419   0.668   2.756   8.192 -0.0975 -0.0672  0.0775
 2028PEP     CB77420   0.690   2.634   8.623 -0.1009  0.0576 -0.3340
 2028PEP     CB77421   0.317   2.355   8.770  0.2068  0.0671 -0.1273
 2028PEP     CB77422  -0.099   2.550   8.920 -0.2994  0.0032  0.0918
 2028PEP     CB77423  -0.416   2.696   9.169  0.1397  0.0446 -0.0107
 2028PEP     CB77424  -0.781   2.428   9.267 -0.1129  0.0426  0.0048
 2028PEP     CB77425  -1.224   2.353   9.351 -0.3020  0.6118  0.6577
 2028PEP     CB77426  -1.649   2.145   9.142  0.0176  0.0842 -0.2762
 2028PEP     CB77427  -2.087   2.279   8.999  0.0480 -0.0772 -0.2108
 2028PEP     CB77428  -2.436   2.386   8.790  0.3689 -0.0560 -0.1788
 2028PEP     CB77429  -2.838   2.582   8.531  0.0687  0.3912 -0.3377
 2028PEP     CB77430  -3.145   2.516   8.278 -0.0695 -0.0324  0.0546
 2028PEP     CB77431  -3.421   2.913   8.146  0.1293 -0.1350  0.1050
 2028PEP     CB77432  -3.406   3.312   7.905  0.4735 -0.0825  0.0237
 2028PEP     CB77433  -3.079   3.385   7.569  0.0739 -0.1940 -0.1119
 2028PEP     CB77434  -2.941   3.046   7.326  0.2934  0.0717  0.3625
 2028PEP     CB77435  -2.928   2.611   7.262 -0.3970 -0.2880  0.0781
 2028PEP     CB77436  -2.999   2.115   7.266 -0.2192 -0.2067 -0.0074
 2028PEP     CB77437  -2.920   1.695   7.190  0.0867  0.1195  0.0153
 2028PEP     CB77438  -2.675   1.315   7.088  0.2718 -0.1037 -0.0596
 2028PEP     CB77439  -2.321   1.243   6.862 -0.0647  0.2039 -0.0112
 2028PEP     CB77440  -2.133   1.387   6.476 -0.0118 -0.3721  0.1029
 2029PEP     CB77441   5.235   8.708  20.335 -0.1507 -0.4969 -0.1007
 2029PEP     CB77442   4.991   9.031  20.030  0.4075 -0.4239  0.1048
 2029PEP     CB77443   4.738   9.018  19.668 -0.0677 -0.1389  0.0461
 2029PEP     CB77444   4.424   9.192  19.521 -0.0215 -0.1255 -0.1340
 2029PEP     CB77445   4.044   9.364  19.718 -0.0779  0.0312  0.1426
 2029PEP     CB77446   3.748   9.612  19.546 -0.1031  0.0183 -0.1757
 2029PEP     CB77447   3.720   9.955  19.324  0.0647  0.1675 -0.0196
 2029PEP     CB77448   3.938  10.179  19.156 -0.1212 -0.0113  0.2815
 2029PEP     CB77449   4.389  10.156  19.119  0.1165  0.3078 -0.1763
 2029PEP     CB77450   4.713  10.220  18.942 -0.0108 -0.0224 -0.0538
 2029PEP     CB77451   4.975   9.982  18.716 -0.0811 -0.3155  0.0256
 2029PEP     CB77452   5.444  10.074  18.812 -0.2209 -0.0305  0.1628
 2029PEP     CB77453   5.841  10.283  18.606 -0.0512 -0.3094 -0.0113
 2029PEP     CB77454   6.033  10.567  18.276 -0.1063  0.2519  0.1756
 2029PEP     CB77455   6.299  10.593  17.916 -0.0076 -0.1846 -0.2717
 2029PEP     CB77456   6.474  10.259  17.624  0.2804  0.1499  0.0256
 2029PEP     CB77457   6.457  10.115  17.147 -0.1515 -0.3743  0.1463
 2029PEP     CB77458   6.436  10.256  16.726 -0.0868 -0.1776 -0.3518
 2029PEP     CB77459   6.315  10.452  16.284 -0.0078 -0.0607 -0.1536
 2029PEP     CB77460   5.974  10.484  15.949 -0.1762  0.0646 -0.3189
 2029PEP     CB77461   6.027  10.435  15.521 -0.0809 -0.0885  0.1474
 2029PEP     CB77462   6.295  10.531  15.225 -0.2221  0.0031  0.1844
 2029PEP     CB77463   6.651  10.470  14.938  0.1057 -0.2455 -0.0365
 2029PEP     CB77464   7.014  10.210  14.769 -0.1035  0.0756  0.1663
 2029PEP     CB77465   7.433  10.099  14.669  0.0195  0.0123  0.2610
 2029PEP     CB77466   7.815   9.847  14.772 -0.2315 -0.2401 -0.1151
 2029PEP     CB77467   7.892   9.390  14.943  0.0467  0.1929 -0.1030
 2029PEP     CB77468   7.761   9.140  15.236  0.1282 -0.0671  0.3754
 2029PEP     CB77469   7.505   9.022  15.607 -0.3058 -0.2514  0.0374
 2029PEP     CB77470   7.311   8.822  16.013  0.1930 -0.1326 -0.2002
 2029PEP     CB77471   7.203   8.742  16.430  0.0688 -0.0002  0.2609
 2029PEP     CB77472   7.082   8.458  16.820 -0.0598  0.5007 -0.1247
 2029PEP     CB77473   7.137   8.096  16.980 -0.0075 -0.1523 -0.2156
 2029PEP     CB77474   7.242   7.742  17.127 -0.2204 -0.2587 -0.1602
 2029PEP     CB77475   7.651   7.610  17.277  0.1182  0.1086 -0.5385
 2029PEP     CB77476   7.995   7.697  17.558 -0.1131 -0.1259  0.1813
 2029PEP     CB77477   8.314   7.512  17.958  0.0922  0.4297  0.2779
 2029PEP     CB77478   8.690   7.394  18.291 -0.2331  0.1824 -0.3075
 2029PEP     CB77479   9.144   7.330  18.419  0.0250 -0.1696  0.1657
 2029PEP     CB77480   9.569   7.250  18.204  0.0563  0.0998  0.5592
 2030PEP     CB77481   9.740  21.251   7.838 -0.1946 -0.0106  0.2959
 2030PEP     CB77482   9.665  21.273   7.436  0.0866 -0.3230  0.0318
 2030PEP     CB77483   9.784  21.436   6.977 -0.0367  0.3139 -0.2783
 2030PEP     CB77484   9.971  21.502   6.598 -0.2468  0.0220 -0.1254
 2030PEP     CB77485  10.238  21.412   6.279  0.3995 -0.0315  0.2843
 2030PEP     CB77486  10.530  21.230   5.915  0.1109 -0.2349 -0.2811
 2030PEP     CB77487  10.468  21.062   5.481  0.0823 -0.2658  0.0648
 2030PEP     CB77488  10.068  20.837   5.304 -0.1506  0.4548 -0.4702
 2030PEP     CB77489   9.673  20.905   5.285 -0.0456 -0.0797  0.4690
 2030PEP     CB77490   9.372  20.635   5.137 -0.2575 -0.1923 -0.0357
 2030PEP     CB77491   9.348  20.234   4.916  0.0867 -0.1650 -0.0314
 2030PEP     CB77492   9.367  19.791   5.132  0.2329 -0.2526 -0.0167
 2030PEP     CB77493   9.127  19.385   5.260 -0.1158 -0.0461  0.0488
 2030PEP     CB77494   8.800  19.088   5.190 -0.2526  0.2858 -0.2387
 2030PEP     CB77495   8.591  18.842   5.453  0.1371  0.0023 -0.1929
 2030PEP     CB77496   8.507  18.902   5.873 -0.1060 -0.3371 -0.0994
 2030PEP     CB77497   8.720  19.126   6.200  0.0987  0.0153  0.1095
 2030PEP     CB77498   8.623  19.152   6.676 -0.0452 -0.0533  0.2792
 2030PEP     CB77499   8.448  19.528   6.848  0.0333  0.3008  0.4731
 2030PEP     CB77500   8.371  19.950   6.890  0.0631 -0.2868 -0.0551
 2030PEP     CB77501   8.018  20.199   6.835 -0.2241 -0.0181  0.2540
 2030PEP     CB77502   7.703  20.458   7.021  0.0819 -0.0000  0.3036
 2030PEP     CB77503   7.366  20.532   7.231  0.0637  0.2973 -0.0890
 2030PEP     CB77504   6.967  20.780   7.425 -0.2611  0.4722 -0.0117
 2030PEP     CB77505   6.935  21.185   7.687 -0.2118 -0.0504  0.4133
 2030PEP     CB77506   7.175  21.563   7.726  0.0546 -0.0683  0.0901
 2030PEP     CB77507   7.668  21.711   7.885  0.0076 -0.2650 -0.1698
 2030PEP     CB77508   7.776  21.647   8.334 -0.1878 -0.3818 -0.2417
 2030PEP     CB77509   7.628  21.367   8.644 -0.3966  0.5898 -0.2276
 2030PEP     CB77510   7.546  20.940   8.457  0.1986 -0.0247 -0.1106
 2030PEP     CB77511   7.938  20.669   8.231  0.4506 -0.2061 -0.3765
 2030PEP     CB77512   8.072  20.200   8.338 -0.1389 -0.1422 -0.0214
 2030PEP     CB77513   7.802  19.946   8.638  0.1303  0.0296  0.2539
 2030PEP     CB77514   7.298  19.989   8.634 -0.3108  0.1650 -0.0211
 2030PEP     CB77515   6.995  20.174   8.366 -0.5278 -0.2563 -0.3646
 2030PEP     CB77516   6.570  20.489   8.247  0.0508  0.1470  0.0984
 2030PEP     CB77517   6.279  20.703   8.568 -0.0276  0.1631  0.1782
 2030PEP     CB77518   5.789  20.783   8.853 -0.3487  0.0864 -0.0275
 2030PEP     CB77519   5.667  21.138   9.251  0.0630 -0.2052  0.0346
 2030PEP     CB77520   5.426  21.526   9.365  0.0140 -0.1181  0.2241
 2031PEP     CB77521   5.969   4.656   1.354 -0.0442  0.1294  0.4957
 2031PEP     CB77522   5.997   4.461   0.959  0.0041 -0.0322 -0.0000
 2031PEP     CB77523   6.060   4.271   0.597 -0.2564 -0.1741  0.2076
 2031PEP     CB77524   6.209   3.975   0.307  0.0531 -0.0461  0.3720
 2031PEP     CB77525   6.431   4.061  -0.080 -0.0976  0.0054  0.0731
 2031PEP     CB77526   6.689   4.336  -0.444 -0.3143 -0.0417  0.2324
 2031PEP     CB77527   6.946   4.577  -0.591 -0.2375 -0.3335 -0.1187
 2031PEP     CB77528   7.168   4.815  -0.427 -0.0438 -0.1626 -0.2208
 2031PEP     CB77529   7.434   5.176  -0.211 -0.0082 -0.4457  0.0750
 2031PEP     CB77530   7.681   5.619  -0.187  0.1614  0.0143 -0.0792
 2031PEP     CB77531   8.058   5.788  -0.251  0.0011  0.2241 -0.1510
 2031PEP     CB77532   8.505   5.708  -0.045  0.0622  0.1969  0.0092
 2031PEP     CB77533   8.672   5.618   0.315  0.1138 -0.1623  0.0081
 2031PEP     CB77534   8.465   5.525   0.619  0.1035  0.0615  0.2276
 2031PEP     CB77535   8.103   5.135   0.544  0.0052  0.0490 -0.0894
 2031PEP     CB77536   7.703   5.189   0.328 -0.0246  0.1872 -0.0916
 2031PEP     CB77537   7.464   5.521   0.222 -0.2013  0.0081  0.1091
 2031PEP     CB77538   7.059   5.772   0.246 -0.3526  0.0437  0.3087
 2031PEP     CB77539   6.697   5.983   0.459 -0.0911 -0.4097 -0.4526
 2031PEP     CB77540   6.426   6.283   0.705  0.2280 -0.0391 -0.5257
 2031PEP     CB77541   6.480   6.682   0.824  0.0453 -0.1546  0.1816
 2031PEP     CB77542   6.956   6.814   1.096 -0.1124 -0.0839 -0.1926
 2031PEP     CB77543   7.294   6.731   1.232 -0.1581 -0.1397  0.0589
 2031PEP     CB77544   7.682   6.502   1.424  0.0581  0.2358  0.0320
 2031PEP     CB77545   7.970   6.184   1.450 -0.0193  0.3453  0.2040
 2031PEP     CB77546   7.995   5.750   1.474 -0.1861 -0.1158 -0.3403
 2031PEP     CB77547   7.699   5.438   1.407  0.1666 -0.0938  0.0784
 2031PEP     CB77548   7.269   5.467   1.610 -0.4654 -0.1745 -0.3223
 2031PEP     CB77549   7.032   5.735   1.887  0.4393  0.5546  0.1903
 2031PEP     CB77550   7.138   6.006   2.217 -0.0917  0.1783  0.1978
 2031PEP     CB77551   7.000   6.431   2.280 -0.0211  0.2941  0.2175
 2031PEP     CB77552   6.904   6.712   2.685  0.1834 -0.3013 -0.1181
 2031PEP     CB77553   6.834   6.607   3.125  0.1073  0.0238 -0.2420
 2031PEP     CB77554   6.682   6.767   3.553 -0.2574  0.0614 -0.0605
 2031PEP     CB77555   6.687   7.159   3.807 -0.2235 -0.1540 -0.0365
 2031PEP     CB77556   6.664   7.603   3.831 -0.1154 -0.1504 -0.0111
 2031PEP     CB77557   6.797   8.010   3.806  0.1480  0.0289  0.1562
 2031PEP     CB77558   7.063   8.320   3.997 -0.2681 -0.2883  0.3289
 2031PEP     CB77559   7.149   8.630   4.278 -0.1668 -0.0163 -0.3677
 2031PEP     CB77560   6.912   8.898   4.597 -0.3799 -0.0622 -0.5450
 2032PEP     CB77561  17.863  16.583   2.254  0.0023  0.2388  0.1505
 2032PEP     CB77562  17.618  16.254   2.252 -0.3440  0.1189 -0.2274
 2032PEP     CB77563  17.569  15.812   2.186  0.1665 -0.5909 -0.1290
 2032PEP     CB77564  17.273  15.424   2.215  0.1835  0.3435 -0.0260
 2032PEP     CB77565  16.969  15.156   2.557  0.2309 -0.0233 -0.2109
 2032PEP     CB77566  16.874  15.258   3.004 -0.4725  0.0532 -0.3445
 2032PEP     CB77567  16.819  14.961   3.300 -0.4802 -0.0228 -0.0229
 2032PEP     CB77568  16.756  14.788   3.713  0.0852  0.2248  0.1571
 2032PEP     CB77569  16.772  14.450   3.914 -0.0973 -0.1205 -0.0022
 2032PEP     CB77570  16.883  14.113   4.154 -0.0137  0.1973  0.1907
 2032PEP     CB77571  17.017  13.685   4.276  0.0616 -0.2695  0.2176
 2032PEP     CB77572  17.068  13.270   4.382 -0.0129  0.3342  0.1870
 2032PEP     CB77573  16.934  12.902   4.181  0.4166 -0.1773 -0.0918
 2032PEP     CB77574  16.752  12.881   3.761  0.1325 -0.0114  0.2414
 2032PEP     CB77575  16.768  13.108   3.403  0.0333  0.1307 -0.0097
 2032PEP     CB77576  16.469  13.378   3.227  0.1361  0.3872 -0.1923
 2032PEP     CB77577  16.138  13.540   3.488 -0.0505 -0.1878  0.4513
 2032PEP     CB77578  15.751  13.922   3.661  0.2171  0.4606  0.2620
 2032PEP     CB77579  15.475  14.251   3.468  0.0772 -0.2464 -0.2477
 2032PEP     CB77580  15.034  14.350   3.478 -0.4162 -0.3595  0.2273
 2032PEP     CB77581  14.593  14.443   3.530 -0.4811 -0.1505 -0.0160
 2032PEP     CB77582  14.300  14.181   3.813 -0.1362  0.0503 -0.1618
 2032PEP     CB77583  14.252  13.743   4.032  0.1227 -0.4472  0.1930
 2032PEP     CB77584  14.204  13.398   4.291  0.1404 -0.0409 -0.0617
 2032PEP     CB77585  14.047  13.361   4.729 -0.1591  0.1472 -0.0450
 2032PEP     CB77586  14.265  13.412   5.173  0.2981  0.1822  0.0354
 2032PEP     CB77587  14.626  13.341   5.445 -0.1413  0.1777 -0.3674
 2032PEP     CB77588  14.983  13.114   5.611 -0.0033 -0.0984  0.1876
 2032PEP     CB77589  15.321  13.110   5.866  0.0560  0.2211  0.2511
 2032PEP     CB77590  15.717  13.216   5.927 -0.1714 -0.0226 -0.6085
 2032PEP     CB77591  16.172  13.150   6.014  0.1815  0.3143  0.0534
 2032PEP     CB77592  16.552  13.294   5.988 -0.2139  0.1077 -0.1570
 2032PEP     CB77593  16.972  13.447   6.045  0.3318  0.2010 -0.0543
 2032PEP     CB77594  17.349  13.438   5.865  0.0460 -0.1729 -0.1868
 2032PEP     CB77595  17.773  13.398   6.041  0.3436  0.0570  0.1234
 2032PEP     CB77596  18.153  13.328   6.136  0.2411 -0.0076  0.0166
 2032PEP     CB77597  18.584  13.517   6.214 -0.2929 -0.4233 -0.0189
 2032PEP     CB77598  18.978  13.825   6.192  0.2145  0.0431 -0.0605
 2032PEP     CB77599  19.313  13.851   6.439  0.0174  0.4119  0.0233
 2032PEP     CB77600  19.483  14.087   6.820  0.0182  0.4891 -0.2705
 2033PEP     CB77601   7.237  19.892  16.571 -0.3379  0.0758 -0.2661
 2033PEP     CB77602   7.230  20.213  16.399  0.0520  0.1181 -0.0656
 2033PEP     CB77603   7.411  20.388  16.099  0.4232 -0.2651 -0.1904
 2033PEP     CB77604   7.654  20.233  15.733  0.0018  0.1382 -0.3307
 2033PEP     CB77605   7.699  19.740  15.574 -0.0369 -0.0257  0.1468
 2033PEP     CB77606   7.629  19.253  15.530 -0.3497 -0.3494  0.0603
 2033PEP     CB77607   7.515  19.048  15.168 -0.0712  0.0352  0.1206
 2033PEP     CB77608   7.770  18.907  14.842 -0.3483 -0.4059  0.1983
 2033PEP     CB77609   8.121  18.942  14.464  0.1642 -0.2344 -0.0424
 2033PEP     CB77610   8.031  18.923  13.962  0.0552  0.0156 -0.0894
 2033PEP     CB77611   8.120  18.794  13.551 -0.2119  0.3004  0.0521
 2033PEP     CB77612   8.182  18.500  13.424  0.2429  0.0679 -0.0843
 2033PEP     CB77613   8.299  18.056  13.174 -0.3519 -0.0676 -0.4413
 2033PEP     CB77614   8.410  17.686  12.874  0.2068  0.0965  0.0848
 2033PEP     CB77615   8.574  17.494  12.552 -0.4015 -0.1032  0.1772
 2033PEP     CB77616   8.675  17.546  12.148  0.0850  0.2631 -0.0801
 2033PEP     CB77617   8.767  17.572  11.740 -0.1868 -0.3602 -0.0114
 2033PEP     CB77618   8.866  17.880  11.491  0.0472 -0.0543 -0.3180
 2033PEP     CB77619   8.633  18.249  11.171  0.2780 -0.2969 -0.4434
 2033PEP     CB77620   8.550  18.487  10.695 -0.0967 -0.2660  0.3347
 2033PEP     CB77621   8.432  18.578  10.209 -0.1445 -0.2552 -0.1923
 2033PEP     CB77622   8.226  18.399   9.880  0.0614  0.2737 -0.2423
 2033PEP     CB77623   8.025  17.969   9.738  0.6002 -0.4586  0.3071
 2033PEP     CB77624   7.733  17.676   9.575 -0.0087 -0.0570 -0.2503
 2033PEP     CB77625   7.401  17.294   9.614  0.3258  0.0519  0.0060
 2033PEP     CB77626   7.341  16.775   9.703 -0.2195 -0.0286  0.2059
 2033PEP     CB77627   7.561  16.572   9.919 -0.1486 -0.0337  0.0389
 2033PEP     CB77628   7.977  16.432   9.963 -0.2670  0.1018  0.1821
 2033PEP     CB77629   8.394  16.426   9.974  0.0376  0.1437 -0.0511
 2033PEP     CB77630   8.843  16.329   9.776  0.1289  0.1396 -0.3983
 2033PEP     CB77631   9.144  16.237   9.543 -0.6179 -0.2186 -0.2174
 2033PEP     CB77632   9.154  16.038   9.065  0.1039 -0.0477 -0.3510
 2033PEP     CB77633   9.342  16.188   8.672 -0.2812  0.2583  0.0457
 2033PEP     CB77634   9.762  16.354   8.670  0.1579  0.4938 -0.2364
 2033PEP     CB77635   9.951  16.203   9.002  0.3441 -0.4529 -0.0878
 2033PEP     CB77636   9.692  15.867   9.201 -0.0657 -0.0668 -0.2216
 2033PEP     CB77637   9.463  15.588   9.017  0.2285 -0.0127  0.1454
 2033PEP     CB77638   9.220  15.179   8.933 -0.3653  0.0753 -0.1872
 2033PEP     CB77639   9.017  14.846   8.656  0.0305 -0.0944  0.1664
 2033PEP     CB77640   9.134  14.524   8.414 -0.3849 -0.2481  0.2195
 2034PEP     CB77641  18.439  21.673   4.270 -0.0110  0.1052 -0.3061
 2034PEP     CB77642  18.146  22.030   4.033 -0.2566 -0.0571  0.2336
 2034PEP     CB77643  18.061  22.470   4.057 -0.2311 -0.0684 -0.0077
 2034PEP     CB77644  18.149  22.932   4.166 -0.0451  0.4166 -0.3520
 2034PEP     CB77645  18.403  23.208   4.346  0.3400 -0.0108 -0.1476
 2034PEP     CB77646  18.594  23.302   4.909 -0.0159 -0.2628  0.0854
 2034PEP     CB77647  18.817  22.989   5.076 -0.2288 -0.1166  0.1858
 2034PEP     CB77648  19.071  22.712   5.201  0.1675 -0.0027 -0.1964
 2034PEP     CB77649  19.250  22.249   5.443 -0.1371  0.2043  0.1671
 2034PEP     CB77650  19.552  21.820   5.368  0.1066 -0.3006  0.1862
 2034PEP     CB77651  19.391  21.453   5.499 -0.1246  0.3776  0.3567
 2034PEP     CB77652  19.469  21.107   5.851  0.0873 -0.0042  0.0887
 2034PEP     CB77653  19.203  20.917   6.264 -0.3328  0.0723 -0.1943
 2034PEP     CB77654  18.757  20.743   6.576 -0.3646  0.0799 -0.2541
 2034PEP     CB77655  18.724  20.758   7.044 -0.1383  0.3500  0.1381
 2034PEP     CB77656  18.439  21.000   7.272  0.0803 -0.1421 -0.3188
 2034PEP     CB77657  18.378  21.373   7.371  0.0779 -0.3476 -0.3213
 2034PEP     CB77658  18.635  21.626   7.484 -0.0587  0.3370 -0.0796
 2034PEP     CB77659  18.996  21.895   7.450 -0.0574  0.1553  0.0339
 2034PEP     CB77660  19.363  21.891   7.653  0.1040 -0.1130  0.4382
 2034PEP     CB77661  19.426  21.840   8.038  0.2794 -0.3237  0.0137
 2034PEP     CB77662  19.189  21.485   8.285  0.1536 -0.2241 -0.2538
 2034PEP     CB77663  18.725  21.511   8.411 -0.0835 -0.0950 -0.0260
 2034PEP     CB77664  18.362  21.471   8.552  0.1119 -0.0936  0.1002
 2034PEP     CB77665  17.978  21.513   8.785 -0.2202 -0.0103 -0.3706
 2034PEP     CB77666  17.602  21.286   8.919  0.0325 -0.0453  0.1502
 2034PEP     CB77667  17.410  21.217   9.262 -0.2632 -0.1039  0.0754
 2034PEP     CB77668  17.217  21.533   9.408 -0.0770  0.2301 -0.1142
 2034PEP     CB77669  16.870  21.861   9.348  0.2389 -0.3840  0.0887
 2034PEP     CB77670  16.679  21.956   8.942  0.1281  0.0918  0.1076
 2034PEP     CB77671  16.884  22.051   8.507  0.1308  0.3326  0.1817
 2034PEP     CB77672  17.273  22.176   8.552 -0.0297  0.1055 -0.0720
 2034PEP     CB77673  17.337  22.284   8.976  0.0462 -0.2875 -0.0784
 2034PEP     CB77674  17.041  22.454   9.155  0.3735 -0.1482  0.2347
 2034PEP     CB77675  16.646  22.753   9.277 -0.3577  0.0359 -0.1734
 2034PEP     CB77676  16.244  22.922   9.474 -0.0863  0.4361 -0.2515
 2034PEP     CB77677  15.944  23.191   9.664  0.1431 -0.1144  0.0437
 2034PEP     CB77678  15.499  23.189   9.774  0.2341  0.1458 -0.0635
 2034PEP     CB77679  15.104  23.114   9.997  0.2098  0.1688 -0.0456
 2034PEP     CB77680  14.701  22.846  10.134 -0.0083 -0.0978  0.3655
 2035PEP     CB77681  13.899  13.470   7.347 -0.0492  0.0878 -0.1601
 2035PEP     CB77682  14.035  13.334   7.660  0.0103  0.3020 -0.0986
 2035PEP     CB77683  14.374  13.224   7.890 -0.0760  0.1432  0.0222
 2035PEP     CB77684  14.739  13.110   7.805  0.2395  0.0963  0.1830
 2035PEP     CB77685  14.763  12.947   7.391 -0.3275  0.0718  0.0071
 2035PEP     CB77686  14.842  12.964   6.923  0.1887 -0.2683 -0.0304
 2035PEP     CB77687  14.772  13.102   6.489 -0.0340 -0.4533 -0.0478
 2035PEP     CB77688  14.664  13.277   6.008 -0.0331  0.1862  0.0339
 2035PEP     CB77689  14.665  13.702   5.885 -0.3672  0.1243 -0.4121
 2035PEP     CB77690  14.429  14.104   5.743  0.0788  0.1481  0.2658
 2035PEP     CB77691  14.032  14.153   5.710  0.1964 -0.0733 -0.2388
 2035PEP     CB77692  13.727  13.898   5.365 -0.5994 -0.1396 -0.1157
 2035PEP     CB77693  13.618  13.512   5.196 -0.0375 -0.3463 -0.2034
 2035PEP     CB77694  13.255  13.272   5.415 -0.1791 -0.1336  0.1542
 2035PEP     CB77695  13.067  13.439   5.809 -0.0208  0.0192  0.1034
 2035PEP     CB77696  12.642  13.635   5.879 -0.0877 -0.0338  0.0967
 2035PEP     CB77697  12.476  13.495   5.496 -0.1364 -0.4039  0.0493
 2035PEP     CB77698  12.695  13.311   5.214  0.1173  0.2202 -0.3477
 2035PEP     CB77699  13.043  13.142   4.994  0.0751 -0.2500  0.3227
 2035PEP     CB77700  13.379  12.843   5.038  0.0944  0.1629  0.0699
 2035PEP     CB77701  13.665  12.408   5.077  0.0834  0.2674 -0.3673
 2035PEP     CB77702  13.827  11.958   5.274 -0.4245 -0.1566  0.2713
 2035PEP     CB77703  14.100  11.979   5.595  0.2231  0.0983 -0.2351
 2035PEP     CB77704  14.091  11.881   6.072 -0.3440  0.0346 -0.2637
 2035PEP     CB77705  14.067  12.097   6.438 -0.2099  0.2027 -0.2609
 2035PEP     CB77706  13.931  12.433   6.336 -0.1579 -0.2924  0.3857
 2035PEP     CB77707  13.821  12.895   6.274 -0.3375  0.2736  0.3812
 2035PEP     CB77708  13.789  13.349   6.339 -0.4801  0.0251  0.0807
 2035PEP     CB77709  13.489  13.729   6.441  0.3293 -0.3523  0.4637
 2035PEP     CB77710  13.335  14.182   6.355 -0.0079  0.2851 -0.2011
 2035PEP     CB77711  13.585  14.507   6.484 -0.1079 -0.0244 -0.0746
 2035PEP     CB77712  14.064  14.378   6.657  0.3326  0.1443  0.2834
 2035PEP     CB77713  14.279  14.016   6.751  0.2467 -0.0804 -0.0147
 2035PEP     CB77714  14.396  13.725   7.149 -0.2312  0.0681 -0.1305
 2035PEP     CB77715  14.547  13.533   7.582 -0.0894  0.2645  0.1700
 2035PEP     CB77716  14.921  13.559   7.936  0.2606  0.2913  0.2032
 2035PEP     CB77717  15.371  13.614   8.053 -0.3606 -0.0789 -0.2844
 2035PEP     CB77718  15.775  13.807   8.093 -0.1781 -0.0232  0.5059
 2035PEP     CB77719  16.165  13.644   7.950  0.0419  0.0256 -0.0967
 2035PEP     CB77720  16.624  13.620   7.856 -0.3337  0.1199 -0.1898
 2036PEP     CB77721  21.519  21.900   8.977  0.1853  0.1325  0.3378
 2036PEP     CB77722  21.367  22.061   9.338  0.3540  0.0892 -0.2613
 2036PEP     CB77723  21.132  22.294   9.649 -0.2909 -0.2122 -0.0708
 2036PEP     CB77724  20.942  22.773   9.861 -0.1342 -0.2786  0.2415
 2036PEP     CB77725  21.001  23.119  10.031 -0.0298  0.0418  0.0979
 2036PEP     CB77726  20.812  23.424  10.349  0.1354  0.1412 -0.1603
 2036PEP     CB77727  20.865  23.532  10.749  0.1623 -0.0449  0.2523
 2036PEP     CB77728  20.818  23.658  11.042  0.0517 -0.1748 -0.2838
 2036PEP     CB77729  20.692  23.502  11.415 -0.2845 -0.3360  0.4779
 2036PEP     CB77730  20.637  23.071  11.433  0.1171 -0.0354  0.1396
 2036PEP     CB77731  20.569  22.718  11.158 -0.3614  0.3171 -0.1190
 2036PEP     CB77732  20.556  22.186  11.194 -0.1134 -0.2902  0.0393
 2036PEP     CB77733  20.786  21.943  11.477  0.3479  0.5346  0.5658
 2036PEP     CB77734  21.200  21.925  11.702  0.0832 -0.0859 -0.1941
 2036PEP     CB77735  21.508  21.951  12.094  0.1318 -0.1159  0.0102
 2036PEP     CB77736  21.537  21.914  12.552 -0.1178 -0.1849 -0.1636
 2036PEP     CB77737  21.614  22.117  12.984  0.2108 -0.0740  0.0195
 2036PEP     CB77738  21.800  22.555  13.149  0.3937  0.0048 -0.2877
 2036PEP     CB77739  22.100  22.732  13.420 -0.1828  0.2204 -0.3803
 2036PEP     CB77740  22.150  22.648  13.849  0.0592 -0.1453  0.2477
 2036PEP     CB77741  22.036  22.284  14.128  0.0390 -0.2971 -0.2402
 2036PEP     CB77742  22.009  22.053  14.474 -0.2014  0.0145 -0.1950
 2036PEP     CB77743  21.828  22.154  14.837 -0.3540 -0.5083  0.1399
 2036PEP     CB77744  21.565  22.526  14.977 -0.4320  0.2697  0.0004
 2036PEP     CB77745  21.774  22.894  15.075 -0.1913 -0.1479 -0.1932
 2036PEP     CB77746  22.136  22.996  15.019  0.3738 -0.1642  0.4594
 2036PEP     CB77747  22.519  23.007  14.834  0.3064 -0.2111 -0.0605
 2036PEP     CB77748  23.005  23.004  14.830 -0.1098 -0.1038  0.0865
 2036PEP     CB77749  23.368  22.692  14.693 -0.0195 -0.0227  0.1194
 2036PEP     CB77750  23.494  22.351  14.421 -0.2518  0.0221 -0.3382
 2036PEP     CB77751  23.332  22.184  13.992 -0.0806 -0.0684  0.1789
 2036PEP     CB77752  23.183  22.294  13.550  0.1820 -0.1948  0.0746
 2036PEP     CB77753  22.809  22.527  13.311 -0.4173 -0.0342 -0.1530
 2036PEP     CB77754  22.658  22.857  13.333 -0.1200  0.2133  0.1446
 2036PEP     CB77755  22.577  23.191  13.675  0.2485 -0.2364  0.0053
 2036PEP     CB77756  22.749  23.301  14.102  0.0917 -0.0321  0.2801
 2036PEP     CB77757  23.225  23.296  14.126 -0.2695 -0.0099 -0.2363
 2036PEP     CB77758  23.377  23.180  13.720 -0.0763  0.3921  0.0652
 2036PEP     CB77759  23.086  22.919  13.572  0.0685 -0.1594 -0.0622
 2036PEP     CB77760  22.842  22.604  13.830  0.3924  0.0503 -0.0649
 2037PEP     CB77761   3.424   1.390   3.787 -0.1289  0.2211  0.3951
 2037PEP     CB77762   3.736   1.712   3.626 -0.2108 -0.1636 -0.3243
 2037PEP     CB77763   3.852   2.100   3.379 -0.2364  0.1452  0.1929
 2037PEP     CB77764   3.658   2.331   3.169 -0.2220 -0.1885 -0.0143
 2037PEP     CB77765   3.617   2.461   2.790  0.0355 -0.0010 -0.0948
 2037PEP     CB77766   3.441   2.522   2.382  0.0504  0.1542  0.2445
 2037PEP     CB77767   3.224   2.396   2.055 -0.1302  0.4664  0.2681
 2037PEP     CB77768   3.313   2.233   1.715 -0.0925 -0.0688  0.2568
 2037PEP     CB77769   3.576   2.127   1.346 -0.1254  0.0866 -0.1328
 2037PEP     CB77770   3.565   1.703   1.049  0.0401  0.2698  0.1124
 2037PEP     CB77771   3.283   1.325   1.012  0.0552  0.0925 -0.2576
 2037PEP     CB77772   2.916   1.221   0.666  0.1844  0.1268 -0.3447
 2037PEP     CB77773   2.605   1.054   0.415 -0.2586 -0.0959 -0.1771
 2037PEP     CB77774   2.148   1.253   0.235  0.0634  0.1299  0.3613
 2037PEP     CB77775   1.813   1.478   0.509  0.3946  0.1621 -0.0411
 2037PEP     CB77776   1.832   1.481   0.951 -0.0778  0.2720 -0.1858
 2037PEP     CB77777   2.037   1.383   1.355  0.0038 -0.1200  0.4645
 2037PEP     CB77778   2.368   1.026   1.404  0.2070  0.4259 -0.1050
 2037PEP     CB77779   2.317   0.661   1.109  0.1677 -0.0940 -0.2831
 2037PEP     CB77780   2.019   0.388   1.062 -0.3208  0.2207 -0.3140
 2037PEP     CB77781   1.768   0.125   1.090 -0.0616  0.1422 -0.1244
 2037PEP     CB77782   1.355   0.070   1.155 -0.0619 -0.2396  0.2634
 2037PEP     CB77783   1.240   0.286   1.506  0.1063  0.2651 -0.0578
 2037PEP     CB77784   1.558   0.577   1.709 -0.1556 -0.2359 -0.0180
 2037PEP     CB77785   1.868   0.822   1.494  0.3273  0.1003  0.1169
 2037PEP     CB77786   1.787   0.981   1.126  0.0501  0.2915 -0.0030
 2037PEP     CB77787   1.458   1.111   0.932  0.0495 -0.0949 -0.3728
 2037PEP     CB77788   0.991   1.336   1.065 -0.1742 -0.0146 -0.1713
 2037PEP     CB77789   0.556   1.299   0.921  0.0819 -0.0596  0.0474
 2037PEP     CB77790   0.319   0.925   0.873  0.2226 -0.1408 -0.0540
 2037PEP     CB77791   0.090   0.534   0.988 -0.2380  0.5967  0.0892
 2037PEP     CB77792  -0.318   0.398   0.995 -0.6533  0.3664 -0.2476
 2037PEP     CB77793  -0.726   0.460   0.984  0.0505  0.1304  0.1774
 2037PEP     CB77794  -1.033   0.228   0.782 -0.0881 -0.3850 -0.1696
 2037PEP     CB77795  -0.881  -0.106   0.534  0.2506 -0.6681 -0.0297
 2037PEP     CB77796  -0.657  -0.175   0.170 -0.0937 -0.4805 -0.1940
 2037PEP     CB77797  -0.349  -0.407  -0.004 -0.0812 -0.2541  0.2126
 2037PEP     CB77798  -0.232  -0.782  -0.172 -0.3412  0.1933  0.1407
 2037PEP     CB77799  -0.326  -1.100  -0.518  0.0940 -0.0637 -0.2805
 2037PEP     CB77800  -0.246  -1.242  -0.933  0.2919  0.3288 -0.0402
 2038PEP     CB77801   0.768  18.436  21.758  0.0743 -0.1101 -0.4333
 2038PEP     CB77802   0.700  18.154  21.443  0.0437 -0.4624 -0.2830
 2038PEP     CB77803   0.331  18.123  21.151  0.0929 -0.0226 -0.3335
 2038PEP     CB77804   0.080  18.154  20.754 -0.0994  0.0990 -0.4513
 2038PEP     CB77805  -0.204  18.137  20.427 -0.0095  0.0190  0.0120
 2038PEP     CB77806  -0.315  18.304  20.080 -0.1128  0.0157 -0.0928
 2038PEP     CB77807  -0.644  18.431  19.850 -0.0993  0.4192 -0.2251
 2038PEP     CB77808  -1.027  18.405  20.091  0.2764  0.1573  0.3894
 2038PEP     CB77809  -1.275  18.073  20.301  0.0596  0.3443  0.3527
 2038PEP     CB77810  -1.430  17.866  20.702  0.1294  0.3382 -0.0076
 2038PEP     CB77811  -1.398  17.459  20.962 -0.1642  0.1115  0.1995
 2038PEP     CB77812  -1.202  17.415  21.284 -0.1554 -0.2771  0.2795
 2038PEP     CB77813  -0.995  17.769  21.405  0.0452  0.0499  0.1648
 2038PEP     CB77814  -1.108  18.182  21.354  0.0096 -0.0148  0.1664
 2038PEP     CB77815  -1.341  18.423  21.067 -0.3222  0.1308 -0.1819
 2038PEP     CB77816  -1.464  18.453  20.709 -0.2132 -0.0373 -0.2059
 2038PEP     CB77817  -1.706  18.435  20.332 -0.0445 -0.2557 -0.3135
 2038PEP     CB77818  -2.074  18.511  20.265  0.1085 -0.2119  0.0304
 2038PEP     CB77819  -2.387  18.372  20.507  0.2036  0.4016  0.0819
 2038PEP     CB77820  -2.323  18.142  20.874  0.2829 -0.0044 -0.0709
 2038PEP     CB77821  -2.251  18.133  21.317 -0.1068 -0.0395 -0.0713
 2038PEP     CB77822  -2.284  17.874  21.798 -0.1924  0.2220  0.0317
 2038PEP     CB77823  -2.460  17.832  22.176  0.4336  0.2476  0.1249
 2038PEP     CB77824  -2.422  17.728  22.543  0.2126  0.1202 -0.0948
 2038PEP     CB77825  -2.161  17.667  23.026 -0.1123  0.2647 -0.0731
 2038PEP     CB77826  -1.967  17.469  23.356  0.0286  0.0113  0.0830
 2038PEP     CB77827  -2.143  17.451  23.800 -0.2518 -0.1148  0.2642
 2038PEP     CB77828  -2.473  17.367  24.019 -0.1966 -0.0323  0.0401
 2038PEP     CB77829  -2.893  17.691  23.970 -0.0653  0.0884  0.0577
 2038PEP     CB77830  -3.052  17.857  23.564 -0.0612 -0.0950  0.0912
 2038PEP     CB77831  -3.081  17.728  23.174  0.3185  0.1500 -0.5365
 2038PEP     CB77832  -3.102  17.445  22.758  0.1677  0.0527 -0.1771
 2038PEP     CB77833  -2.748  17.273  22.503 -0.0269 -0.0526 -0.0683
 2038PEP     CB77834  -2.447  17.184  22.223 -0.0117  0.1458  0.3595
 2038PEP     CB77835  -2.489  17.025  21.807 -0.1026  0.0241 -0.4734
 2038PEP     CB77836  -2.774  16.768  21.620 -0.1708 -0.1955  0.0188
 2038PEP     CB77837  -2.948  16.379  21.817  0.5204 -0.0407 -0.2316
 2038PEP     CB77838  -3.276  16.196  22.042 -0.0597 -0.0297 -0.1321
 2038PEP     CB77839  -3.586  16.184  22.306  0.0530  0.1220  0.1577
 2038PEP     CB77840  -3.942  16.289  22.634 -0.2145 -0.0720 -0.0908
 2039PEP     CB77841  19.318  16.042  11.438  0.2623 -0.7134  0.2237
 2039PEP     CB77842  19.644  16.354  11.372 -0.0029 -0.0102  0.2395
 2039PEP     CB77843  19.901  16.677  11.463 -0.4459  0.4184 -0.0900
 2039PEP     CB77844  20.331  16.927  11.555 -0.4195  0.0010  0.0271
 2039PEP     CB77845  20.564  17.193  11.579 -0.3824 -0.1694  0.2511
 2039PEP     CB77846  20.767  17.510  11.298  0.0422 -0.3206 -0.0084
 2039PEP     CB77847  20.835  17.945  11.145 -0.0270 -0.3011  0.1089
 2039PEP     CB77848  21.007  18.268  11.162  0.0224  0.0311  0.1703
 2039PEP     CB77849  21.043  18.715  10.995 -0.0390 -0.4360  0.4365
 2039PEP     CB77850  20.848  19.187  11.132  0.0468  0.3124  0.0095
 2039PEP     CB77851  20.421  19.238  11.336  0.1412  0.1387  0.1678
 2039PEP     CB77852  20.022  19.200  11.557 -0.3031 -0.0362 -0.1483
 2039PEP     CB77853  19.571  19.485  11.708  0.1586 -0.0237 -0.1620
 2039PEP     CB77854  19.267  19.848  11.674  0.0435 -0.2291  0.1035
 2039PEP     CB77855  19.330  20.262  11.707  0.2537 -0.4307  0.0990
 2039PEP     CB77856  19.232  20.477  12.074  0.2202  0.1532 -0.1106
 2039PEP     CB77857  18.827  20.474  12.287 -0.4840 -0.2007  0.0086
 2039PEP     CB77858  18.543  20.136  12.375 -0.1071 -0.2967  0.3367
 2039PEP     CB77859  18.590  19.778  12.063  0.1575  0.0650  0.1019
 2039PEP     CB77860  18.456  19.851  11.582  0.1456 -0.0157 -0.4307
 2039PEP     CB77861  18.434  19.987  11.163  0.0951  0.0101  0.0802
 2039PEP     CB77862  18.185  20.214  10.920  0.3686 -0.1761  0.1508
 2039PEP     CB77863  18.042  20.418  10.542  0.5477  0.0935 -0.0363
 2039PEP     CB77864  18.061  20.321  10.113  0.4319  0.2934  0.0785
 2039PEP     CB77865  18.076  19.954   9.815  0.1159 -0.0342  0.1914
 2039PEP     CB77866  18.427  19.689   9.632  0.1728 -0.3015 -0.1888
 2039PEP     CB77867  18.665  19.378   9.742 -0.4464  0.0445 -0.2238
 2039PEP     CB77868  19.025  18.885   9.598  0.1290 -0.2565  0.1791
 2039PEP     CB77869  19.330  18.643   9.757 -0.1130 -0.5896 -0.2992
 2039PEP     CB77870  19.714  18.536   9.869  0.0016  0.0545 -0.0130
 2039PEP     CB77871  20.154  18.584   9.857  0.1470  0.0185  0.4367
 2039PEP     CB77872  20.507  18.416  10.153  0.0320  0.2342 -0.1624
 2039PEP     CB77873  20.894  18.153  10.254  0.6886 -0.1355 -0.0767
 2039PEP     CB77874  21.025  17.774  10.073  0.0296  0.0600  0.4244
 2039PEP     CB77875  21.126  17.571   9.716 -0.0178  0.1098  0.2896
 2039PEP     CB77876  21.255  17.396   9.315  0.1226  0.1506 -0.0288
 2039PEP     CB77877  21.438  17.290   8.955  0.3432 -0.0079  0.0305
 2039PEP     CB77878  21.675  17.098   8.621 -0.0305 -0.0859  0.1145
 2039PEP     CB77879  22.000  16.835   8.650 -0.0650 -0.3168 -0.1914
 2039PEP     CB77880  22.229  16.604   8.905 -0.1703  0.0307 -0.1027
 2040PEP     CB77881  13.717  18.694  18.921 -0.0849 -0.0032  0.1678
 2040PEP     CB77882  13.940  19.029  18.945 -0.2101  0.2905  0.1464
 2040PEP     CB77883  14.135  19.422  18.901  0.2300  0.0361  0.0044
 2040PEP     CB77884  14.257  19.824  19.118 -0.4975 -0.3201 -0.0971
 2040PEP     CB77885  14.363  20.340  19.016  0.0035 -0.0721 -0.1559
 2040PEP     CB77886  14.161  20.699  18.845  0.5091 -0.0260 -0.1315
 2040PEP     CB77887  14.186  21.088  18.781 -0.2739  0.4225 -0.0786
 2040PEP     CB77888  14.136  21.390  18.497 -0.0450  0.0574 -0.3671
 2040PEP     CB77889  13.736  21.540  18.261 -0.4156  0.0506 -0.3940
 2040PEP     CB77890  13.315  21.731  18.395  0.0046 -0.1608  0.4986
 2040PEP     CB77891  13.271  22.128  18.544  0.3885  0.2283  0.4334
 2040PEP     CB77892  13.167  22.382  18.880 -0.1194  0.4612  0.1819
 2040PEP     CB77893  13.037  22.647  19.129  0.1753 -0.1448  0.1152
 2040PEP     CB77894  12.597  22.788  19.031 -0.0153  0.1250  0.0022
 2040PEP     CB77895  12.426  22.443  18.791 -0.1613 -0.1463 -0.1660
 2040PEP     CB77896  12.691  22.215  18.469 -0.3480  0.0435  0.1811
 2040PEP     CB77897  12.996  22.335  18.094  0.4879 -0.0772 -0.1643
 2040PEP     CB77898  13.353  22.582  18.112 -0.2708 -0.2174 -0.0572
 2040PEP     CB77899  13.590  22.709  18.498 -0.0673  0.4294  0.0049
 2040PEP     CB77900  13.928  22.596  18.766  0.1942 -0.0897  0.3012
 2040PEP     CB77901  14.173  22.283  18.810 -0.1195 -0.1809 -0.2611
 2040PEP     CB77902  14.472  22.049  18.555  0.1760  0.0819 -0.3404
 2040PEP     CB77903  14.561  21.985  18.179  0.2027 -0.3433 -0.1491
 2040PEP     CB77904  14.733  22.208  17.853 -0.0552 -0.3967  0.0474
 2040PEP     CB77905  14.924  22.477  17.496 -0.0101 -0.2892 -0.1865
 2040PEP     CB77906  15.033  22.527  17.064  0.1746 -0.5583 -0.2243
 2040PEP     CB77907  15.307  22.573  16.761 -0.0773  0.0471  0.2563
 2040PEP     CB77908  15.406  22.916  16.457  0.2696  0.0031  0.2123
 2040PEP     CB77909  15.644  23.181  16.207  0.6737 -0.1551  0.1283
 2040PEP     CB77910  15.766  23.214  15.704 -0.1202  0.0208 -0.4404
 2040PEP     CB77911  15.681  22.995  15.346  0.2059  0.1284  0.0063
 2040PEP     CB77912  15.376  22.724  15.014  0.1680  0.1002  0.5357
 2040PEP     CB77913  15.043  22.798  14.914 -0.1521  0.0469 -0.2902
 2040PEP     CB77914  14.844  23.206  14.858  0.0333 -0.7537  0.2117
 2040PEP     CB77915  14.877  23.622  15.200 -0.2815  0.6040  0.1740
 2040PEP     CB77916  14.708  23.685  15.647  0.2913  0.0586 -0.0167
 2040PEP     CB77917  14.336  23.423  15.847 -0.2188  0.1943  0.0267
 2040PEP     CB77918  13.921  23.150  15.652 -0.1820  0.0073  0.0375
 2040PEP     CB77919  13.715  23.041  15.179  0.1182  0.1277 -0.4047
 2040PEP     CB77920  13.650  23.030  14.740  0.3147 -0.1540  0.0374
 2041PEP     CB77921  20.370  11.149   9.915 -0.2245  0.0811 -0.3069
 2041PEP     CB77922  20.599  11.504  10.144  0.2555  0.3464 -0.1634
 2041PEP     CB77923  20.987  11.685  10.124 -0.1971  0.0361  0.2070
 2041PEP     CB77924  21.420  11.839  10.013  0.0527 -0.2151  0.1871
 2041PEP     CB77925  21.809  11.638   9.898  0.0322 -0.0016  0.2798
 2041PEP     CB77926  21.875  11.253   9.795 -0.0502 -0.0277  0.2424
 2041PEP     CB77927  21.942  10.743   9.815  0.0798 -0.1471 -0.1439
 2041PEP     CB77928  21.792  10.525   9.497 -0.0793  0.2744 -0.1829
 2041PEP     CB77929  21.546  10.272   9.355  0.1264  0.0375  0.0807
 2041PEP     CB77930  21.300   9.857   9.288  0.1830 -0.0001 -0.2035
 2041PEP     CB77931  20.972   9.706   9.431 -0.1447  0.1630  0.1637
 2041PEP     CB77932  20.804   9.423   9.674  0.0662 -0.2953 -0.1222
 2041PEP     CB77933  20.537   9.152   9.791 -0.6343 -0.0494 -0.4472
 2041PEP     CB77934  20.216   8.949   9.651 -0.2825 -0.2460  0.3208
 2041PEP     CB77935  19.788   8.950   9.667  0.2548 -0.0443  0.6684
 2041PEP     CB77936  19.659   8.744   9.939  0.1354  0.2508  0.0714
 2041PEP     CB77937  19.354   8.415  10.042 -0.1456 -0.0204  0.4483
 2041PEP     CB77938  18.974   8.358   9.882 -0.0061 -0.2102  0.0232
 2041PEP     CB77939  18.754   8.180   9.519 -0.2984  0.2806  0.2085
 2041PEP     CB77940  18.580   8.322   9.141  0.2995 -0.2814 -0.1296
 2041PEP     CB77941  18.300   8.229   8.777  0.4467  0.0575 -0.0518
 2041PEP     CB77942  17.969   8.302   8.669 -0.1088  0.0546  0.3142
 2041PEP     CB77943  17.664   8.647   8.819 -0.2958  0.0540  0.3256
 2041PEP     CB77944  17.845   8.961   9.054  0.5212  0.2672 -0.1064
 2041PEP     CB77945  18.240   9.119   9.225  0.0982 -0.2608  0.0639
 2041PEP     CB77946  18.613   9.246   9.377  0.5335 -0.2024  0.0552
 2041PEP     CB77947  18.886   9.544   9.390  0.1240 -0.1777 -0.0122
 2041PEP     CB77948  19.056   9.940   9.443 -0.3006 -0.4221 -0.2232
 2041PEP     CB77949  19.476  10.151   9.427  0.2456 -0.2738  0.1740
 2041PEP     CB77950  19.570  10.403   9.730  0.2437 -0.1909  0.2830
 2041PEP     CB77951  19.395  10.554  10.080 -0.1463 -0.0376  0.4125
 2041PEP     CB77952  19.215  10.910  10.265  0.4331 -0.0411 -0.3850
 2041PEP     CB77953  19.504  11.339  10.464  0.2575 -0.1707  0.0276
 2041PEP     CB77954  19.817  11.215  10.685  0.3527  0.1322 -0.0609
 2041PEP     CB77955  19.907  10.892  10.964 -0.3465  0.3340 -0.0768
 2041PEP     CB77956  19.709  10.564  11.081  0.3892  0.2202 -0.1523
 2041PEP     CB77957  19.367  10.373  11.019  0.1111  0.1800  0.2638
 2041PEP     CB77958  19.105   9.960  11.146 -0.0845 -0.4686 -0.3822
 2041PEP     CB77959  18.911   9.771  11.559  0.2023 -0.1015  0.3684
 2041PEP     CB77960  18.556   9.577  11.717 -0.2040  0.1296  0.0721
 2042PEP     CB77961   4.300  19.026   1.527  0.1305  0.1218  0.3903
 2042PEP     CB77962   4.197  19.105   1.067 -0.3067 -0.2960 -0.3640
 2042PEP     CB77963   3.710  19.330   0.999 -0.0268  0.0518  0.1791
 2042PEP     CB77964   3.563  19.323   1.376 -0.0981  0.1584 -0.1414
 2042PEP     CB77965   3.695  19.009   1.705 -0.1870 -0.0336  0.0908
 2042PEP     CB77966   3.733  18.594   1.596 -0.0289 -0.0152 -0.2682
 2042PEP     CB77967   3.610  18.241   1.223  0.0204  0.1814  0.1615
 2042PEP     CB77968   3.574  18.191   0.778 -0.1274 -0.3811 -0.1198
 2042PEP     CB77969   3.600  18.245   0.392 -0.4118 -0.4161 -0.0095
 2042PEP     CB77970   3.306  18.207   0.035  0.0881 -0.3805 -0.3530
 2042PEP     CB77971   2.890  18.076   0.014  0.1087  0.0885 -0.4584
 2042PEP     CB77972   2.712  18.025   0.434  0.0316 -0.2156  0.2256
 2042PEP     CB77973   2.503  18.317   0.750  0.0436  0.2670 -0.3287
 2042PEP     CB77974   2.181  18.485   0.965  0.2212  0.2962 -0.0534
 2042PEP     CB77975   2.167  18.782   1.400 -0.0499 -0.0543 -0.0344
 2042PEP     CB77976   2.240  19.164   1.569 -0.3803  0.3196  0.0845
 2042PEP     CB77977   2.332  19.542   1.717 -0.0541  0.0937  0.2698
 2042PEP     CB77978   2.314  19.793   2.136  0.0270 -0.2485  0.2357
 2042PEP     CB77979   2.262  19.691   2.598 -0.3335 -0.0380 -0.1815
 2042PEP     CB77980   1.821  19.781   2.760 -0.2292 -0.3605 -0.1204
 2042PEP     CB77981   1.650  20.045   2.634  0.2449 -0.0719 -0.1587
 2042PEP     CB77982   1.317  20.206   2.245 -0.0305  0.1367 -0.1798
 2042PEP     CB77983   1.265  20.171   1.806 -0.4430  0.0200 -0.1774
 2042PEP     CB77984   1.493  20.239   1.452  0.0127  0.1398  0.0781
 2042PEP     CB77985   1.749  19.890   1.333  0.2914 -0.0073  0.1139
 2042PEP     CB77986   1.828  19.485   1.513  0.1246  0.1477  0.3567
 2042PEP     CB77987   1.947  19.405   1.964 -0.2901 -0.2333 -0.0052
 2042PEP     CB77988   1.961  19.333   2.483 -0.4950 -0.2526  0.5883
 2042PEP     CB77989   2.159  19.332   2.912 -0.2478  0.1240  0.0354
 2042PEP     CB77990   2.308  19.132   3.187 -0.1203 -0.8004  0.3600
 2042PEP     CB77991   2.383  18.694   3.285 -0.4790  0.2971 -0.1790
 2042PEP     CB77992   2.595  18.299   3.205 -0.3920  0.0331  0.1293
 2042PEP     CB77993   2.778  17.827   3.185  0.0857  0.1747 -0.1323
 2042PEP     CB77994   2.895  17.361   3.195  0.3729 -0.0915 -0.3858
 2042PEP     CB77995   3.197  17.146   3.371 -0.1505  0.0505  0.2467
 2042PEP     CB77996   3.555  17.306   3.656 -0.3668 -0.2763  0.1367
 2042PEP     CB77997   3.510  17.706   3.719  0.2239 -0.1068 -0.3578
 2042PEP     CB77998   3.641  18.148   3.547  0.0357 -0.0873  0.1395
 2042PEP     CB77999   3.675  18.572   3.423 -0.4238  0.0305 -0.0775
 2042PEP     CB78000   3.792  18.914   3.326 -0.2003 -0.1584 -0.1891
 2043PEP     CB78001   0.878  20.419  17.655 -0.1358 -0.1876  0.0163
 2043PEP     CB78002   0.842  20.174  17.264  0.1043 -0.0516 -0.0586
 2043PEP     CB78003   1.117  20.120  16.844  0.1179  0.4561  0.3937
 2043PEP     CB78004   1.324  20.071  16.604  0.1336  0.1211  0.4758
 2043PEP     CB78005   1.600  20.131  16.222 -0.0685  0.1775 -0.4598
 2043PEP     CB78006   1.961  20.277  16.111  0.6129 -0.2453 -0.2378
 2043PEP     CB78007   2.135  20.503  15.754 -0.2994 -0.4876  0.0740
 2043PEP     CB78008   2.326  20.628  15.391 -0.0849 -0.2135 -0.0410
 2043PEP     CB78009   2.519  20.659  15.077  0.0075  0.2524  0.0711
 2043PEP     CB78010   2.616  20.546  14.712  0.0687  0.0193 -0.0686
 2043PEP     CB78011   2.497  20.542  14.286  0.0193  0.2451  0.0009
 2043PEP     CB78012   2.111  20.353  14.137  0.1458  0.0295 -0.1056
 2043PEP     CB78013   1.687  20.410  14.189 -0.5502 -0.3200 -0.0830
 2043PEP     CB78014   1.473  20.595  13.819 -0.1413  0.3905  0.2134
 2043PEP     CB78015   1.710  20.796  13.521  0.0364  0.0329 -0.3102
 2043PEP     CB78016   1.965  21.128  13.624 -0.1916  0.3742 -0.1498
 2043PEP     CB78017   2.266  21.439  13.609  0.0924  0.0080 -0.0970
 2043PEP     CB78018   2.571  21.782  13.596  0.1663 -0.3109  0.2346
 2043PEP     CB78019   2.942  21.917  13.427 -0.0010  0.4107  0.0473
 2043PEP     CB78020   2.980  21.973  13.025 -0.3676  0.2326 -0.3487
 2043PEP     CB78021   3.158  21.787  12.653 -0.5406  0.0468 -0.1231
 2043PEP     CB78022   3.527  21.719  12.281  0.0872  0.1249  0.0747
 2043PEP     CB78023   3.874  21.608  12.272 -0.0698  0.2609  0.1401
 2043PEP     CB78024   4.237  21.917  12.362  0.1808  0.0653  0.3416
 2043PEP     CB78025   4.235  22.326  12.566  0.0293  0.1878 -0.0759
 2043PEP     CB78026   4.510  22.656  12.431 -0.0054  0.0512  0.1456
 2043PEP     CB78027   4.732  22.561  12.013  0.1386 -0.1190 -0.0860
 2043PEP     CB78028   4.689  22.182  11.692  0.1856 -0.0604  0.0305
 2043PEP     CB78029   4.735  21.758  11.774  0.0542 -0.2195  0.0192
 2043PEP     CB78030   4.720  21.370  11.923  0.1964 -0.0392  0.0980
 2043PEP     CB78031   4.775  20.946  11.730 -0.2152 -0.0713 -0.0032
 2043PEP     CB78032   4.884  20.521  11.747  0.2418 -0.2857 -0.0724
 2043PEP     CB78033   5.045  20.195  11.966  0.2821 -0.2017 -0.1872
 2043PEP     CB78034   5.194  19.957  12.212  0.2211 -0.1400  0.3412
 2043PEP     CB78035   5.362  19.673  12.456 -0.2731  0.1368 -0.1496
 2043PEP     CB78036   5.220  19.381  12.705 -0.0147 -0.1333  0.4592
 2043PEP     CB78037   5.086  19.216  13.154 -0.2349 -0.2867 -0.0114
 2043PEP     CB78038   5.191  18.959  13.442 -0.3690  0.1450  0.1033
 2043PEP     CB78039   5.592  18.850  13.624  0.0459 -0.2930 -0.2096
 2043PEP     CB78040   5.963  19.075  13.633 -0.0861  0.2146  0.0848
 2044PEP     CB78041  21.511  18.566  18.544 -0.3846  0.0268  0.0725
 2044PEP     CB78042  21.266  18.247  18.544  0.0026  0.0559  0.4184
 2044PEP     CB78043  21.145  17.869  18.607 -0.0844 -0.0601 -0.1979
 2044PEP     CB78044  20.868  17.518  18.599  0.3375  0.4423  0.2615
 2044PEP     CB78045  20.637  17.283  18.381 -0.3214  0.2211 -0.1028
 2044PEP     CB78046  20.725  16.920  18.261  0.0133 -0.0834  0.4526
 2044PEP     CB78047  21.147  16.797  18.149 -0.2273 -0.2642  0.1150
 2044PEP     CB78048  21.463  16.942  17.825 -0.3395  0.2169 -0.0163
 2044PEP     CB78049  21.855  16.766  17.558  0.3472  0.6484  0.2434
 2044PEP     CB78050  22.216  16.695  17.357 -0.2965 -0.3657 -0.0029
 2044PEP     CB78051  22.515  16.808  17.066  0.2912 -0.4840  0.6115
 2044PEP     CB78052  22.725  17.156  16.854  0.2184 -0.0660  0.1225
 2044PEP     CB78053  22.922  17.136  16.467 -0.1707 -0.4038  0.3365
 2044PEP     CB78054  23.229  16.763  16.366  0.1520 -0.1838  0.1122
 2044PEP     CB78055  23.345  16.424  16.695  0.2453  0.1073 -0.1073
 2044PEP     CB78056  23.005  16.177  16.921 -0.1208  0.5593  0.0231
 2044PEP     CB78057  22.571  16.239  17.066 -0.3818 -0.1443 -0.1205
 2044PEP     CB78058  22.128  16.276  17.081  0.1938  0.0648  0.3319
 2044PEP     CB78059  21.880  16.766  17.028  0.3403 -0.2582  0.1467
 2044PEP     CB78060  22.090  17.181  17.128  0.0074  0.2005  0.1392
 2044PEP     CB78061  22.142  17.372  17.474  0.1592  0.1724  0.0270
 2044PEP     CB78062  21.924  17.260  17.887  0.2435 -0.0402  0.2692
 2044PEP     CB78063  21.488  17.305  18.182  0.4786 -0.1797  0.0835
 2044PEP     CB78064  21.161  17.081  18.528  0.3025 -0.2084  0.4627
 2044PEP     CB78065  20.943  16.789  18.774  0.3025 -0.5440 -0.3299
 2044PEP     CB78066  20.881  16.353  18.924  0.2865 -0.3051  0.1239
 2044PEP     CB78067  20.903  16.019  19.275  0.1019  0.1867 -0.2313
 2044PEP     CB78068  21.199  15.668  19.552 -0.0883  0.1672 -0.2108
 2044PEP     CB78069  21.200  15.540  19.926 -0.2873 -0.3298  0.0076
 2044PEP     CB78070  21.027  15.758  20.238  0.3559  0.0663  0.1816
 2044PEP     CB78071  20.773  15.754  20.559  0.1627 -0.2178 -0.0241
 2044PEP     CB78072  20.389  15.504  20.620  0.0611  0.2167 -0.1501
 2044PEP     CB78073  20.129  15.237  20.537 -0.2830  0.5493 -0.1860
 2044PEP     CB78074  20.144  14.776  20.469  0.6351 -0.4140 -0.1023
 2044PEP     CB78075  20.237  14.360  20.342 -0.0611 -0.0433 -0.0965
 2044PEP     CB78076  20.139  14.155  20.003  0.0089 -0.1659  0.0955
 2044PEP     CB78077  19.855  14.005  19.720  0.4936 -0.0278  0.4055
 2044PEP     CB78078  19.451  13.944  19.516 -0.2156  0.2261 -0.1351
 2044PEP     CB78079  19.036  13.950  19.295 -0.2183  0.1159  0.0942
 2044PEP     CB78080  18.891  14.046  18.849 -0.0751  0.0447 -0.3152
 2045PEP     CB78081  13.547  18.322  13.892  0.3317  0.2364  0.2163
 2045PEP     CB78082  13.771  18.512  13.557  0.1355 -0.4599  0.1647
 2045PEP     CB78083  14.049  18.258  13.313  0.2774 -0.1980  0.1384
 2045PEP     CB78084  13.949  17.911  13.213 -0.2284 -0.2320  0.2513
 2045PEP     CB78085  13.593  17.627  13.352  0.1846  0.0813  0.4760
 2045PEP     CB78086  13.211  17.647  13.616 -0.0533 -0.1405  0.3759
 2045PEP     CB78087  13.105  18.012  13.730 -0.4236  0.0000  0.1692
 2045PEP     CB78088  13.303  18.443  13.465  0.0575 -0.1339 -0.0705
 2045PEP     CB78089  13.528  18.748  13.134  0.5945 -0.4830 -0.0161
 2045PEP     CB78090  13.576  19.248  12.908  0.1427 -0.1430 -0.4733
 2045PEP     CB78091  13.484  19.705  12.771  0.1405  0.2491 -0.2861
 2045PEP     CB78092  13.437  20.134  12.866 -0.0759 -0.1631  0.0984
 2045PEP     CB78093  13.739  20.312  13.140  0.0544  0.0504  0.2739
 2045PEP     CB78094  14.109  20.101  13.296  0.2576 -0.1004 -0.2758
 2045PEP     CB78095  14.551  20.279  13.192  0.0885  0.0284 -0.2671
 2045PEP     CB78096  14.699  20.674  13.047  0.1750 -0.1607  0.1982
 2045PEP     CB78097  14.543  21.056  12.845  0.0030  0.0163 -0.0392
 2045PEP     CB78098  14.473  21.524  12.960  0.2158 -0.0017 -0.4701
 2045PEP     CB78099  14.527  21.957  13.044 -0.1186 -0.0058  0.3775
 2045PEP     CB78100  14.521  22.423  13.208  0.4422 -0.1200  0.2061
 2045PEP     CB78101  14.755  22.526  13.457 -0.2942  0.0552  0.0680
 2045PEP     CB78102  15.220  22.437  13.522  0.1163  0.1880  0.3959
 2045PEP     CB78103  15.570  22.478  13.238 -0.0664 -0.0663  0.1896
 2045PEP     CB78104  15.554  22.701  12.857 -0.1626 -0.1101  0.1616
 2045PEP     CB78105  15.599  23.006  12.554  0.0320  0.1342 -0.4590
 2045PEP     CB78106  15.479  23.375  12.308 -0.0882  0.0622  0.0968
 2045PEP     CB78107  15.711  23.583  11.953  0.2143  0.2782  0.0349
 2045PEP     CB78108  15.779  23.804  11.664  0.2031  0.0102  0.1790
 2045PEP     CB78109  15.590  23.765  11.282 -0.2238 -0.1925 -0.0350
 2045PEP     CB78110  15.620  23.618  10.754 -0.0378  0.0486  0.0629
 2045PEP     CB78111  15.837  23.657  10.360 -0.0013  0.0368  0.0977
 2045PEP     CB78112  15.748  23.937   9.906  0.0070  0.1707  0.1772
 2045PEP     CB78113  15.571  24.175   9.538 -0.0929  0.1115 -0.2114
 2045PEP     CB78114  15.463  24.450   9.228  0.1569 -0.0214 -0.1795
 2045PEP     CB78115  15.094  24.691   9.101 -0.2532  0.1856 -0.1918
 2045PEP     CB78116  14.689  24.603   9.077  0.1048 -0.1743 -0.0919
 2045PEP     CB78117  14.266  24.533   9.123 -0.1463 -0.1625  0.0580
 2045PEP     CB78118  13.954  24.154   9.103  0.2728  0.2521  0.2365
 2045PEP     CB78119  13.692  23.956   9.265  0.0293  0.3911  0.2745
 2045PEP     CB78120  13.219  23.666   9.332  0.1085  0.2101  0.1561
 2046PEP     CB78121   1.122   7.437   4.909 -0.2332  0.0976  0.1283
 2046PEP     CB78122   1.169   7.344   5.325 -0.0784  0.2218  0.4540
 2046PEP     CB78123   1.074   7.344   5.674 -0.2811  0.1306 -0.0908
 2046PEP     CB78124   1.236   7.368   6.070 -0.3416  0.2403  0.5593
 2046PEP     CB78125   1.419   7.452   6.427  0.1703  0.0509 -0.3232
 2046PEP     CB78126   1.738   7.589   6.725  0.0617  0.3446  0.0980
 2046PEP     CB78127   2.127   7.647   6.826 -0.0075 -0.2353 -0.0629
 2046PEP     CB78128   2.342   7.883   7.138 -0.2679 -0.3503  0.0085
 2046PEP     CB78129   2.258   7.932   7.520  0.0293 -0.3349  0.0730
 2046PEP     CB78130   1.858   7.902   7.772 -0.3131  0.0228  0.2203
 2046PEP     CB78131   1.533   7.592   7.914 -0.0989 -0.0610 -0.0940
 2046PEP     CB78132   1.346   7.128   7.873  0.2406 -0.1130 -0.0549
 2046PEP     CB78133   1.451   6.682   7.544  0.2640 -0.0757  0.1382
 2046PEP     CB78134   1.832   6.635   7.262 -0.0938  0.0475 -0.2853
 2046PEP     CB78135   2.180   6.873   7.243  0.2259 -0.0158 -0.0532
 2046PEP     CB78136   2.263   7.357   7.256 -0.0590  0.1500 -0.0225
 2046PEP     CB78137   1.922   7.557   7.299 -0.3791 -0.1547 -0.1800
 2046PEP     CB78138   1.462   7.593   7.392  0.3404 -0.0746  0.0305
 2046PEP     CB78139   1.135   7.522   7.567 -0.2034 -0.0012  0.1382
 2046PEP     CB78140   0.863   7.212   7.667 -0.1658 -0.3879 -0.1710
 2046PEP     CB78141   0.996   6.740   7.668  0.2874 -0.2726 -0.4174
 2046PEP     CB78142   0.965   6.382   7.345 -0.1336 -0.2419 -0.1795
 2046PEP     CB78143   0.940   6.146   7.052  0.1170  0.6132 -0.3433
 2046PEP     CB78144   1.197   5.848   6.897 -0.0714 -0.5227 -0.0784
 2046PEP     CB78145   1.679   5.778   6.785 -0.3244  0.0685 -0.1614
 2046PEP     CB78146   2.054   5.526   6.804  0.0253  0.1852  0.3201
 2046PEP     CB78147   2.429   5.565   6.497  0.3116  0.1748 -0.2583
 2046PEP     CB78148   2.667   5.782   6.218 -0.1281 -0.3102  0.0890
 2046PEP     CB78149   2.785   6.099   5.956  0.2381 -0.2970  0.0860
 2046PEP     CB78150   2.654   6.517   5.959  0.1136  0.1034  0.0352
 2046PEP     CB78151   2.440   6.817   6.197  0.1039 -0.0858  0.3483
 2046PEP     CB78152   2.285   7.117   6.524  0.3304  0.0931  0.1320
 2046PEP     CB78153   1.999   7.153   6.806  0.3224 -0.1530 -0.0551
 2046PEP     CB78154   1.542   7.141   6.858 -0.0587 -0.2994  0.3825
 2046PEP     CB78155   1.115   7.438   6.955  0.4709  0.0748 -0.2865
 2046PEP     CB78156   0.765   7.756   6.948  0.2982  0.3101  0.0018
 2046PEP     CB78157   0.322   7.961   6.787 -0.1594 -0.0749 -0.1589
 2046PEP     CB78158  -0.092   7.795   6.850 -0.0359  0.1316  0.4223
 2046PEP     CB78159  -0.304   7.466   6.638  0.0454 -0.2380 -0.1953
 2046PEP     CB78160  -0.337   7.074   6.627 -0.1113 -0.1315 -0.1785
 2047PEP     CB78161   4.035  20.144  18.077  0.2557  0.0844 -0.3974
 2047PEP     CB78162   3.830  20.542  18.069 -0.2510 -0.3145  0.0614
 2047PEP     CB78163   3.654  20.804  18.205 -0.2609 -0.0023  0.1789
 2047PEP     CB78164   3.498  21.057  18.465 -0.0870  0.1386 -0.0683
 2047PEP     CB78165   3.518  21.438  18.430 -0.0523 -0.3222 -0.1378
 2047PEP     CB78166   3.696  21.624  18.132  0.1078  0.0344 -0.4853
 2047PEP     CB78167   3.778  21.880  17.830  0.2213  0.0689  0.1369
 2047PEP     CB78168   3.892  22.221  17.581 -0.0004 -0.3380 -0.2574
 2047PEP     CB78169   3.984  22.587  17.431  0.1197  0.5646 -0.0478
 2047PEP     CB78170   3.708  22.932  17.364  0.2831 -0.1640 -0.1802
 2047PEP     CB78171   3.295  22.937  17.509  0.2456 -0.1857 -0.4630
 2047PEP     CB78172   3.064  23.003  17.875  0.0213 -0.0299 -0.1581
 2047PEP     CB78173   2.823  23.397  18.004 -0.2491  0.2591  0.3834
 2047PEP     CB78174   2.847  23.642  17.725 -0.3115  0.0109  0.0148
 2047PEP     CB78175   2.721  23.539  17.235 -0.1436 -0.7392  0.1056
 2047PEP     CB78176   2.305  23.478  17.118 -0.3882 -0.1278 -0.3037
 2047PEP     CB78177   1.838  23.270  17.076  0.0758  0.0246  0.4834
 2047PEP     CB78178   1.749  22.957  16.736 -0.1246 -0.5403  0.0764
 2047PEP     CB78179   1.518  22.618  16.640  0.0606  0.0516 -0.1662
 2047PEP     CB78180   1.318  22.450  16.973 -0.2733  0.2796 -0.3070
 2047PEP     CB78181   1.026  22.654  17.151  0.1519 -0.3218 -0.4227
 2047PEP     CB78182   0.756  22.986  17.079  0.2080 -0.0562  0.5095
 2047PEP     CB78183   0.400  23.292  17.076  0.2240  0.1233 -0.1896
 2047PEP     CB78184  -0.042  23.264  16.978 -0.0630 -0.0095  0.0324
 2047PEP     CB78185  -0.360  23.011  17.072  0.0348  0.1580 -0.2496
 2047PEP     CB78186  -0.212  22.518  17.175 -0.2823 -0.5914 -0.1749
 2047PEP     CB78187   0.133  22.349  17.404 -0.2004 -0.3170  0.0056
 2047PEP     CB78188   0.376  22.189  17.716  0.1504 -0.0884 -0.0278
 2047PEP     CB78189   0.618  21.883  18.083 -0.1686 -0.2012 -0.2312
 2047PEP     CB78190   0.821  21.837  18.456  0.1942  0.3120  0.0165
 2047PEP     CB78191   0.965  21.782  18.831 -0.1020 -0.0617 -0.1765
 2047PEP     CB78192   1.357  21.795  19.146  0.5300 -0.4490 -0.0789
 2047PEP     CB78193   1.645  22.087  19.369  0.2766  0.0845 -0.0210
 2047PEP     CB78194   2.208  22.279  19.297  0.0875 -0.2034  0.0891
 2047PEP     CB78195   2.405  22.464  18.933 -0.0839 -0.2024 -0.0564
 2047PEP     CB78196   2.721  22.647  18.742  0.0401 -0.3264  0.1188
 2047PEP     CB78197   2.854  23.079  18.865  0.0564  0.2235 -0.1995
 2047PEP     CB78198   3.102  23.389  19.078  0.0434  0.0918  0.6045
 2047PEP     CB78199   3.410  23.625  19.335 -0.1848 -0.1203 -0.2026
 2047PEP     CB78200   3.432  23.537  19.746  0.0710  0.1550 -0.3062
 2048PEP     CB78201  17.731   9.920  12.575 -0.1568 -0.0802 -0.6211
 2048PEP     CB78202  17.322   9.915  12.433 -0.0964 -0.3061  0.1476
 2048PEP     CB78203  16.896   9.775  12.455 -0.1754 -0.1017  0.2064
 2048PEP     CB78204  16.691   9.335  12.625 -0.0150 -0.2621 -0.2524
 2048PEP     CB78205  16.818   9.038  12.907 -0.2250  0.1880 -0.3872
 2048PEP     CB78206  17.095   8.726  13.174  0.1244  0.0100  0.0772
 2048PEP     CB78207  17.370   8.361  13.155 -0.3496 -0.1822  0.0882
 2048PEP     CB78208  17.535   7.887  13.160  0.2426 -0.0879 -0.0486
 2048PEP     CB78209  17.240   7.502  13.265  0.0588 -0.1978  0.0049
 2048PEP     CB78210  17.087   7.166  13.242 -0.1596  0.1679 -0.1044
 2048PEP     CB78211  17.118   6.693  13.299 -0.0719  0.0940 -0.0758
 2048PEP     CB78212  17.281   6.405  13.585 -0.2276  0.1942 -0.1533
 2048PEP     CB78213  17.407   6.423  13.966  0.3039  0.4460 -0.1863
 2048PEP     CB78214  17.388   6.812  14.192  0.5266 -0.1339 -0.2088
 2048PEP     CB78215  17.345   7.259  14.146 -0.5194  0.0019  0.2023
 2048PEP     CB78216  17.208   7.720  13.764  0.3518  0.0584 -0.2045
 2048PEP     CB78217  17.457   8.022  13.698  0.1234 -0.2619  0.1585
 2048PEP     CB78218  17.885   8.154  13.735 -0.0381 -0.4703  0.0815
 2048PEP     CB78219  18.132   8.408  13.980 -0.0244  0.0044 -0.0851
 2048PEP     CB78220  17.900   8.667  14.323  0.1623 -0.3258 -0.1167
 2048PEP     CB78221  17.587   8.890  14.319 -0.0546 -0.0491  0.1469
 2048PEP     CB78222  17.194   8.913  14.477  0.2965 -0.0924 -0.2071
 2048PEP     CB78223  17.044   9.040  14.932 -0.4188 -0.0978  0.3964
 2048PEP     CB78224  17.212   8.926  15.285  0.1866 -0.0024 -0.4092
 2048PEP     CB78225  17.046   8.522  15.401  0.0193  0.3507 -0.2953
 2048PEP     CB78226  16.825   8.263  15.096 -0.2010  0.2470 -0.2178
 2048PEP     CB78227  16.534   8.496  14.707 -0.1078  0.3057 -0.1776
 2048PEP     CB78228  16.251   8.859  14.844 -0.0107 -0.3340 -0.0435
 2048PEP     CB78229  16.215   9.030  15.259 -0.4897  0.2601 -0.0991
 2048PEP     CB78230  16.299   8.722  15.613 -0.0162 -0.0527  0.4317
 2048PEP     CB78231  16.507   8.361  15.567 -0.1588 -0.1292  0.1369
 2048PEP     CB78232  16.839   8.129  15.637 -0.2495 -0.2685  0.0671
 2048PEP     CB78233  17.116   7.960  16.003  0.2149  0.3129  0.0640
 2048PEP     CB78234  16.816   7.964  16.386  0.0124  0.1535  0.1927
 2048PEP     CB78235  16.373   7.968  16.414 -0.2874  0.1551 -0.0065
 2048PEP     CB78236  16.109   7.896  16.084  0.0082 -0.0516  0.1946
 2048PEP     CB78237  16.207   7.572  15.843  0.2810  0.0856 -0.1463
 2048PEP     CB78238  16.517   7.567  15.632 -0.0722  0.0080 -0.4052
 2048PEP     CB78239  16.920   7.664  15.551 -0.0004 -0.0997 -0.1540
 2048PEP     CB78240  17.252   7.640  15.594 -0.4608 -0.1413 -0.4137
 2049PEP     CB78241   4.138  21.694  21.835 -0.1960 -0.0750  0.0173
 2049PEP     CB78242   3.855  21.626  21.435 -0.0707 -0.1563 -0.1334
 2049PEP     CB78243   3.514  21.758  21.184 -0.1316 -0.0375  0.0832
 2049PEP     CB78244   3.236  22.220  21.147  0.0817 -0.0314  0.2839
 2049PEP     CB78245   2.769  22.284  21.078 -0.1518  0.0597  0.1289
 2049PEP     CB78246   2.493  22.037  20.969 -0.0360  0.1135  0.0455
 2049PEP     CB78247   2.578  21.605  20.985 -0.1770  0.1967  0.0003
 2049PEP     CB78248   2.894  21.490  21.175  0.2030  0.1331 -0.0565
 2049PEP     CB78249   3.051  21.804  21.423  0.5717  0.1815  0.0317
 2049PEP     CB78250   2.914  22.250  21.626  0.2310 -0.0288 -0.0065
 2049PEP     CB78251   2.907  22.658  21.405 -0.2102  0.1596  0.0781
 2049PEP     CB78252   2.964  22.734  20.959  0.2072 -0.0508 -0.0160
 2049PEP     CB78253   3.032  22.567  20.569 -0.2444  0.0684 -0.0320
 2049PEP     CB78254   3.084  22.471  20.173 -0.1946  0.3124 -0.1690
 2049PEP     CB78255   2.734  22.317  19.879  0.0859 -0.4308  0.0445
 2049PEP     CB78256   2.531  22.522  19.635 -0.2891 -0.0697 -0.1730
 2049PEP     CB78257   2.125  22.707  19.699  0.1152  0.0711 -0.1329
 2049PEP     CB78258   1.787  22.907  20.005  0.0858  0.1355  0.1410
 2049PEP     CB78259   1.415  23.056  20.060 -0.0364  0.1721 -0.1694
 2049PEP     CB78260   1.272  23.502  20.125  0.1027 -0.2130  0.0818
 2049PEP     CB78261   1.570  23.833  20.396  0.1702  0.1618 -0.1996
 2049PEP     CB78262   1.930  23.653  20.628  0.0301  0.1038  0.2917
 2049PEP     CB78263   2.251  23.483  20.431  0.1893  0.2535  0.1335
 2049PEP     CB78264   2.308  23.316  20.093 -0.1350  0.1269  0.0176
 2049PEP     CB78265   2.571  22.929  19.937  0.0232 -0.1712 -0.1440
 2049PEP     CB78266   2.963  22.778  19.818 -0.6539 -0.1295  0.1305
 2049PEP     CB78267   3.400  22.571  19.697 -0.5015  0.1985 -0.1440
 2049PEP     CB78268   3.718  22.229  19.749 -0.3676 -0.1796 -0.1485
 2049PEP     CB78269   3.767  21.790  19.724 -0.2456  0.1416 -0.0502
 2049PEP     CB78270   3.892  21.414  19.874  0.2716  0.3704  0.3094
 2049PEP     CB78271   3.837  21.050  19.964 -0.0531 -0.2982 -0.2423
 2049PEP     CB78272   3.476  20.763  20.015  0.1831  0.3070 -0.0582
 2049PEP     CB78273   3.267  20.505  19.738 -0.1732  0.0430  0.3179
 2049PEP     CB78274   3.191  20.712  19.260  0.0644 -0.2797 -0.2621
 2049PEP     CB78275   3.337  20.969  19.004  0.0508 -0.0010  0.2314
 2049PEP     CB78276   3.495  21.434  18.930  0.5784  0.1134 -0.0180
 2049PEP     CB78277   3.476  21.927  18.906  0.0108 -0.1406 -0.3568
 2049PEP     CB78278   3.285  22.342  18.909 -0.2074 -0.0162 -0.4942
 2049PEP     CB78279   3.246  22.750  18.751 -0.3257  0.1754 -0.3238
 2049PEP     CB78280   3.392  23.130  18.786  0.1751 -0.2081 -0.1791
 2050PEP     CB78281   5.435   0.358  15.281  0.2336 -0.4562  0.1377
 2050PEP     CB78282   5.746   0.416  15.043 -0.1864 -0.4184  0.0207
 2050PEP     CB78283   6.065   0.539  14.763 -0.1939 -0.3817 -0.2025
 2050PEP     CB78284   6.386   0.810  14.511 -0.3283  0.0082 -0.1288
 2050PEP     CB78285   6.722   1.191  14.583  0.3305  0.0604 -0.2290
 2050PEP     CB78286   6.939   1.478  14.805 -0.4271 -0.0079  0.2768
 2050PEP     CB78287   7.026   1.686  15.140  0.0992  0.3700  0.1670
 2050PEP     CB78288   7.191   1.696  15.517  0.3540 -0.3307 -0.0816
 2050PEP     CB78289   7.609   1.468  15.679  0.1901 -0.2821  0.0837
 2050PEP     CB78290   7.574   0.990  15.592 -0.0628 -0.2924  0.1213
 2050PEP     CB78291   7.274   0.831  15.330 -0.2623  0.1610  0.5097
 2050PEP     CB78292   6.855   0.600  15.280  0.6671  0.3530  0.2725
 2050PEP     CB78293   6.492   0.411  14.961  0.1987  0.1627  0.5462
 2050PEP     CB78294   6.117   0.092  15.038  0.3624 -0.0482 -0.0608
 2050PEP     CB78295   5.771  -0.074  15.234  0.0974 -0.1294  0.3074
 2050PEP     CB78296   5.763  -0.388  15.590 -0.2362  0.0057  0.0881
 2050PEP     CB78297   5.590  -0.764  15.729 -0.0988  0.1562  0.0917
 2050PEP     CB78298   5.757  -1.229  15.902  0.0831 -0.0706 -0.0460
 2050PEP     CB78299   6.237  -1.342  16.065 -0.6069 -0.1005  0.0325
 2050PEP     CB78300   6.685  -1.108  16.254  0.2450 -0.0491  0.0950
 2050PEP     CB78301   7.041  -0.842  16.089  0.0925 -0.1594  0.3012
 2050PEP     CB78302   7.075  -0.582  15.730 -0.0140  0.2611  0.0194
 2050PEP     CB78303   6.842  -0.366  15.366  0.0959 -0.2234  0.0907
 2050PEP     CB78304   6.914  -0.041  15.046 -0.0433  0.4233  0.0243
 2050PEP     CB78305   7.014   0.359  14.877 -0.1571  0.1198 -0.2103
 2050PEP     CB78306   6.821   0.771  14.820 -0.2436  0.0237 -0.0699
 2050PEP     CB78307   6.447   0.968  14.984  0.1045 -0.0115  0.1991
 2050PEP     CB78308   6.074   0.846  15.205  0.4666  0.0708  0.0296
 2050PEP     CB78309   5.650   0.824  15.358 -0.3349  0.1597  0.1474
 2050PEP     CB78310   5.264   0.896  15.552 -0.3075  0.2628 -0.3634
 2050PEP     CB78311   4.843   0.883  15.682 -0.0528 -0.2167 -0.0127
 2050PEP     CB78312   4.427   0.682  15.745 -0.1871  0.2408  0.2437
 2050PEP     CB78313   4.025   0.490  15.535 -0.0651 -0.1151  0.0817
 2050PEP     CB78314   3.874   0.646  15.182  0.1052  0.1073 -0.0461
 2050PEP     CB78315   3.729   1.018  14.997  0.0387 -0.1407 -0.1904
 2050PEP     CB78316   3.398   1.299  14.998  0.1136 -0.1763 -0.0590
 2050PEP     CB78317   3.236   1.677  14.859  0.1325 -0.0342 -0.4127
 2050PEP     CB78318   2.871   1.866  14.561 -0.2487 -0.1248 -0.3739
 2050PEP     CB78319   2.856   1.961  14.158 -0.0963 -0.0291 -0.1990
 2050PEP     CB78320   2.717   2.128  13.811  0.1143  0.0141 -0.0675
 2051PEP     CB78321  11.695  17.298   2.210 -0.0433 -0.2731  0.3353
 2051PEP     CB78322  11.373  17.289   2.426 -0.1498 -0.1306  0.2804
 2051PEP     CB78323  11.349  17.446   2.906 -0.6485 -0.0156  0.2021
 2051PEP     CB78324  11.710  17.672   3.122 -0.0218 -0.4894  0.2173
 2051PEP     CB78325  12.109  17.761   2.974 -0.2322 -0.1064 -0.1643
 2051PEP     CB78326  12.548  17.844   2.891  0.0795  0.0475 -0.2762
 2051PEP     CB78327  12.936  18.084   3.006 -0.2334  0.0024 -0.0815
 2051PEP     CB78328  13.023  18.237   3.355  0.0106 -0.1242  0.2114
 2051PEP     CB78329  13.394  18.433   3.593  0.3198 -0.2675 -0.4130
 2051PEP     CB78330  13.412  18.840   3.760  0.1960 -0.2063  0.0689
 2051PEP     CB78331  13.278  19.176   3.619  0.2736 -0.2291  0.2826
 2051PEP     CB78332  13.010  19.032   3.240  0.2060  0.0464  0.0005
 2051PEP     CB78333  12.774  18.701   3.469 -0.1655 -0.0460 -0.2119
 2051PEP     CB78334  12.801  18.642   3.864  0.0887 -0.5108  0.0827
 2051PEP     CB78335  13.107  18.480   4.040  0.0263 -0.0714 -0.2015
 2051PEP     CB78336  13.379  18.183   4.005  0.0595 -0.0151 -0.1438
 2051PEP     CB78337  13.558  17.769   3.737  0.0180  0.0648  0.2749
 2051PEP     CB78338  13.758  17.350   3.793 -0.1465 -0.0680 -0.1698
 2051PEP     CB78339  13.984  17.140   4.199 -0.3366 -0.0694 -0.1199
 2051PEP     CB78340  13.858  16.987   4.643 -0.3823 -0.0769 -0.2776
 2051PEP     CB78341  13.892  16.641   4.920  0.1025  0.1645 -0.1059
 2051PEP     CB78342  14.047  16.637   5.410  0.0805 -0.0434  0.4935
 2051PEP     CB78343  14.479  16.684   5.571 -0.0072  0.0301  0.0140
 2051PEP     CB78344  14.771  16.714   5.222  0.4625 -0.1319  0.0531
 2051PEP     CB78345  15.029  16.590   4.847  0.0041 -0.1664  0.0906
 2051PEP     CB78346  15.382  16.586   4.601 -0.1767 -0.4600  0.1261
 2051PEP     CB78347  15.753  16.525   4.629  0.0588 -0.2947  0.1408
 2051PEP     CB78348  16.105  16.664   4.830  0.0694 -0.0839  0.0760
 2051PEP     CB78349  16.489  16.706   5.088  0.0202 -0.4483  0.0492
 2051PEP     CB78350  16.912  16.885   5.073 -0.1714 -0.0884  0.0884
 2051PEP     CB78351  17.400  17.007   5.076  0.0684 -0.1249  0.2343
 2051PEP     CB78352  17.848  16.978   5.329 -0.0771 -0.1197  0.2913
 2051PEP     CB78353  17.993  16.992   5.739  0.0218 -0.0815  0.4304
 2051PEP     CB78354  18.126  16.921   6.196  0.0591 -0.1563 -0.0379
 2051PEP     CB78355  18.347  16.681   6.563  0.2149 -0.2991 -0.2999
 2051PEP     CB78356  18.211  16.325   6.872 -0.6716 -0.0103 -0.2494
 2051PEP     CB78357  17.853  15.991   6.799 -0.3641  0.1472 -0.3225
 2051PEP     CB78358  17.430  16.095   6.714  0.4439  0.3073 -0.0811
 2051PEP     CB78359  17.247  16.405   6.553  0.2356  0.1454 -0.0512
 2051PEP     CB78360  17.385  16.789   6.490 -0.1017 -0.1597 -0.1859
 2052PEP     CB78361   3.398  21.964   7.149 -0.2222  0.1379 -0.2086
 2052PEP     CB78362   3.480  21.559   7.282 -0.0194  0.2802  0.0057
 2052PEP     CB78363   3.301  21.318   7.524 -0.0404  0.2682 -0.0319
 2052PEP     CB78364   2.954  21.305   7.673 -0.0317 -0.3102  0.1936
 2052PEP     CB78365   2.604  21.036   7.525 -0.0452  0.0712 -0.2447
 2052PEP     CB78366   2.242  21.054   7.310 -0.1586  0.6451  0.0579
 2052PEP     CB78367   1.901  20.871   7.202 -0.1559 -0.1725  0.2981
 2052PEP     CB78368   1.490  20.670   7.262 -0.4011  0.1613  0.1174
 2052PEP     CB78369   1.323  20.233   7.320  0.1740 -0.0661  0.2018
 2052PEP     CB78370   1.090  19.842   7.472  0.1501 -0.3249 -0.0146
 2052PEP     CB78371   0.831  19.506   7.589  0.1560 -0.3953 -0.2980
 2052PEP     CB78372   0.699  19.182   7.800  0.1177 -0.1123 -0.2799
 2052PEP     CB78373   0.890  18.947   8.116  0.2843 -0.3784  0.1774
 2052PEP     CB78374   1.338  19.017   8.315 -0.0648 -0.3279  0.0376
 2052PEP     CB78375   1.664  19.086   8.089 -0.1202  0.0874 -0.4508
 2052PEP     CB78376   2.017  18.938   8.032 -0.0948 -0.0114  0.0255
 2052PEP     CB78377   2.179  18.714   8.338 -0.1524 -0.4849  0.0202
 2052PEP     CB78378   2.464  18.361   8.509  0.2114 -0.1308 -0.1782
 2052PEP     CB78379   2.559  18.290   8.985 -0.0359  0.0671 -0.1383
 2052PEP     CB78380   2.504  18.097   9.386 -0.1763 -0.1093  0.1417
 2052PEP     CB78381   2.209  17.855   9.516 -0.2538  0.3212  0.1197
 2052PEP     CB78382   2.002  17.480   9.325  0.1178 -0.0756 -0.2318
 2052PEP     CB78383   1.860  17.541   8.845  0.1777 -0.3389 -0.2140
 2052PEP     CB78384   1.806  17.647   8.307 -0.2032 -0.0419 -0.0220
 2052PEP     CB78385   1.791  17.708   7.903  0.4273  0.0417  0.1620
 2052PEP     CB78386   1.892  17.529   7.542 -0.1160  0.2129 -0.1017
 2052PEP     CB78387   1.932  17.305   7.184 -0.3540  0.1047 -0.0798
 2052PEP     CB78388   1.811  17.108   6.837 -0.2955  0.1036 -0.2587
 2052PEP     CB78389   1.924  17.073   6.513  0.0538 -0.3746  0.2274
 2052PEP     CB78390   2.336  17.225   6.303 -0.2967  0.1650 -0.0040
 2052PEP     CB78391   2.628  17.435   6.542  0.0760  0.1989  0.0170
 2052PEP     CB78392   2.658  17.516   6.992  0.1428 -0.0803  0.0953
 2052PEP     CB78393   2.803  17.569   7.366  0.1698 -0.3261  0.2324
 2052PEP     CB78394   2.734  17.617   7.785  0.3201  0.6087  0.3341
 2052PEP     CB78395   2.771  17.460   8.104 -0.2516 -0.1101 -0.2885
 2052PEP     CB78396   3.142  17.397   8.274 -0.3440  0.1494  0.2990
 2052PEP     CB78397   3.482  17.479   7.985  0.2385  0.0598 -0.1931
 2052PEP     CB78398   3.325  17.587   7.625  0.3159 -0.0979 -0.0607
 2052PEP     CB78399   3.244  17.535   7.214  0.1765  0.1555 -0.1471
 2052PEP     CB78400   3.147  17.539   6.765  0.3422 -0.0554 -0.4100
 2053PEP     CB78401  12.440   1.268   8.464  0.1720  0.1721  0.2709
 2053PEP     CB78402  12.570   1.221   8.946 -0.2411  0.0932  0.0445
 2053PEP     CB78403  12.660   1.264   9.330  0.2288 -0.1117  0.0101
 2053PEP     CB78404  12.780   1.591   9.616 -0.1318  0.2548  0.0208
 2053PEP     CB78405  12.842   1.661  10.145 -0.5075 -0.2090 -0.4658
 2053PEP     CB78406  12.814   1.543  10.559 -0.0742 -0.0867 -0.1220
 2053PEP     CB78407  12.962   1.122  10.850  0.1615 -0.3079 -0.0298
 2053PEP     CB78408  13.338   0.940  10.867  0.0750  0.2071 -0.4028
 2053PEP     CB78409  13.710   1.128  10.662  0.2418  0.6236  0.0597
 2053PEP     CB78410  13.787   1.496  10.468  0.2947  0.0879  0.2694
 2053PEP     CB78411  13.992   1.793  10.312  0.0334  0.1515 -0.0648
 2053PEP     CB78412  14.405   1.800  10.229 -0.2333  0.1587  0.0055
 2053PEP     CB78413  14.810   1.928  10.410 -0.2292 -0.0361 -0.3405
 2053PEP     CB78414  14.970   2.173  10.662 -0.0837  0.2081 -0.1887
 2053PEP     CB78415  15.347   2.457  10.774 -0.1028 -0.1634 -0.0244
 2053PEP     CB78416  15.690   2.607  10.875 -0.0549 -0.4913  0.0835
 2053PEP     CB78417  15.776   2.938  11.020 -0.2787  0.0743  0.0183
 2053PEP     CB78418  15.704   3.225  11.277 -0.4776  0.0830 -0.0132
 2053PEP     CB78419  15.722   3.629  11.076 -0.2063 -0.1157  0.0437
 2053PEP     CB78420  15.418   3.605  10.710 -0.0363 -0.0444 -0.2282
 2053PEP     CB78421  15.032   3.635  10.823  0.1711 -0.0853 -0.3139
 2053PEP     CB78422  14.930   3.461  11.154 -0.1699 -0.1651 -0.1787
 2053PEP     CB78423  15.166   3.378  11.521 -0.1924 -0.4085  0.1697
 2053PEP     CB78424  15.578   3.570  11.587  0.1402  0.0750  0.2214
 2053PEP     CB78425  15.998   3.589  11.478 -0.4709 -0.2894  0.2780
 2053PEP     CB78426  16.246   3.945  11.487 -0.1565  0.1397  0.4090
 2053PEP     CB78427  16.179   4.396  11.608  0.5417  0.4065 -0.2781
 2053PEP     CB78428  15.760   4.658  11.493 -0.2596 -0.0986 -0.2562
 2053PEP     CB78429  15.404   4.573  11.729  0.1935  0.2526 -0.0000
 2053PEP     CB78430  15.435   4.287  12.034 -0.1485  0.1312  0.3158
 2053PEP     CB78431  15.802   4.210  12.281 -0.4201 -0.0161  0.0661
 2053PEP     CB78432  15.981   4.548  12.461  0.0929  0.2410 -0.1183
 2053PEP     CB78433  15.864   4.592  12.875 -0.1039  0.1050  0.0817
 2053PEP     CB78434  15.765   4.317  13.300 -0.1907  0.4893  0.0271
 2053PEP     CB78435  15.880   4.339  13.701 -0.0993 -0.2032 -0.0369
 2053PEP     CB78436  15.686   4.241  14.132 -0.1567 -0.0503  0.0413
 2053PEP     CB78437  15.468   3.885  14.268  0.0307 -0.2042  0.2323
 2053PEP     CB78438  15.498   3.528  13.895 -0.2307  0.0725  0.2367
 2053PEP     CB78439  15.844   3.409  13.601 -0.2774 -0.0359  0.2091
 2053PEP     CB78440  16.138   3.384  13.339 -0.0084  0.0779 -0.2995
 2054PEP     CB78441  20.895   5.693  21.000  0.1452 -0.2128 -0.0164
 2054PEP     CB78442  21.271   5.650  20.978 -0.0438  0.0206  0.1459
 2054PEP     CB78443  21.514   5.818  21.222 -0.1195  0.1530 -0.1678
 2054PEP     CB78444  21.935   6.070  21.255 -0.0129 -0.0597 -0.1839
 2054PEP     CB78445  22.095   6.324  21.033  0.3013  0.4427  0.0818
 2054PEP     CB78446  22.264   6.645  20.887 -0.3321  0.3391 -0.1751
 2054PEP     CB78447  22.289   6.880  20.597  0.0831 -0.0853  0.1095
 2054PEP     CB78448  22.266   7.141  20.196 -0.2236  0.2874 -0.1863
 2054PEP     CB78449  22.338   7.252  19.732  0.2123 -0.1364  0.1134
 2054PEP     CB78450  22.459   7.063  19.397 -0.0752 -0.1557  0.0825
 2054PEP     CB78451  22.583   6.725  19.125 -0.3507  0.2126 -0.2292
 2054PEP     CB78452  22.662   6.301  19.223  0.2753  0.0354  0.0015
 2054PEP     CB78453  22.538   5.934  19.405  0.2783  0.0190  0.2307
 2054PEP     CB78454  22.336   5.509  19.503  0.0400  0.2712  0.0594
 2054PEP     CB78455  22.220   5.102  19.313 -0.1922  0.1793  0.1893
 2054PEP     CB78456  22.459   4.866  19.071  0.0027 -0.2029 -0.0146
 2054PEP     CB78457  22.759   5.083  18.702  0.2080 -0.0343 -0.1211
 2054PEP     CB78458  22.721   5.514  18.660  0.1731  0.2353  0.0775
 2054PEP     CB78459  22.487   5.919  18.748  0.0828 -0.2103  0.0170
 2054PEP     CB78460  22.366   6.362  18.759  0.0535 -0.3082  0.4231
 2054PEP     CB78461  22.661   6.756  18.607  0.0188  0.4328 -0.0002
 2054PEP     CB78462  23.045   6.905  18.499 -0.3938  0.0938 -0.0444
 2054PEP     CB78463  23.473   6.753  18.327  0.3542 -0.4466  0.2025
 2054PEP     CB78464  23.882   6.776  18.071  0.3134  0.2069 -0.5036
 2054PEP     CB78465  24.182   7.101  18.124 -0.2760  0.3358  0.2244
 2054PEP     CB78466  24.225   7.463  18.067 -0.3578 -0.3035  0.0219
 2054PEP     CB78467  24.009   7.858  18.093 -0.0780 -0.0222  0.1456
 2054PEP     CB78468  23.997   8.294  18.183 -0.0567  0.0264 -0.1046
 2054PEP     CB78469  24.177   8.354  18.648  0.3100 -0.1991 -0.1379
 2054PEP     CB78470  24.561   8.436  18.763  0.4825 -0.1430 -0.0977
 2054PEP     CB78471  24.938   8.449  18.603  0.4221  0.2711 -0.2881
 2054PEP     CB78472  25.364   8.380  18.488  0.1057 -0.1907  0.0992
 2054PEP     CB78473  25.629   8.023  18.342  0.0782 -0.4310 -0.1435
 2054PEP     CB78474  25.640   7.712  18.047  0.0297  0.0868 -0.0376
 2054PEP     CB78475  25.411   7.496  17.777  0.0996  0.2605 -0.2303
 2054PEP     CB78476  24.936   7.445  17.613 -0.4185 -0.1132 -0.1026
 2054PEP     CB78477  24.539   7.474  17.514  0.0221  0.2947 -0.1521
 2054PEP     CB78478  24.032   7.581  17.619  0.0966 -0.0008  0.3162
 2054PEP     CB78479  23.733   7.348  17.892 -0.0242  0.0310 -0.5633
 2054PEP     CB78480  23.501   7.183  18.160  0.0742  0.1793  0.3293
 2055PEP     CB78481  16.875  16.370   2.569 -0.3917 -0.2997  0.2005
 2055PEP     CB78482  17.312  16.338   2.683 -0.0947  0.3446 -0.1013
 2055PEP     CB78483  17.613  16.606   2.707 -0.1184  0.2759 -0.3487
 2055PEP     CB78484  17.993  16.955   2.830  0.5114 -0.3027 -0.3318
 2055PEP     CB78485  18.352  16.895   3.139  0.0086 -0.0834  0.3150
 2055PEP     CB78486  18.588  16.558   3.461  0.3165 -0.3511  0.1023
 2055PEP     CB78487  18.878  16.235   3.449  0.2147 -0.1279  0.0591
 2055PEP     CB78488  18.877  15.794   3.286 -0.0054  0.1751 -0.0239
 2055PEP     CB78489  19.002  15.551   2.906  0.0723 -0.0601 -0.0495
 2055PEP     CB78490  19.253  15.174   2.794 -0.1052  0.5303 -0.2333
 2055PEP     CB78491  19.339  14.805   3.042 -0.3002  0.0024  0.3857
 2055PEP     CB78492  19.127  14.677   3.389  0.0135  0.2826  0.0994
 2055PEP     CB78493  18.930  15.068   3.708 -0.0393 -0.1614  0.0470
 2055PEP     CB78494  19.179  15.455   3.734  0.1545 -0.0439  0.0924
 2055PEP     CB78495  19.636  15.393   3.761 -0.0354 -0.0412  0.1277
 2055PEP     CB78496  19.798  14.979   3.725 -0.2285  0.0236  0.1380
 2055PEP     CB78497  19.631  14.626   3.950 -0.2950 -0.1429  0.1645
 2055PEP     CB78498  19.554  14.518   4.361 -0.2871 -0.3264 -0.3673
 2055PEP     CB78499  19.572  14.680   4.843  0.1147 -0.1588 -0.2285
 2055PEP     CB78500  19.382  14.932   5.194  0.0123 -0.3954  0.1143
 2055PEP     CB78501  19.202  14.704   5.566  0.1247 -0.2235  0.1845
 2055PEP     CB78502  19.428  14.241   5.599 -0.4092 -0.1264 -0.2658
 2055PEP     CB78503  19.921  14.161   5.758  0.3430 -0.0625  0.1594
 2055PEP     CB78504  20.198  14.549   5.811 -0.0104 -0.0435  0.0513
 2055PEP     CB78505  20.209  15.005   5.595 -0.5498 -0.1317  0.3222
 2055PEP     CB78506  19.840  15.349   5.480  0.0635 -0.2729 -0.1887
 2055PEP     CB78507  19.739  15.705   5.793 -0.1156 -0.1240 -0.0487
 2055PEP     CB78508  19.966  16.076   5.926  0.0091  0.0415  0.1067
 2055PEP     CB78509  20.260  16.222   6.070 -0.0465  0.0848 -0.2300
 2055PEP     CB78510  20.608  16.371   6.286  0.2247  0.0800  0.1937
 2055PEP     CB78511  20.818  16.181   6.666 -0.2100 -0.0313  0.1172
 2055PEP     CB78512  20.643  15.877   6.956  0.3596  0.2509 -0.0042
 2055PEP     CB78513  20.719  15.695   7.239  0.0368  0.5677  0.5522
 2055PEP     CB78514  21.118  15.464   7.304  0.1936  0.0282  0.1172
 2055PEP     CB78515  21.471  15.364   7.424  0.2113  0.0116  0.0680
 2055PEP     CB78516  21.845  15.334   7.728  0.0406 -0.1527  0.0170
 2055PEP     CB78517  22.198  15.326   8.085  0.0145  0.0882  0.5118
 2055PEP     CB78518  22.550  15.443   8.072 -0.0294 -0.0230 -0.0195
 2055PEP     CB78519  22.772  15.720   7.858 -0.2482 -0.7744  0.0907
 2055PEP     CB78520  23.014  15.957   7.703 -0.0242 -0.1345 -0.2256
 2056PEP     CB78521  17.725  19.307  13.885 -0.0815 -0.2877 -0.0310
 2056PEP     CB78522  17.297  19.361  13.700  0.5117 -0.1460  0.1465
 2056PEP     CB78523  17.174  19.636  13.328 -0.1208  0.1398 -0.0081
 2056PEP     CB78524  17.495  19.953  13.171  0.1655 -0.3197 -0.2374
 2056PEP     CB78525  17.891  20.110  13.390 -0.1457 -0.3135 -0.0310
 2056PEP     CB78526  17.910  20.285  13.761 -0.0922  0.2975  0.0842
 2056PEP     CB78527  17.601  20.249  14.011 -0.0543  0.0267 -0.0731
 2056PEP     CB78528  17.255  20.260  14.302 -0.1936 -0.2914  0.1518
 2056PEP     CB78529  16.984  20.607  14.358 -0.2848 -0.0396 -0.1572
 2056PEP     CB78530  16.937  20.857  14.052  0.0343 -0.1902  0.2009
 2056PEP     CB78531  17.128  21.069  13.757  0.2794  0.4039  0.0647
 2056PEP     CB78532  17.149  21.367  13.450 -0.1190  0.0825 -0.0266
 2056PEP     CB78533  16.951  21.243  13.062 -0.0801 -0.2729 -0.1745
 2056PEP     CB78534  16.642  20.935  13.004  0.0993 -0.2565 -0.1253
 2056PEP     CB78535  16.307  20.756  13.247  0.0484 -0.0576  0.4068
 2056PEP     CB78536  15.906  21.008  13.437  0.0983 -0.0398 -0.1732
 2056PEP     CB78537  15.970  21.338  13.745  0.3501  0.2118  0.0195
 2056PEP     CB78538  16.343  21.545  13.764  0.0515 -0.4674  0.4932
 2056PEP     CB78539  16.703  21.429  13.664  0.2319  0.2791  0.3214
 2056PEP     CB78540  16.708  21.044  13.531  0.0353 -0.3358 -0.0226
 2056PEP     CB78541  16.450  20.675  13.798 -0.0159 -0.0651  0.1920
 2056PEP     CB78542  16.387  20.515  14.237  0.0140  0.0600  0.2378
 2056PEP     CB78543  16.437  20.070  14.422  0.0701  0.0050  0.0080
 2056PEP     CB78544  16.437  19.707  14.109  0.2052  0.1737 -0.0178
 2056PEP     CB78545  16.051  19.456  13.944  0.1627  0.1223  0.1037
 2056PEP     CB78546  15.965  19.008  13.855  0.0134  0.3706  0.1764
 2056PEP     CB78547  16.177  18.704  14.018  0.0919 -0.1367 -0.5077
 2056PEP     CB78548  16.342  18.250  14.180  0.2002 -0.2143 -0.3127
 2056PEP     CB78549  16.400  18.058  14.566  0.6713 -0.2165  0.0414
 2056PEP     CB78550  16.373  17.837  14.964 -0.0071  0.2876 -0.1009
 2056PEP     CB78551  16.216  17.812  15.397 -0.1881 -0.3047 -0.2439
 2056PEP     CB78552  16.178  17.512  15.632 -0.2596  0.0164 -0.1035
 2056PEP     CB78553  15.995  17.073  15.573  0.0452 -0.0444  0.0253
 2056PEP     CB78554  16.015  16.630  15.589  0.1996  0.5505 -0.1117
 2056PEP     CB78555  15.904  16.214  15.913  0.2252  0.2177 -0.0782
 2056PEP     CB78556  16.010  16.050  16.310  0.1923  0.1465  0.0865
 2056PEP     CB78557  16.372  15.849  16.520 -0.1989 -0.2547  0.4997
 2056PEP     CB78558  16.702  15.598  16.379 -0.4727  0.6246 -0.4869
 2056PEP     CB78559  17.143  15.664  16.211 -0.1323 -0.0684  0.1921
 2056PEP     CB78560  17.601  15.649  16.280  0.1507  0.0353 -0.2383
 2057PEP     CB78561   6.755   1.741  14.126  0.6400 -0.0272  0.2179
 2057PEP     CB78562   7.101   1.871  14.267  0.0985  0.0895 -0.1754
 2057PEP     CB78563   7.360   1.887  14.589  0.2006 -0.1086  0.1587
 2057PEP     CB78564   7.398   2.052  14.983  0.1744 -0.0709  0.0997
 2057PEP     CB78565   7.586   2.447  15.045  0.3319  0.1108 -0.6585
 2057PEP     CB78566   7.540   2.818  15.288 -0.2645 -0.3047 -0.2418
 2057PEP     CB78567   7.505   3.210  15.276  0.1932  0.3775  0.0533
 2057PEP     CB78568   7.571   3.412  14.893 -0.1995 -0.2546  0.3284
 2057PEP     CB78569   7.937   3.383  14.717  0.0535 -0.1364  0.0595
 2057PEP     CB78570   8.258   2.994  14.794 -0.3981  0.1418 -0.1450
 2057PEP     CB78571   8.459   2.630  14.909 -0.3851 -0.0354  0.3535
 2057PEP     CB78572   8.554   2.241  15.228 -0.2317 -0.2988  0.0648
 2057PEP     CB78573   8.757   2.117  15.508 -0.4180  0.0011 -0.3332
 2057PEP     CB78574   8.942   1.908  15.829 -0.0624  0.0130  0.1434
 2057PEP     CB78575   9.287   1.977  16.047  0.0233  0.1181 -0.3096
 2057PEP     CB78576   9.487   1.911  16.333 -0.2655  0.1256 -0.0546
 2057PEP     CB78577   9.602   2.034  16.760 -0.0276 -0.0725 -0.2918
 2057PEP     CB78578   9.735   1.996  17.172  0.1135 -0.0814  0.0167
 2057PEP     CB78579  10.026   2.267  17.452 -0.0808  0.1603 -0.2390
 2057PEP     CB78580  10.209   2.717  17.497  0.3388 -0.0083 -0.0910
 2057PEP     CB78581  10.333   3.075  17.784 -0.1407  0.0958  0.2553
 2057PEP     CB78582  10.353   3.324  18.146 -0.2635  0.1762  0.0784
 2057PEP     CB78583  10.333   3.530  18.506  0.1380  0.0249  0.4469
 2057PEP     CB78584  10.249   3.989  18.516  0.1484 -0.1736 -0.2839
 2057PEP     CB78585  10.025   4.321  18.220 -0.1014 -0.1413 -0.6076
 2057PEP     CB78586   9.776   4.701  17.944  0.1470  0.2361  0.0654
 2057PEP     CB78587   9.501   5.115  17.873  0.0636  0.0754 -0.0457
 2057PEP     CB78588   9.430   5.583  17.885  0.3712  0.2051  0.3697
 2057PEP     CB78589   9.511   6.015  17.777  0.0419 -0.3632 -0.2511
 2057PEP     CB78590   9.903   6.323  17.703  0.1377 -0.2475  0.0657
 2057PEP     CB78591  10.218   6.446  17.975 -0.6686  0.3008 -0.2134
 2057PEP     CB78592  10.171   6.721  18.352 -0.1721  0.0463 -0.2743
 2057PEP     CB78593   9.749   6.972  18.652  0.1172  0.0502  0.0515
 2057PEP     CB78594   9.797   7.107  18.966 -0.0627  0.0077  0.0633
 2057PEP     CB78595  10.194   7.088  19.095  0.0722  0.1665  0.2663
 2057PEP     CB78596  10.592   7.179  19.185  0.0940  0.0002 -0.0604
 2057PEP     CB78597  11.026   7.071  19.135  0.2308  0.0334  0.1616
 2057PEP     CB78598  11.414   7.162  18.921 -0.0280  0.0348  0.2679
 2057PEP     CB78599  11.848   7.172  18.915  0.0821 -0.0649 -0.0044
 2057PEP     CB78600  12.239   6.947  18.749  0.2974  0.1650 -0.3406
 2058PEP     CB78601  16.057   6.652   1.271 -0.2652 -0.1203  0.0163
 2058PEP     CB78602  15.980   6.278   1.029  0.3629  0.0324 -0.0752
 2058PEP     CB78603  15.821   6.088   0.630 -0.0393  0.1603 -0.0804
 2058PEP     CB78604  16.108   6.086   0.355 -0.1234  0.2055  0.0900
 2058PEP     CB78605  16.541   6.069   0.361  0.0107  0.0785 -0.0949
 2058PEP     CB78606  16.865   5.930   0.691 -0.1073 -0.1000 -0.0753
 2058PEP     CB78607  17.021   5.953   1.132 -0.0989 -0.4083  0.2036
 2058PEP     CB78608  16.961   6.220   1.539  0.1721  0.1838  0.0022
 2058PEP     CB78609  16.907   6.371   1.953  0.0256  0.0227 -0.1468
 2058PEP     CB78610  16.942   6.635   2.261 -0.1623 -0.0844  0.3810
 2058PEP     CB78611  16.690   6.908   2.414 -0.4590 -0.1585  0.5411
 2058PEP     CB78612  16.423   7.129   2.752 -0.2343  0.0327 -0.1629
 2058PEP     CB78613  16.109   7.313   3.025  0.0519 -0.1024  0.0836
 2058PEP     CB78614  15.795   7.146   3.324  0.1616  0.0150  0.1662
 2058PEP     CB78615  15.813   6.858   3.642 -0.1547 -0.0857 -0.5011
 2058PEP     CB78616  15.734   6.402   3.613 -0.2256  0.1167  0.3285
 2058PEP     CB78617  15.642   6.124   3.947  0.0327 -0.0233 -0.2627
 2058PEP     CB78618  15.646   6.240   4.475  0.0425  0.4946 -0.0606
 2058PEP     CB78619  15.578   6.584   4.651  0.1282 -0.1087  0.0430
 2058PEP     CB78620  15.487   7.015   4.518 -0.0298  0.0673 -0.1228
 2058PEP     CB78621  15.042   7.255   4.549  0.0455 -0.1331  0.3797
 2058PEP     CB78622  14.752   7.177   4.780  0.2879  0.4201 -0.4638
 2058PEP     CB78623  14.294   7.147   4.862 -0.1871  0.5830 -0.0308
 2058PEP     CB78624  13.898   7.046   5.003  0.0047 -0.0558  0.2372
 2058PEP     CB78625  13.416   7.006   5.179 -0.0495 -0.0123  0.2666
 2058PEP     CB78626  13.287   6.867   5.683  0.4864 -0.1739  0.1868
 2058PEP     CB78627  13.186   6.621   6.109 -0.8227  0.0755  0.0204
 2058PEP     CB78628  13.176   6.489   6.572 -0.1899 -0.3329  0.5049
 2058PEP     CB78629  12.792   6.557   6.802  0.1176 -0.2231  0.2930
 2058PEP     CB78630  12.329   6.636   6.550  0.1427  0.3659  0.1895
 2058PEP     CB78631  12.130   6.338   6.293 -0.2031  0.2001  0.2165
 2058PEP     CB78632  12.189   6.017   5.936  0.0662 -0.2106 -0.1171
 2058PEP     CB78633  12.160   5.578   5.798  0.2704 -0.3820  0.1982
 2058PEP     CB78634  12.358   5.200   5.768 -0.1667 -0.5073 -0.3720
 2058PEP     CB78635  12.708   4.925   5.660  0.1026  0.2384  0.0548
 2058PEP     CB78636  13.053   4.993   5.432  0.1971 -0.2541  0.4612
 2058PEP     CB78637  13.384   4.976   5.144  0.0914 -0.2499 -0.1517
 2058PEP     CB78638  13.506   5.023   4.712  0.1324  0.0182  0.0516
 2058PEP     CB78639  13.458   4.944   4.213 -0.1578  0.3482 -0.0136
 2058PEP     CB78640  13.458   5.000   3.839 -0.0654  0.2298 -0.0774
 2059PEP     CB78641  21.905  18.162   9.976  0.3322 -0.2387  0.1263
 2059PEP     CB78642  21.816  18.161  10.434  0.3493  0.1434  0.0503
 2059PEP     CB78643  21.531  18.276  10.866 -0.1255 -0.5007 -0.0809
 2059PEP     CB78644  21.460  18.720  11.203  0.1738  0.1129 -0.4341
 2059PEP     CB78645  21.354  19.144  11.344  0.1864 -0.1464  0.1342
 2059PEP     CB78646  21.392  19.580  11.322 -0.2449 -0.1815  0.2424
 2059PEP     CB78647  21.229  19.893  11.039 -0.0348 -0.4008 -0.1131
 2059PEP     CB78648  21.290  20.287  10.897  0.0071 -0.0341 -0.3339
 2059PEP     CB78649  21.592  20.524  10.848 -0.2340  0.3286 -0.6843
 2059PEP     CB78650  21.713  20.913  10.957 -0.1313 -0.4289 -0.0836
 2059PEP     CB78651  21.508  21.173  11.198  0.0641 -0.1962 -0.0077
 2059PEP     CB78652  21.534  21.427  11.579  0.0362 -0.0074 -0.1696
 2059PEP     CB78653  21.800  21.467  11.950 -0.0311  0.4186 -0.0912
 2059PEP     CB78654  21.833  21.613  12.367  0.2562 -0.2157 -0.2054
 2059PEP     CB78655  21.795  21.504  12.771  0.1680  0.1857 -0.3593
 2059PEP     CB78656  21.703  21.121  12.827 -0.2885  0.0117  0.2054
 2059PEP     CB78657  21.519  20.859  12.492 -0.2117  0.1522  0.1049
 2059PEP     CB78658  21.293  20.831  12.006 -0.1239  0.4778 -0.0421
 2059PEP     CB78659  21.189  21.208  11.827 -0.0395 -0.1485  0.1111
 2059PEP     CB78660  21.217  21.501  12.112 -0.0290  0.3177 -0.3104
 2059PEP     CB78661  21.462  21.370  12.446 -0.0206  0.0156  0.0560
 2059PEP     CB78662  21.245  21.199  12.801 -0.0537  0.2017  0.1283
 2059PEP     CB78663  20.752  21.343  12.857 -0.2889 -0.2975 -0.6661
 2059PEP     CB78664  20.445  21.245  12.713  0.1375 -0.2787  0.1384
 2059PEP     CB78665  20.292  21.248  12.356  0.1334  0.0963  0.2602
 2059PEP     CB78666  20.488  21.210  11.931 -0.0008  0.0639 -0.1829
 2059PEP     CB78667  20.807  21.520  11.688  0.1917 -0.1753 -0.1325
 2059PEP     CB78668  21.094  21.598  11.337 -0.0018  0.0001  0.1065
 2059PEP     CB78669  21.175  21.370  10.945 -0.0034 -0.1581 -0.0976
 2059PEP     CB78670  21.072  21.333  10.431 -0.1192 -0.0075 -0.2445
 2059PEP     CB78671  21.257  21.085  10.095 -0.0461  0.4934  0.1683
 2059PEP     CB78672  21.502  20.809   9.767 -0.1493  0.2545  0.3850
 2059PEP     CB78673  21.341  20.661   9.355  0.2801 -0.1281  0.0998
 2059PEP     CB78674  21.331  20.860   8.865 -0.0493 -0.2711 -0.1604
 2059PEP     CB78675  21.626  21.210   8.665  0.1930  0.1324 -0.0488
 2059PEP     CB78676  21.744  21.664   8.581 -0.0497  0.0224  0.1693
 2059PEP     CB78677  22.051  21.879   8.287 -0.4045 -0.1203 -0.4613
 2059PEP     CB78678  22.422  22.130   8.199  0.0271 -0.5148  0.4637
 2059PEP     CB78679  22.474  22.388   7.917  0.1969 -0.0365  0.3681
 2059PEP     CB78680  22.318  22.698   7.785 -0.1774 -0.1046 -0.1097
 2060PEP     CB78681   0.735   3.508   9.535  0.0086  0.0859 -0.2735
 2060PEP     CB78682   1.130   3.481   9.622 -0.0128  0.2375  0.1259
 2060PEP     CB78683   1.421   3.578   9.812  0.2145 -0.0077  0.0032
 2060PEP     CB78684   1.667   3.354  10.177  0.3979 -0.1346  0.2824
 2060PEP     CB78685   1.965   3.445  10.648  0.2310 -0.1534  0.1995
 2060PEP     CB78686   2.131   3.921  10.784  0.2090  0.2449 -0.0303
 2060PEP     CB78687   2.485   4.364  10.822 -0.3186  0.2966  0.2395
 2060PEP     CB78688   2.894   4.358  11.107  0.1000  0.1433  0.2536
 2060PEP     CB78689   3.034   4.130  11.346 -0.4921  0.2659 -0.0213
 2060PEP     CB78690   3.426   4.033  11.673 -0.0709  0.5167 -0.0089
 2060PEP     CB78691   3.651   4.179  11.867  0.0497  0.2605 -0.3680
 2060PEP     CB78692   3.645   4.579  11.846 -0.2622 -0.2908 -0.0618
 2060PEP     CB78693   3.705   4.746  11.378 -0.2456  0.2714  0.4736
 2060PEP     CB78694   3.939   4.533  11.074 -0.0018 -0.0435  0.0627
 2060PEP     CB78695   4.042   4.093  11.113 -0.0506 -0.1023 -0.1397
 2060PEP     CB78696   4.294   3.867  11.300  0.8781 -0.2176 -0.1066
 2060PEP     CB78697   4.680   3.848  11.570  0.2172 -0.0167 -0.2464
 2060PEP     CB78698   5.137   3.810  11.697  0.1907 -0.1337  0.0196
 2060PEP     CB78699   5.294   3.385  11.899 -0.4062 -0.6070  0.0831
 2060PEP     CB78700   5.208   2.963  11.960 -0.0372 -0.0454  0.2532
 2060PEP     CB78701   5.367   2.606  12.087  0.3190  0.0563 -0.0594
 2060PEP     CB78702   5.610   2.226  12.028 -0.2634  0.3007 -0.1791
 2060PEP     CB78703   5.723   1.792  11.989  0.1192 -0.2061 -0.2058
 2060PEP     CB78704   5.633   1.378  12.158 -0.1836  0.0620  0.0695
 2060PEP     CB78705   5.207   1.218  12.193  0.0820  0.3882 -0.1423
 2060PEP     CB78706   4.888   1.548  12.119 -0.1450 -0.3240  0.1174
 2060PEP     CB78707   4.855   1.886  11.762  0.2649  0.0896  0.3543
 2060PEP     CB78708   4.590   1.925  11.315 -0.0516  0.1384  0.0870
 2060PEP     CB78709   4.288   1.479  11.216  0.1478 -0.1031  0.0279
 2060PEP     CB78710   4.404   1.091  11.567  0.0608  0.0088  0.1785
 2060PEP     CB78711   4.599   1.067  11.999  0.4989 -0.3692  0.2589
 2060PEP     CB78712   4.800   0.963  12.346  0.0395  0.1232  0.0454
 2060PEP     CB78713   4.551   1.085  12.749 -0.0498 -0.0278 -0.1519
 2060PEP     CB78714   4.291   1.486  12.719  0.1238  0.4693  0.1309
 2060PEP     CB78715   4.477   1.835  12.523  0.0321  0.1736  0.0763
 2060PEP     CB78716   4.902   1.889  12.484  0.2096 -0.0003 -0.1272
 2060PEP     CB78717   5.307   1.705  12.492 -0.2399  0.2697  0.0343
 2060PEP     CB78718   5.562   1.484  12.742 -0.4240  0.1214  0.3289
 2060PEP     CB78719   5.492   1.446  13.127  0.0588 -0.2857  0.3059
 2060PEP     CB78720   5.282   1.128  13.347  0.1661  0.1308  0.2647
 2061PEP     CB78721  15.989  10.184  10.118  0.1123  0.1194 -0.2837
 2061PEP     CB78722  15.555  10.290  10.111  0.2264  0.0578 -0.1735
 2061PEP     CB78723  15.212  10.135   9.968  0.0050 -0.1111  0.2877
 2061PEP     CB78724  15.049   9.791   9.816 -0.0747 -0.1249  0.0034
 2061PEP     CB78725  15.234   9.343   9.703 -0.2017 -0.0664 -0.3948
 2061PEP     CB78726  15.647   9.073   9.496  0.0385 -0.4183 -0.2191
 2061PEP     CB78727  16.099   9.025   9.453  0.3397  0.0700  0.0315
 2061PEP     CB78728  16.512   8.992   9.356  0.0866 -0.0088 -0.0853
 2061PEP     CB78729  16.917   9.082   9.154 -0.0133  0.2057 -0.0308
 2061PEP     CB78730  17.340   8.841   9.198  0.3017  0.2061  0.1714
 2061PEP     CB78731  17.528   8.805   9.590 -0.4645 -0.0938  0.1634
 2061PEP     CB78732  17.236   8.715   9.799 -0.2522  0.2168 -0.0547
 2061PEP     CB78733  16.813   8.687   9.547 -0.4808  0.2674 -0.0997
 2061PEP     CB78734  16.796   8.581   9.048  0.1751 -0.0145  0.0754
 2061PEP     CB78735  17.163   8.240   8.930 -0.5711  0.3543 -0.2079
 2061PEP     CB78736  17.502   8.074   8.703  0.2926  0.0364  0.0553
 2061PEP     CB78737  17.672   7.931   8.351  0.0648 -0.1883 -0.0993
 2061PEP     CB78738  18.017   7.876   8.052 -0.5159 -0.0368  0.2732
 2061PEP     CB78739  18.404   7.599   7.764  0.0291 -0.3440  0.4142
 2061PEP     CB78740  18.692   7.276   8.025  0.0150 -0.1845  0.0581
 2061PEP     CB78741  19.185   7.362   8.163  0.1705 -0.2746 -0.0321
 2061PEP     CB78742  19.346   7.726   7.999 -0.1463 -0.0005  0.4390
 2061PEP     CB78743  19.237   8.142   7.776 -0.2360 -0.0450  0.1116
 2061PEP     CB78744  19.095   8.553   7.857 -0.1790 -0.1841 -0.1826
 2061PEP     CB78745  18.941   9.063   7.852  0.0612 -0.1314  0.2588
 2061PEP     CB78746  18.758   9.390   8.054  0.2018  0.4970 -0.1379
 2061PEP     CB78747  18.413   9.720   7.950  0.1916 -0.0823  0.2239
 2061PEP     CB78748  18.114  10.073   7.881 -0.2786 -0.0888 -0.1215
 2061PEP     CB78749  17.959  10.420   8.104  0.1538 -0.1161 -0.3028
 2061PEP     CB78750  18.062  10.381   8.509 -0.2477  0.1435  0.0137
 2061PEP     CB78751  17.955   9.966   8.835  0.2216  0.0822  0.1804
 2061PEP     CB78752  17.983   9.601   8.741  0.1695  0.3166  0.0933
 2061PEP     CB78753  17.888   9.464   8.373  0.4113  0.0162 -0.2196
 2061PEP     CB78754  17.894   9.585   7.984 -0.0643  0.1509 -0.1310
 2061PEP     CB78755  17.922   9.371   7.555  0.0414  0.0850 -0.0667
 2061PEP     CB78756  18.019   9.254   7.125  0.1289  0.4043  0.1764
 2061PEP     CB78757  17.980   8.871   6.955  0.3445  0.3784  0.1113
 2061PEP     CB78758  17.845   8.530   6.757 -0.0254  0.1940 -0.0656
 2061PEP     CB78759  17.690   8.089   6.709 -0.3842 -0.2470  0.1905
 2061PEP     CB78760  17.466   7.866   6.420 -0.2967 -0.0553 -0.2936
 2062PEP     CB78761   0.953   3.258   5.476  0.2457  0.1954  0.1408
 2062PEP     CB78762   0.603   3.321   5.811 -0.2649  0.2991 -0.1895
 2062PEP     CB78763   0.254   3.439   5.998 -0.2008 -0.0029 -0.1351
 2062PEP     CB78764  -0.201   3.447   5.980  0.1548 -0.0082 -0.2329
 2062PEP     CB78765  -0.578   3.235   6.111  0.0222  0.1633 -0.2313
 2062PEP     CB78766  -0.806   2.968   6.387  0.0911  0.0216 -0.0578
 2062PEP     CB78767  -0.720   2.595   6.179 -0.0458 -0.2383  0.1329
 2062PEP     CB78768  -0.312   2.471   6.124  0.0585 -0.0321 -0.1863
 2062PEP     CB78769   0.056   2.200   5.915 -0.0607  0.1816 -0.2297
 2062PEP     CB78770   0.474   1.907   5.851  0.0087  0.2816 -0.1095
 2062PEP     CB78771   0.433   1.441   5.838 -0.0229  0.0704  0.2934
 2062PEP     CB78772   0.069   1.225   5.788  0.1778 -0.0538 -0.0098
 2062PEP     CB78773  -0.409   1.378   5.927 -0.0743  0.1573  0.5197
 2062PEP     CB78774  -0.827   1.621   6.027 -0.1990  0.1024 -0.0146
 2062PEP     CB78775  -1.029   2.021   5.976 -0.1591 -0.1750  0.1814
 2062PEP     CB78776  -1.269   2.391   6.009 -0.3056  0.0041  0.0165
 2062PEP     CB78777  -1.271   2.856   6.024 -0.0484 -0.1766  0.4524
 2062PEP     CB78778  -1.058   3.200   6.016  0.1779  0.0933 -0.1611
 2062PEP     CB78779  -0.968   3.610   5.928 -0.2810  0.5630 -0.0235
 2062PEP     CB78780  -1.082   3.983   6.131 -0.0923 -0.0071  0.1265
 2062PEP     CB78781  -0.907   4.348   6.237 -0.2867 -0.0038 -0.1269
 2062PEP     CB78782  -0.678   4.639   5.853  0.1015 -0.0816 -0.3164
 2062PEP     CB78783  -0.283   4.376   5.593 -0.0046 -0.1876  0.1403
 2062PEP     CB78784   0.070   4.080   5.304  0.0326  0.1823  0.1297
 2062PEP     CB78785   0.296   3.857   4.982  0.1224  0.2277  0.0449
 2062PEP     CB78786   0.390   3.812   4.583 -0.0425 -0.0439 -0.0946
 2062PEP     CB78787   0.851   3.736   4.402 -0.3508 -0.1533  0.2916
 2062PEP     CB78788   1.211   3.666   4.134  0.2862  0.2699  0.0825
 2062PEP     CB78789   1.241   3.709   3.683 -0.2134 -0.3269  0.2157
 2062PEP     CB78790   1.159   3.966   3.335 -0.0358 -0.0282  0.2278
 2062PEP     CB78791   1.123   4.192   3.006  0.1012  0.2947  0.0350
 2062PEP     CB78792   0.966   4.232   2.586 -0.0760  0.7287  0.1129
 2062PEP     CB78793   0.642   4.046   2.385 -0.3514 -0.3181 -0.1472
 2062PEP     CB78794   0.510   3.672   2.282  0.0785 -0.1292 -0.3843
 2062PEP     CB78795   0.359   3.224   2.303  0.1532  0.2439  0.0991
 2062PEP     CB78796   0.130   2.948   2.310 -0.0650 -0.1187 -0.0381
 2062PEP     CB78797  -0.037   2.517   2.346  0.0159  0.4474 -0.0517
 2062PEP     CB78798  -0.038   2.094   2.268 -0.1962 -0.0230 -0.2704
 2062PEP     CB78799   0.047   1.707   2.050  0.3317 -0.4996 -0.3492
 2062PEP     CB78800   0.065   1.219   1.915 -0.0442  0.6535 -0.0283
 2063PEP     CB78801  16.397   8.001  14.283  0.2525 -0.1579  0.0441
 2063PEP     CB78802  16.770   8.012  14.472 -0.4124 -0.2037 -0.2285
 2063PEP     CB78803  16.999   7.867  14.776 -0.0532 -0.0200  0.0582
 2063PEP     CB78804  17.127   7.553  15.045  0.3598  0.1892  0.5341
 2063PEP     CB78805  17.028   7.220  15.322 -0.1004  0.0398 -0.1898
 2063PEP     CB78806  17.098   6.801  15.301 -0.1120  0.3712 -0.0873
 2063PEP     CB78807  17.131   6.473  15.090 -0.0113  0.1334 -0.2327
 2063PEP     CB78808  17.549   6.187  15.061 -0.0264 -0.5362  0.1523
 2063PEP     CB78809  17.803   5.934  14.813  0.3927  0.0996 -0.0083
 2063PEP     CB78810  17.883   5.644  14.537  0.4016 -0.0544  0.0596
 2063PEP     CB78811  17.741   5.337  14.232  0.3031 -0.1538  0.1316
 2063PEP     CB78812  17.891   5.030  13.968 -0.0663  0.1644  0.3752
 2063PEP     CB78813  18.283   4.793  13.842 -0.2564 -0.1793 -0.0692
 2063PEP     CB78814  18.632   4.727  14.221 -0.3537  0.1541 -0.0863
 2063PEP     CB78815  18.512   4.391  14.548  0.1379  0.3119 -0.1217
 2063PEP     CB78816  18.218   4.164  14.722 -0.3127  0.1939  0.1441
 2063PEP     CB78817  18.129   3.771  14.781  0.1632 -0.0726  0.3432
 2063PEP     CB78818  18.255   3.506  15.076 -0.0759 -0.0450 -0.1715
 2063PEP     CB78819  18.722   3.420  15.150 -0.5288 -0.0769 -0.3363
 2063PEP     CB78820  18.978   3.493  14.964  0.2433  0.1398  0.3945
 2063PEP     CB78821  19.101   3.636  14.591 -0.1297 -0.0248 -0.0684
 2063PEP     CB78822  19.025   3.458  14.159  0.1468 -0.0241 -0.0622
 2063PEP     CB78823  18.849   3.294  13.798  0.2669  0.0962  0.0291
 2063PEP     CB78824  19.023   2.878  13.570 -0.1630 -0.5242 -0.0646
 2063PEP     CB78825  18.816   2.511  13.416 -0.0040 -0.1564 -0.2791
 2063PEP     CB78826  18.491   2.546  13.122 -0.1843  0.1922  0.2993
 2063PEP     CB78827  18.185   2.907  13.089 -0.4414  0.2207  0.0669
 2063PEP     CB78828  18.081   3.309  13.286 -0.3177  0.1592  0.0582
 2063PEP     CB78829  18.287   3.484  13.571  0.0678 -0.3385  0.0739
 2063PEP     CB78830  18.648   3.716  13.643 -0.1397  0.0879  0.0127
 2063PEP     CB78831  19.037   3.824  13.810  0.3237  0.4295 -0.3283
 2063PEP     CB78832  19.299   4.239  13.802  0.0332 -0.1161 -0.1132
 2063PEP     CB78833  19.168   4.656  13.999 -0.0656  0.2496 -0.1741
 2063PEP     CB78834  19.110   4.933  14.313  0.0787 -0.2226  0.2683
 2063PEP     CB78835  19.259   5.391  14.355  0.0261  0.2926  0.0764
 2063PEP     CB78836  19.104   5.737  14.005 -0.2256 -0.2249  0.1881
 2063PEP     CB78837  18.944   5.709  13.684  0.4240  0.0080 -0.0260
 2063PEP     CB78838  18.486   5.695  13.553 -0.2513 -0.2041 -0.1268
 2063PEP     CB78839  18.123   6.046  13.476 -0.1093  0.2088 -0.1745
 2063PEP     CB78840  17.789   6.457  13.553  0.1844 -0.0314 -0.0646
 2064PEP     CB78841  12.833  16.861   5.976 -0.0189  0.0174 -0.1070
 2064PEP     CB78842  12.700  17.055   5.706 -0.2396 -0.0274 -0.3588
 2064PEP     CB78843  12.381  17.247   5.625  0.2008  0.3093 -0.1538
 2064PEP     CB78844  12.044  17.302   5.357 -0.0064 -0.3126  0.0645
 2064PEP     CB78845  11.732  17.015   5.178 -0.2217 -0.2262  0.6019
 2064PEP     CB78846  11.652  16.721   4.970 -0.4306 -0.1044 -0.1668
 2064PEP     CB78847  11.602  16.344   5.051  0.0653 -0.2423 -0.4732
 2064PEP     CB78848  11.460  16.223   5.516 -0.0975  0.1338 -0.3061
 2064PEP     CB78849  11.286  16.457   5.820  0.0766  0.2466 -0.2581
 2064PEP     CB78850  11.062  16.809   5.781 -0.2339 -0.2910  0.2523
 2064PEP     CB78851  10.790  17.123   6.078  0.1659 -0.0658 -0.0532
 2064PEP     CB78852  10.488  17.186   6.313 -0.3313 -0.1988 -0.1975
 2064PEP     CB78853  10.149  17.489   6.614 -0.1534 -0.0470 -0.4067
 2064PEP     CB78854   9.963  17.541   7.023  0.0843  0.0255  0.2024
 2064PEP     CB78855  10.168  17.696   7.467 -0.2742 -0.0147 -0.1321
 2064PEP     CB78856   9.916  17.687   7.838 -0.1680 -0.1991 -0.2888
 2064PEP     CB78857   9.439  17.625   7.778  0.3819 -0.0418 -0.3111
 2064PEP     CB78858   9.115  17.903   7.808 -0.1262  0.1064  0.0761
 2064PEP     CB78859   9.203  18.353   7.690  0.2962  0.1724 -0.1835
 2064PEP     CB78860   9.184  18.610   8.009 -0.1603  0.0593 -0.0326
 2064PEP     CB78861   9.457  18.508   8.318 -0.0263  0.1814  0.1416
 2064PEP     CB78862   9.527  18.121   8.344  0.3625 -0.2088 -0.0498
 2064PEP     CB78863   9.571  17.761   8.526  0.2240  0.2402 -0.3087
 2064PEP     CB78864   9.760  17.418   8.439  0.1880 -0.0180  0.1064
 2064PEP     CB78865   9.968  17.280   8.108 -0.0200 -0.3138  0.4037
 2064PEP     CB78866  10.323  17.340   7.835  0.2436  0.3956  0.2426
 2064PEP     CB78867  10.422  17.127   7.505  0.0100 -0.2837 -0.1869
 2064PEP     CB78868  10.388  16.736   7.359 -0.4786  0.0787 -0.2603
 2064PEP     CB78869  10.599  16.458   7.070  0.0529 -0.0792 -0.1330
 2064PEP     CB78870  10.481  16.533   6.673 -0.2966  0.0165 -0.2680
 2064PEP     CB78871  10.196  16.768   6.447 -0.0577 -0.2173 -0.0467
 2064PEP     CB78872   9.942  17.093   6.431 -0.2031  0.0230 -0.0044
 2064PEP     CB78873   9.773  17.489   6.290 -0.0463 -0.0356 -0.0218
 2064PEP     CB78874   9.584  17.858   6.272  0.3115 -0.2196  0.1426
 2064PEP     CB78875   9.453  18.102   5.898 -0.3371  0.1606  0.0498
 2064PEP     CB78876   9.421  17.904   5.516  0.2253  0.0038 -0.3088
 2064PEP     CB78877   9.823  17.645   5.385  0.5432  0.2207 -0.2258
 2064PEP     CB78878  10.115  17.647   5.087  0.1008 -0.2028 -0.0171
 2064PEP     CB78879  10.432  17.664   4.734  0.2992 -0.3299  0.2525
 2064PEP     CB78880  10.887  17.625   4.576 -0.1339 -0.1694  0.1816
 2065PEP     CB78881  20.213  10.464   0.428  0.2262 -0.1833  0.2072
 2065PEP     CB78882  20.342  10.175   0.687 -0.4558  0.1852 -0.3492
 2065PEP     CB78883  20.548   9.749   0.760 -0.4920  0.1117 -0.3174
 2065PEP     CB78884  20.973   9.615   0.987 -0.0721 -0.1143 -0.1397
 2065PEP     CB78885  21.019   9.522   1.452 -0.0954 -0.2365  0.3446
 2065PEP     CB78886  20.632   9.664   1.713  0.2182 -0.0020  0.4465
 2065PEP     CB78887  20.501  10.090   1.592  0.2898 -0.3673 -0.1050
 2065PEP     CB78888  20.756  10.319   1.205 -0.2833  0.0437 -0.0456
 2065PEP     CB78889  21.046  10.110   0.928 -0.3012  0.1445  0.0984
 2065PEP     CB78890  21.275  10.124   0.610  0.0365  0.5201  0.1073
 2065PEP     CB78891  21.693  10.129   0.412 -0.4257 -0.0781  0.0421
 2065PEP     CB78892  22.116  10.100   0.195  0.2843  0.1444  0.3064
 2065PEP     CB78893  22.523   9.970   0.174 -0.1193 -0.1482 -0.0789
 2065PEP     CB78894  22.934  10.255   0.118 -0.0932  0.0264  0.0593
 2065PEP     CB78895  22.974  10.645   0.000 -0.2453  0.0414 -0.0754
 2065PEP     CB78896  22.572  10.824  -0.003 -0.1176  0.1319  0.1044
 2065PEP     CB78897  22.236  10.555  -0.113 -0.1177 -0.2313 -0.0712
 2065PEP     CB78898  21.805  10.437  -0.371  0.1722  0.0239 -0.1897
 2065PEP     CB78899  21.366  10.333  -0.406 -0.0767 -0.3087  0.2453
 2065PEP     CB78900  20.982  10.420  -0.490 -0.1526 -0.2873 -0.1316
 2065PEP     CB78901  20.693  10.637  -0.786  0.5062  0.2235  0.5877
 2065PEP     CB78902  20.534  11.039  -0.812  0.0232  0.2721  0.5285
 2065PEP     CB78903  20.570  11.463  -0.662 -0.1354 -0.1468 -0.0710
 2065PEP     CB78904  20.358  11.603  -0.289 -0.0206  0.5940  0.2234
 2065PEP     CB78905  20.096  11.282  -0.012 -0.3746 -0.0975 -0.1560
 2065PEP     CB78906  20.047  10.851  -0.192 -0.1139 -0.0776 -0.1408
 2065PEP     CB78907  20.246  10.447  -0.188  0.0184 -0.3584 -0.2085
 2065PEP     CB78908  20.632  10.120  -0.290 -0.1638 -0.0744  0.1524
 2065PEP     CB78909  21.073   9.925  -0.532 -0.0229 -0.3084 -0.2931
 2065PEP     CB78910  21.322   9.673  -0.663  0.0981 -0.2759  0.4007
 2065PEP     CB78911  21.648   9.426  -0.889 -0.0048  0.1299  0.1359
 2065PEP     CB78912  22.037   9.505  -1.057  0.2318 -0.3902 -0.0348
 2065PEP     CB78913  22.132   9.383  -1.469  0.0935 -0.3849 -0.0111
 2065PEP     CB78914  21.907   9.597  -1.812 -0.1184  0.4621 -0.0288
 2065PEP     CB78915  21.951   9.862  -2.091  0.2811  0.1630 -0.7487
 2065PEP     CB78916  22.180   9.902  -2.448 -0.5151  0.0255  0.2765
 2065PEP     CB78917  22.354   9.770  -2.836 -0.2959  0.0744  0.1152
 2065PEP     CB78918  22.606   9.502  -3.118  0.0224 -0.0049  0.3358
 2065PEP     CB78919  22.885   9.168  -3.255 -0.3446  0.3173 -0.3103
 2065PEP     CB78920  23.014   8.924  -3.041  0.0059 -0.2747 -0.0579
 2066PEP     CB78921   1.525  19.232  17.952 -0.4790  0.0348 -0.0970
 2066PEP     CB78922   1.535  19.541  18.200 -0.4125  0.1987  0.5944
 2066PEP     CB78923   1.463  19.602  18.700 -0.2987  0.1696  0.3602
 2066PEP     CB78924   1.544  19.708  19.145  0.1033  0.0596 -0.3220
 2066PEP     CB78925   1.728  19.437  19.426 -0.0004 -0.2399  0.1325
 2066PEP     CB78926   1.523  19.185  19.685 -0.0330  0.0980 -0.4451
 2066PEP     CB78927   1.244  19.276  19.949  0.0599 -0.0724 -0.0064
 2066PEP     CB78928   1.035  19.456  20.257  0.0251  0.2580 -0.2862
 2066PEP     CB78929   0.811  19.772  20.453 -0.2775 -0.2623 -0.0430
 2066PEP     CB78930   0.613  20.217  20.538  0.1128  0.3836  0.1264
 2066PEP     CB78931   0.292  20.533  20.771 -0.4456  0.5476  0.1429
 2066PEP     CB78932   0.096  20.959  20.756 -0.2200  0.2569 -0.0459
 2066PEP     CB78933  -0.126  21.202  20.835  0.3209  0.3245 -0.2032
 2066PEP     CB78934  -0.121  21.606  20.904  0.0565 -0.3129  0.1790
 2066PEP     CB78935  -0.146  21.888  21.258 -0.1592 -0.2937 -0.0496
 2066PEP     CB78936  -0.042  21.852  21.627 -0.1497  0.3817  0.2962
 2066PEP     CB78937   0.097  21.598  21.879 -0.2358 -0.2151  0.4861
 2066PEP     CB78938   0.178  21.306  22.239 -0.2934  0.1905 -0.0918
 2066PEP     CB78939   0.387  21.278  22.605 -0.2450 -0.1870  0.0262
 2066PEP     CB78940   0.478  21.086  23.037 -0.2139  0.2761  0.0151
 2066PEP     CB78941   0.268  21.177  23.438 -0.3678 -0.1891 -0.4877
 2066PEP     CB78942   0.353  21.348  23.761 -0.0356  0.1399 -0.0534
 2066PEP     CB78943   0.641  21.200  24.006 -0.2676  0.0145  0.4221
 2066PEP     CB78944   0.682  21.073  24.332  0.0816 -0.3152  0.4783
 2066PEP     CB78945   0.799  21.245  24.770  0.0498 -0.1290 -0.0929
 2066PEP     CB78946   0.805  21.525  25.109  0.0719  0.1795  0.2594
 2066PEP     CB78947   0.620  21.939  25.147  0.1352  0.4960 -0.0431
 2066PEP     CB78948   0.530  22.334  25.322 -0.0791 -0.0820 -0.5527
 2066PEP     CB78949   0.253  22.609  25.282  0.0462  0.2888  0.0440
 2066PEP     CB78950  -0.217  22.505  25.203  0.3951  0.2203 -0.0146
 2066PEP     CB78951  -0.619  22.258  25.098 -0.0088  0.0238  0.2609
 2066PEP     CB78952  -0.881  21.875  25.112  0.4752  0.3870 -0.1281
 2066PEP     CB78953  -1.083  21.510  25.262  0.4048 -0.1097 -0.2740
 2066PEP     CB78954  -1.311  21.228  25.551  0.0750 -0.1877 -0.4501
 2066PEP     CB78955  -1.410  21.035  25.940 -0.0488  0.0063  0.2802
 2066PEP     CB78956  -1.674  20.810  26.196 -0.0396  0.1576  0.0952
 2066PEP     CB78957  -1.951  20.595  26.453 -0.3406 -0.1913  0.6743
 2066PEP     CB78958  -1.937  20.247  26.763 -0.4363  0.6190 -0.0352
 2066PEP     CB78959  -1.553  19.953  27.001  0.1419 -0.0371 -0.0376
 2066PEP     CB78960  -1.592  19.793  27.480  0.0341 -0.1338  0.2097
 2067PEP     CB78961  19.414   3.739   5.923  0.0925  0.2238 -0.2715
 2067PEP     CB78962  19.597   3.456   5.588  0.1569  0.0704  0.1504
 2067PEP     CB78963  19.848   3.151   5.429 -0.0106  0.1689 -0.0558
 2067PEP     CB78964  20.122   3.069   5.091  0.0989  0.0124  0.1417
 2067PEP     CB78965  20.222   3.264   4.677 -0.3730 -0.2340  0.0775
 2067PEP     CB78966  20.189   3.450   4.246 -0.1660 -0.2824 -0.1693
 2067PEP     CB78967  20.409   3.457   3.773 -0.1860 -0.2220 -0.3013
 2067PEP     CB78968  20.618   3.531   3.471  0.2391  0.2654  0.1864
 2067PEP     CB78969  20.923   3.409   3.259  0.1812 -0.1081 -0.0071
 2067PEP     CB78970  20.908   2.946   3.005  0.0526  0.0774  0.0188
 2067PEP     CB78971  20.899   2.539   3.124 -0.0075  0.0637  0.0310
 2067PEP     CB78972  20.887   2.141   3.317  0.3390 -0.3615 -0.3250
 2067PEP     CB78973  21.071   1.936   3.559  0.1383 -0.2915 -0.1959
 2067PEP     CB78974  21.450   1.994   3.805  0.1053 -0.2645  0.0579
 2067PEP     CB78975  21.650   2.147   4.216 -0.0666 -0.1347  0.2223
 2067PEP     CB78976  21.464   2.305   4.619 -0.1597  0.0391  0.3774
 2067PEP     CB78977  21.193   2.653   4.796 -0.0453  0.3979 -0.3584
 2067PEP     CB78978  21.187   3.100   4.959 -0.0050 -0.0401 -0.0328
 2067PEP     CB78979  21.124   3.514   5.092 -0.1267 -0.1013 -0.4360
 2067PEP     CB78980  20.758   3.773   5.318 -0.0385 -0.0768  0.0143
 2067PEP     CB78981  20.643   4.177   5.440  0.0402 -0.2999 -0.0090
 2067PEP     CB78982  20.419   4.573   5.398  0.2030  0.0274 -0.2575
 2067PEP     CB78983  20.193   4.973   5.151  0.1555  0.3351 -0.2740
 2067PEP     CB78984  20.350   5.274   4.819  0.1366  0.0941  0.1465
 2067PEP     CB78985  20.421   5.601   4.486  0.1358  0.3564 -0.2377
 2067PEP     CB78986  20.490   5.894   4.014 -0.1837 -0.1314  0.2684
 2067PEP     CB78987  20.673   6.061   3.650  0.1410  0.0177 -0.0217
 2067PEP     CB78988  20.881   6.292   3.407 -0.1994 -0.2757  0.2723
 2067PEP     CB78989  21.126   6.742   3.455 -0.2203  0.0982 -0.5225
 2067PEP     CB78990  20.954   7.129   3.349  0.1116 -0.0344  0.0791
 2067PEP     CB78991  20.911   7.192   2.874 -0.5090  0.1858 -0.3891
 2067PEP     CB78992  21.043   6.969   2.568 -0.0462 -0.3401 -0.0769
 2067PEP     CB78993  21.346   6.585   2.542  0.0909  0.0763 -0.1223
 2067PEP     CB78994  21.319   6.182   2.599 -0.0429 -0.2500 -0.2625
 2067PEP     CB78995  21.129   5.812   2.243 -0.3137  0.1597  0.0279
 2067PEP     CB78996  21.051   5.823   1.794  0.0963 -0.1493  0.2911
 2067PEP     CB78997  20.881   6.110   1.459 -0.2540 -0.1792  0.1726
 2067PEP     CB78998  20.582   6.209   1.299  0.0487  0.4419 -0.0463
 2067PEP     CB78999  20.466   6.469   1.033 -0.3634 -0.2369 -0.1748
 2067PEP     CB79000  20.701   6.735   0.715  0.2701  0.6237  0.1468
 2068PEP     CB79001  16.922  20.204  14.645  0.1410  0.1442  0.4280
 2068PEP     CB79002  16.757  20.485  14.987 -0.0651 -0.3182 -0.0283
 2068PEP     CB79003  16.739  20.649  15.369 -0.1264  0.0046  0.0794
 2068PEP     CB79004  16.832  20.655  15.738  0.2322  0.0550  0.1171
 2068PEP     CB79005  16.623  20.387  16.049 -0.0215 -0.0576  0.0771
 2068PEP     CB79006  16.697  20.012  16.257  0.3997  0.3605 -0.4475
 2068PEP     CB79007  16.927  19.607  16.406  0.3231  0.0311 -0.4069
 2068PEP     CB79008  16.931  19.201  16.387  0.0305  0.1449 -0.1157
 2068PEP     CB79009  17.043  18.722  16.339  0.2724 -0.1731  0.3479
 2068PEP     CB79010  17.468  18.439  16.361  0.0802 -0.1834  0.2878
 2068PEP     CB79011  17.764  18.253  16.554 -0.2737 -0.1575  0.0105
 2068PEP     CB79012  18.059  18.004  16.549 -0.1901  0.1051 -0.2514
 2068PEP     CB79013  18.131  17.585  16.711 -0.2584  0.4359 -0.0803
 2068PEP     CB79014  18.208  17.162  16.573  0.1053 -0.1946 -0.1996
 2068PEP     CB79015  18.035  16.832  16.303 -0.2950 -0.0624  0.2936
 2068PEP     CB79016  17.575  16.924  16.123 -0.1904 -0.2056  0.4580
 2068PEP     CB79017  17.236  16.969  16.426  0.1683  0.2562  0.0538
 2068PEP     CB79018  17.224  16.825  16.814 -0.0165 -0.1285 -0.0822
 2068PEP     CB79019  17.209  16.347  16.913  0.0454 -0.4830 -0.0984
 2068PEP     CB79020  17.292  15.955  17.110  0.0733 -0.1327 -0.1629
 2068PEP     CB79021  17.511  15.616  17.319  0.3482 -0.0116  0.0897
 2068PEP     CB79022  17.661  15.234  17.244  0.1940  0.0330 -0.1912
 2068PEP     CB79023  17.797  14.880  16.937 -0.0752 -0.2235  0.3138
 2068PEP     CB79024  17.988  14.648  16.620  0.2165  0.4444 -0.0769
 2068PEP     CB79025  18.153  14.690  16.192 -0.2575  0.0087 -0.1909
 2068PEP     CB79026  18.204  14.547  15.772 -0.0483  0.3179  0.4281
 2068PEP     CB79027  18.530  14.433  15.603  0.4136 -0.3888  0.3807
 2068PEP     CB79028  18.675  14.133  15.295  0.1968 -0.0841  0.1149
 2068PEP     CB79029  18.773  13.754  14.993 -0.0712 -0.1140 -0.0963
 2068PEP     CB79030  19.160  13.805  14.839 -0.1845 -0.0219  0.1151
 2068PEP     CB79031  19.428  13.963  14.554  0.2539  0.1040  0.0452
 2068PEP     CB79032  19.325  14.216  14.166 -0.1944 -0.1418  0.3039
 2068PEP     CB79033  18.957  14.397  14.173  0.1609  0.2161 -0.1286
 2068PEP     CB79034  18.704  14.371  13.824  0.2462 -0.0009  0.1216
 2068PEP     CB79035  18.450  14.626  13.500  0.3070  0.2261 -0.6274
 2068PEP     CB79036  18.279  14.999  13.336  0.3483 -0.1590 -0.1256
 2068PEP     CB79037  18.122  15.357  13.224 -0.1169 -0.3280 -0.2972
 2068PEP     CB79038  18.160  15.804  13.231 -0.1891 -0.0088 -0.0147
 2068PEP     CB79039  18.402  16.141  13.489  0.1725  0.0448  0.1919
 2068PEP     CB79040  18.692  16.366  13.715 -0.0504 -0.0691  0.2456
 2069PEP     CB79041   0.141   8.642   9.596  0.3587 -0.1563  0.0516
 2069PEP     CB79042   0.312   8.876   9.300 -0.1759  0.0464  0.2226
 2069PEP     CB79043   0.221   8.958   8.863  0.0404 -0.1759 -0.1101
 2069PEP     CB79044  -0.120   8.786   8.625  0.0408  0.3117 -0.6427
 2069PEP     CB79045  -0.214   8.412   8.701  0.1974 -0.0236  0.1650
 2069PEP     CB79046  -0.052   8.046   8.968  0.4965  0.1850  0.1429
 2069PEP     CB79047  -0.065   7.709   9.104 -0.2568  0.0126 -0.1458
 2069PEP     CB79048  -0.033   7.329   9.296 -0.3028  0.5159 -0.1612
 2069PEP     CB79049   0.020   6.972   9.592  0.0587 -0.2019 -0.1217
 2069PEP     CB79050  -0.098   6.572   9.619 -0.3051  0.1237 -0.2560
 2069PEP     CB79051  -0.433   6.238   9.454  0.3132  0.3495  0.0215
 2069PEP     CB79052  -0.417   5.849   9.168 -0.4034 -0.0772 -0.1648
 2069PEP     CB79053  -0.336   5.697   8.744 -0.0791 -0.0833 -0.3777
 2069PEP     CB79054  -0.058   5.428   8.664 -0.0381 -0.3744 -0.0110
 2069PEP     CB79055   0.091   5.038   8.692 -0.3186  0.1368 -0.1100
 2069PEP     CB79056   0.352   4.574   8.665  0.1488 -0.2466 -0.0210
 2069PEP     CB79057   0.337   4.250   8.306  0.0682 -0.0786  0.0974
 2069PEP     CB79058   0.473   4.128   7.895  0.2967 -0.5836 -0.2926
 2069PEP     CB79059   0.293   4.073   7.538 -0.4047 -0.0419 -0.2730
 2069PEP     CB79060  -0.166   4.175   7.481  0.0975  0.3251  0.0339
 2069PEP     CB79061  -0.499   4.117   7.802  0.5895  0.2481 -0.3765
 2069PEP     CB79062  -0.682   4.137   8.122 -0.1733  0.1029 -0.4299
 2069PEP     CB79063  -0.800   4.312   8.523  0.0724  0.0351 -0.2815
 2069PEP     CB79064  -0.846   4.509   8.892 -0.4327  0.2856 -0.3003
 2069PEP     CB79065  -0.766   4.335   9.322  0.3395 -0.3107 -0.1686
 2069PEP     CB79066  -1.061   4.105   9.663 -0.1167  0.2458  0.2866
 2069PEP     CB79067  -1.383   4.027   9.841  0.0257  0.1013 -0.0177
 2069PEP     CB79068  -1.538   4.133  10.185 -0.0976  0.2381 -0.0303
 2069PEP     CB79069  -1.704   4.513  10.358 -0.1480  0.0147 -0.1098
 2069PEP     CB79070  -1.598   4.957  10.352 -0.0344 -0.1563 -0.1957
 2069PEP     CB79071  -1.473   5.373  10.053  0.1241 -0.0624 -0.1298
 2069PEP     CB79072  -1.373   5.739   9.798  0.1305  0.4999  0.0841
 2069PEP     CB79073  -1.446   6.037   9.500 -0.1175 -0.0076  0.0989
 2069PEP     CB79074  -1.200   6.304   9.474  0.1759 -0.7055 -0.1299
 2069PEP     CB79075  -0.904   6.481   9.670 -0.0177  0.0102  0.2570
 2069PEP     CB79076  -0.617   6.759   9.800  0.2087 -0.2173  0.1152
 2069PEP     CB79077  -0.373   6.897  10.033  0.2204  0.3790  0.0032
 2069PEP     CB79078  -0.275   7.080  10.467  0.1069 -0.2328 -0.1298
 2069PEP     CB79079  -0.586   7.203  10.871 -0.2207  0.1401 -0.2332
 2069PEP     CB79080  -1.012   7.024  10.844  0.0273 -0.2007  0.2762
 2070PEP     CB79081   0.180  19.957  11.592  0.1055  0.1961 -0.0737
 2070PEP     CB79082   0.013  20.004  11.218  0.0671  0.1689  0.1874
 2070PEP     CB79083  -0.229  19.959  10.796 -0.3177  0.0641 -0.0159
 2070PEP     CB79084  -0.109  19.746  10.364 -0.1406 -0.3534  0.0475
 2070PEP     CB79085  -0.010  19.394  10.138 -0.2003  0.0715 -0.2014
 2070PEP     CB79086   0.249  18.972  10.304 -0.0882 -0.2780  0.5560
 2070PEP     CB79087   0.550  18.717  10.571 -0.0275  0.0151  0.0403
 2070PEP     CB79088   0.616  18.372  10.754 -0.2741 -0.0869  0.1056
 2070PEP     CB79089   0.719  17.911  10.756 -0.0933 -0.0564 -0.4184
 2070PEP     CB79090   0.936  17.522  10.984 -0.2199 -0.4328  0.2336
 2070PEP     CB79091   0.735  17.186  11.195 -0.0894  0.2089 -0.1602
 2070PEP     CB79092   0.310  17.035  11.272  0.1389  0.0021  0.0249
 2070PEP     CB79093   0.241  16.525  11.395  0.1784 -0.0773 -0.2573
 2070PEP     CB79094   0.101  16.250  11.716 -0.5213  0.0103  0.1763
 2070PEP     CB79095  -0.279  16.209  12.124  0.0744 -0.0803 -0.1641
 2070PEP     CB79096  -0.463  16.494  12.365  0.3234 -0.2270 -0.0097
 2070PEP     CB79097  -0.524  16.806  12.664  0.0428 -0.0138  0.3600
 2070PEP     CB79098  -0.404  17.007  13.108  0.0051  0.0668 -0.1586
 2070PEP     CB79099  -0.185  16.698  13.460  0.4645 -0.0696 -0.0541
 2070PEP     CB79100  -0.137  16.238  13.501  0.2691 -0.1317 -0.0705
 2070PEP     CB79101  -0.377  15.880  13.478 -0.1555 -0.1713  0.0431
 2070PEP     CB79102  -0.575  15.465  13.317 -0.0229  0.0696 -0.2078
 2070PEP     CB79103  -0.475  15.133  13.585 -0.0359 -0.0814  0.3454
 2070PEP     CB79104  -0.517  14.701  13.747  0.3214 -0.3086  0.0026
 2070PEP     CB79105  -0.749  14.515  14.031  0.1398  0.0321 -0.2284
 2070PEP     CB79106  -1.122  14.461  14.296  0.0626  0.3407 -0.2766
 2070PEP     CB79107  -1.535  14.400  14.511  0.1698  0.0107  0.3227
 2070PEP     CB79108  -1.977  14.382  14.411 -0.2750 -0.4929  0.6345
 2070PEP     CB79109  -2.272  14.123  14.251 -0.2014 -0.0633  0.6012
 2070PEP     CB79110  -2.323  13.627  14.076  0.4582  0.3736  0.0300
 2070PEP     CB79111  -2.399  13.488  13.662 -0.2000 -0.5054 -0.1219
 2070PEP     CB79112  -2.730  13.346  13.473  0.3780  0.2524  0.2800
 2070PEP     CB79113  -2.964  13.249  13.792  0.3234  0.2302 -0.2574
 2070PEP     CB79114  -2.670  13.151  14.101 -0.1467 -0.3717 -0.0211
 2070PEP     CB79115  -2.536  12.808  14.390  0.1033 -0.1077 -0.0046
 2070PEP     CB79116  -2.713  12.440  14.343  0.1911 -0.3823 -0.1610
 2070PEP     CB79117  -2.951  12.160  14.246 -0.2643  0.5486 -0.0119
 2070PEP     CB79118  -3.346  12.087  13.990  0.0586 -0.1815 -0.2377
 2070PEP     CB79119  -3.680  11.907  13.780 -0.1736  0.1226 -0.2390
 2070PEP     CB79120  -4.002  11.665  13.784  0.1308 -0.2614 -0.1850
 2071PEP     CB79121  10.444   1.337   2.671  0.1556  0.0928  0.3538
 2071PEP     CB79122  10.547   1.825   2.766  0.0154  0.0992  0.3993
 2071PEP     CB79123  10.548   2.240   2.826  0.0710  0.1171  0.2736
 2071PEP     CB79124  10.621   2.661   2.751  0.1810  0.0695  0.1397
 2071PEP     CB79125  10.559   2.995   2.354  0.1806  0.3856  0.0768
 2071PEP     CB79126  10.467   3.152   1.895  0.0237 -0.1295 -0.1434
 2071PEP     CB79127  10.434   3.195   1.454 -0.0598 -0.3052 -0.0245
 2071PEP     CB79128  10.431   3.513   1.187  0.0565 -0.2369 -0.0806
 2071PEP     CB79129  10.044   3.802   1.125 -0.2298 -0.1139  0.0640
 2071PEP     CB79130   9.621   3.646   1.230 -0.2170 -0.0602  0.0609
 2071PEP     CB79131   9.503   3.247   1.237 -0.2200  0.4429 -0.0199
 2071PEP     CB79132   9.105   3.040   1.008  0.1437 -0.0171  0.1435
 2071PEP     CB79133   8.752   2.850   1.140  0.0803  0.0455  0.2949
 2071PEP     CB79134   8.653   2.662   1.504 -0.2194 -0.3741  0.2374
 2071PEP     CB79135   8.638   2.850   1.828  0.4777  0.0272 -0.4800
 2071PEP     CB79136   8.880   3.109   2.047  0.0469  0.1446 -0.1651
 2071PEP     CB79137   9.032   3.244   2.399 -0.1852  0.1814  0.2044
 2071PEP     CB79138   9.256   3.102   2.704  0.2578 -0.0340 -0.2954
 2071PEP     CB79139   9.228   2.812   3.088  0.1356 -0.2169 -0.3016
 2071PEP     CB79140   8.964   2.405   3.103 -0.0832  0.2516  0.1136
 2071PEP     CB79141   8.572   2.314   3.180  0.2388 -0.2912  0.0188
 2071PEP     CB79142   8.105   2.467   3.182  0.1353 -0.0991 -0.0221
 2071PEP     CB79143   8.022   2.886   3.322 -0.0096 -0.1329  0.3949
 2071PEP     CB79144   8.150   2.850   3.722 -0.1417 -0.1788  0.0364
 2071PEP     CB79145   8.186   2.728   4.140  0.0377  0.1266 -0.1182
 2071PEP     CB79146   8.014   2.573   4.478 -0.0402  0.1060  0.2899
 2071PEP     CB79147   8.090   2.641   4.951  0.1815  0.4017 -0.2080
 2071PEP     CB79148   8.496   2.821   5.113  0.0128  0.2992  0.0564
 2071PEP     CB79149   8.759   3.090   5.366 -0.0468 -0.0293  0.0498
 2071PEP     CB79150   8.739   3.310   5.744 -0.1056 -0.1203  0.0835
 2071PEP     CB79151   8.743   3.264   6.172 -0.4203 -0.2887  0.1556
 2071PEP     CB79152   9.093   3.249   6.531 -0.0334  0.0340 -0.2497
 2071PEP     CB79153   9.450   3.057   6.395  0.3399  0.2052  0.3850
 2071PEP     CB79154   9.739   2.782   6.397 -0.1455  0.1575  0.1480
 2071PEP     CB79155  10.206   2.605   6.428  0.2508 -0.1835  0.1254
 2071PEP     CB79156  10.542   2.248   6.510  0.3516 -0.1680  0.0288
 2071PEP     CB79157  10.869   1.936   6.357  0.0769 -0.3097  0.2599
 2071PEP     CB79158  10.961   1.570   6.247  0.1438  0.0060  0.1149
 2071PEP     CB79159  10.876   1.188   6.325  0.0610 -0.0511 -0.2489
 2071PEP     CB79160  10.505   0.968   6.420  0.1832  0.0972 -0.1322
 2072PEP     CB79161  10.613   3.848  19.520  0.0783  0.0369 -0.4129
 2072PEP     CB79162  10.839   3.503  19.548  0.1306 -0.2232 -0.1233
 2072PEP     CB79163  10.773   3.117  19.906  0.3852  0.0505 -0.4921
 2072PEP     CB79164  10.362   3.013  20.069 -0.3960  0.0676  0.0240
 2072PEP     CB79165  10.145   3.266  20.254  0.3065 -0.1261 -0.0187
 2072PEP     CB79166  10.156   3.658  20.406 -0.3508 -0.0713  0.0062
 2072PEP     CB79167  10.191   4.070  20.387 -0.0740 -0.1561 -0.1564
 2072PEP     CB79168  10.235   4.379  20.669 -0.1470 -0.2357 -0.2005
 2072PEP     CB79169   9.920   4.708  20.861 -0.1871  0.0666 -0.2024
 2072PEP     CB79170   9.627   5.036  20.671 -0.0916  0.1292 -0.0036
 2072PEP     CB79171   9.530   5.112  20.220 -0.0200  0.2537  0.5290
 2072PEP     CB79172   9.770   4.852  19.927 -0.4005 -0.2464  0.3088
 2072PEP     CB79173   9.984   4.353  19.931 -0.2202 -0.0004 -0.0903
 2072PEP     CB79174   9.695   3.979  19.941  0.0175 -0.1375  0.0582
 2072PEP     CB79175   9.540   3.631  20.130 -0.0946  0.0445 -0.2849
 2072PEP     CB79176   9.268   3.264  20.170 -0.0783  0.0174  0.2092
 2072PEP     CB79177   8.892   3.117  20.004  0.3152  0.0909 -0.0734
 2072PEP     CB79178   8.605   2.930  19.775 -0.3323 -0.2297  0.3377
 2072PEP     CB79179   8.167   2.879  19.908 -0.0499  0.2188  0.2462
 2072PEP     CB79180   7.834   3.014  20.009  0.0101  0.0362 -0.0487
 2072PEP     CB79181   7.438   3.182  19.951  0.0357  0.0271 -0.2952
 2072PEP     CB79182   7.201   3.637  20.027 -0.0704  0.1588 -0.0691
 2072PEP     CB79183   7.071   4.005  20.074 -0.1627  0.2777 -0.1523
 2072PEP     CB79184   7.052   4.483  20.030  0.4208 -0.2022 -0.2667
 2072PEP     CB79185   7.223   4.864  20.293 -0.1142  0.0462 -0.0194
 2072PEP     CB79186   7.338   5.257  20.440  0.3026 -0.4052  0.2599
 2072PEP     CB79187   7.237   5.704  20.496  0.0261 -0.1535  0.2613
 2072PEP     CB79188   7.362   6.149  20.502 -0.1119 -0.2861 -0.0481
 2072PEP     CB79189   7.237   6.525  20.329  0.4150  0.3312 -0.7915
 2072PEP     CB79190   7.119   6.901  20.112 -0.2545  0.2289  0.3330
 2072PEP     CB79191   6.976   7.146  19.732  0.0645 -0.4221  0.1786
 2072PEP     CB79192   7.082   7.442  19.420 -0.1147  0.1650  0.2892
 2072PEP     CB79193   7.414   7.786  19.313 -0.0307  0.1210 -0.1010
 2072PEP     CB79194   7.759   7.853  19.562  0.2744  0.1482  0.3037
 2072PEP     CB79195   7.996   7.704  19.952  0.1265 -0.4163 -0.2585
 2072PEP     CB79196   8.011   7.556  20.353  0.6164 -0.0899 -0.1741
 2072PEP     CB79197   8.018   7.474  20.868  0.1420  0.4860 -0.2074
 2072PEP     CB79198   7.951   7.592  21.247 -0.4497  0.1369 -0.0877
 2072PEP     CB79199   7.553   7.767  21.578 -0.0261 -0.3646  0.1971
 2072PEP     CB79200   7.288   8.143  21.661  0.5010  0.0174 -0.3312
 2073PEP     CB79201   5.962  16.495   1.693  0.2000 -0.3337  0.1867
 2073PEP     CB79202   6.272  16.612   1.868 -0.0030  0.1834  0.1218
 2073PEP     CB79203   6.737  16.727   1.764  0.0940 -0.1216 -0.3188
 2073PEP     CB79204   6.945  16.721   1.454  0.0575  0.1115  0.1655
 2073PEP     CB79205   7.314  16.889   1.161  0.0718  0.0539  0.1875
 2073PEP     CB79206   7.674  16.605   0.844 -0.5679 -0.2873  0.0049
 2073PEP     CB79207   7.859  16.252   0.836 -0.1930  0.0719  0.2510
 2073PEP     CB79208   7.901  15.974   0.449  0.0945  0.3097  0.2169
 2073PEP     CB79209   7.541  15.955   0.178 -0.2560 -0.5920 -0.0264
 2073PEP     CB79210   7.142  16.000   0.120  0.2362 -0.1344 -0.2123
 2073PEP     CB79211   6.770  16.059   0.400 -0.2012 -0.1464 -0.0242
 2073PEP     CB79212   6.618  16.390   0.696 -0.0926  0.0282  0.0956
 2073PEP     CB79213   6.686  16.369   1.124 -0.0067 -0.0893 -0.1367
 2073PEP     CB79214   6.646  15.871   1.335  0.1727  0.2172 -0.2400
 2073PEP     CB79215   6.564  15.341   1.280 -0.2244  0.1801  0.0483
 2073PEP     CB79216   6.228  14.972   1.086  0.0007  0.0074  0.0412
 2073PEP     CB79217   5.967  14.837   0.779  0.1010 -0.2984  0.1826
 2073PEP     CB79218   5.963  14.660   0.368 -0.0006 -0.0972  0.2105
 2073PEP     CB79219   6.013  14.801  -0.023  0.0342  0.0180  0.1569
 2073PEP     CB79220   5.733  15.139  -0.082  0.1360  0.0071  0.0447
 2073PEP     CB79221   5.439  15.117   0.124  0.1150 -0.1849  0.0640
 2073PEP     CB79222   5.150  15.024   0.420 -0.1824 -0.0456 -0.0807
 2073PEP     CB79223   5.182  14.965   0.845 -0.2686  0.0170  0.1688
 2073PEP     CB79224   5.463  14.956   1.162  0.0581 -0.1247  0.1300
 2073PEP     CB79225   5.803  15.132   1.280 -0.3031  0.0331 -0.2694
 2073PEP     CB79226   6.043  15.526   1.303  0.1232  0.0496 -0.3206
 2073PEP     CB79227   6.220  15.849   1.092  0.1206  0.5876 -0.3686
 2073PEP     CB79228   6.577  15.871   0.822 -0.2514 -0.2648  0.2173
 2073PEP     CB79229   6.987  16.036   0.816 -0.6024 -0.5704 -0.1532
 2073PEP     CB79230   7.266  16.228   1.092  0.0320 -0.3883  0.4281
 2073PEP     CB79231   7.684  16.440   1.299 -0.1830  0.0685  0.1992
 2073PEP     CB79232   8.034  16.590   1.224  0.1678 -0.0442  0.3186
 2073PEP     CB79233   8.048  16.899   0.911  0.3001 -0.1012 -0.3395
 2073PEP     CB79234   8.136  17.062   0.500  0.2918 -0.1634  0.4355
 2073PEP     CB79235   7.935  17.098   0.073 -0.0784  0.2317  0.0191
 2073PEP     CB79236   7.666  17.010  -0.258  0.2053  0.0824 -0.0391
 2073PEP     CB79237   7.296  17.286  -0.380 -0.0889  0.2991 -0.5824
 2073PEP     CB79238   7.336  17.712  -0.283 -0.0488  0.1134  0.1384
 2073PEP     CB79239   7.159  18.147  -0.184  0.1502 -0.0363 -0.0009
 2073PEP     CB79240   6.845  18.443  -0.235 -0.1068  0.1476  0.0477
 2074PEP     CB79241   5.951  20.521   1.046 -0.3394 -0.3937 -0.0267
 2074PEP     CB79242   5.627  20.727   1.164  0.2111  0.1093  0.0167
 2074PEP     CB79243   5.326  21.074   1.234 -0.0489  0.1135 -0.2732
 2074PEP     CB79244   4.972  21.358   1.249  0.2214 -0.0080 -0.0470
 2074PEP     CB79245   4.897  21.771   1.227 -0.0790  0.0019 -0.1142
 2074PEP     CB79246   4.869  22.146   1.041 -0.1134  0.0031  0.0933
 2074PEP     CB79247   5.175  22.470   0.931 -0.1070 -0.2736  0.2565
 2074PEP     CB79248   5.533  22.539   0.720  0.3535  0.4426  0.1040
 2074PEP     CB79249   5.836  22.282   0.402 -0.3055  0.1916 -0.0527
 2074PEP     CB79250   5.858  22.090  -0.051  0.1236 -0.0630  0.2624
 2074PEP     CB79251   5.960  22.321  -0.443  0.0519 -0.0462  0.2468
 2074PEP     CB79252   6.160  22.537  -0.789 -0.0918 -0.1024 -0.0868
 2074PEP     CB79253   6.381  22.903  -0.880  0.1718 -0.2882  0.1020
 2074PEP     CB79254   6.502  23.340  -0.748  0.4840 -0.2647 -0.2243
 2074PEP     CB79255   6.691  23.729  -0.612  0.2894 -0.0764 -0.1046
 2074PEP     CB79256   6.765  24.118  -0.432 -0.3332 -0.1148 -0.0322
 2074PEP     CB79257   6.613  24.317  -0.153  0.1124 -0.1708 -0.1282
 2074PEP     CB79258   6.471  24.464   0.251 -0.1297 -0.4463 -0.0836
 2074PEP     CB79259   6.151  24.499   0.620  0.2775  0.0141  0.1719
 2074PEP     CB79260   5.806  24.462   0.892  0.0432  0.1080 -0.0580
 2074PEP     CB79261   5.368  24.398   0.939 -0.3073 -0.0449 -0.0087
 2074PEP     CB79262   5.051  24.620   1.222 -0.3097  0.1519 -0.1594
 2074PEP     CB79263   4.631  24.691   1.294 -0.0571  0.4969 -0.1443
 2074PEP     CB79264   4.261  24.872   1.521 -0.1685 -0.2387  0.2503
 2074PEP     CB79265   3.884  24.976   1.505 -0.1078 -0.2403 -0.0902
 2074PEP     CB79266   3.401  24.880   1.492 -0.0680 -0.0721  0.2297
 2074PEP     CB79267   3.015  24.696   1.690 -0.3349 -0.2697 -0.1104
 2074PEP     CB79268   2.885  24.870   1.950  0.2158 -0.4991  0.1679
 2074PEP     CB79269   2.973  25.236   2.040  0.3782 -0.0906 -0.0378
 2074PEP     CB79270   2.922  25.645   1.923  0.2504 -0.5605 -0.0917
 2074PEP     CB79271   2.962  26.054   2.024  0.1177  0.2215  0.4023
 2074PEP     CB79272   2.979  26.468   2.025  0.5365 -0.0794 -0.1753
 2074PEP     CB79273   2.647  26.768   1.914 -0.0717 -0.1589 -0.3426
 2074PEP     CB79274   2.267  26.571   1.919 -0.3306  0.0668  0.4086
 2074PEP     CB79275   2.154  26.240   1.719 -0.2408  0.4093  0.3327
 2074PEP     CB79276   2.027  26.023   1.304 -0.1589  0.1036  0.0929
 2074PEP     CB79277   1.980  25.889   0.901  0.0539  0.0840 -0.1379
 2074PEP     CB79278   1.804  25.616   0.509  0.0057 -0.1038  0.1472
 2074PEP     CB79279   1.367  25.622   0.295 -0.0184 -0.1737  0.1994
 2074PEP     CB79280   0.929  25.779   0.211  0.4773 -0.5168 -0.0446
 2075PEP     CB79281  16.858   9.351  11.699 -0.1742  0.0946 -0.0046
 2075PEP     CB79282  17.352   9.386  11.676  0.1154 -0.2514  0.1232
 2075PEP     CB79283  17.717   9.532  11.617  0.0865  0.0330 -0.3016
 2075PEP     CB79284  18.057   9.705  11.567  0.3575 -0.0238 -0.4110
 2075PEP     CB79285  18.449   9.991  11.504  0.2926 -0.1656  0.0034
 2075PEP     CB79286  18.725  10.142  11.827 -0.1042 -0.3694 -0.0557
 2075PEP     CB79287  18.882  10.401  12.110  0.2113 -0.0357 -0.2429
 2075PEP     CB79288  19.068  10.759  12.359 -0.1135 -0.1762  0.1353
 2075PEP     CB79289  19.413  10.716  12.662 -0.2638  0.2161 -0.2620
 2075PEP     CB79290  19.763  10.482  12.575  0.0012  0.3442 -0.3976
 2075PEP     CB79291  19.661  10.009  12.520  0.3871 -0.1694  0.2200
 2075PEP     CB79292  19.396   9.868  12.156  0.0392 -0.0402 -0.1454
 2075PEP     CB79293  18.981   9.957  12.208  0.0486 -0.0711 -0.0518
 2075PEP     CB79294  18.685  10.117  12.558 -0.0490 -0.0225 -0.0601
 2075PEP     CB79295  18.510  10.545  12.875 -0.2287  0.0613 -0.0618
 2075PEP     CB79296  18.434  10.954  13.100  0.3261  0.0628  0.3258
 2075PEP     CB79297  18.524  11.334  13.311  0.0472 -0.1009  0.1108
 2075PEP     CB79298  18.419  11.743  13.266 -0.3173 -0.1593 -0.2013
 2075PEP     CB79299  18.440  12.052  12.924  0.1097 -0.0245 -0.0700
 2075PEP     CB79300  18.225  12.476  12.825 -0.2289  0.3870 -0.2285
 2075PEP     CB79301  18.309  12.922  12.734  0.1565  0.2883  0.4115
 2075PEP     CB79302  18.671  13.140  12.703  0.0731  0.0007 -0.0456
 2075PEP     CB79303  19.110  13.005  12.827  0.0065 -0.3875  0.3307
 2075PEP     CB79304  19.539  13.075  12.867 -0.1760 -0.4413  0.1407
 2075PEP     CB79305  19.781  12.802  13.242  0.2082  0.0519  0.3579
 2075PEP     CB79306  19.740  12.481  13.568  0.1468  0.2513  0.1019
 2075PEP     CB79307  19.659  12.296  13.999  0.1497 -0.0348 -0.2082
 2075PEP     CB79308  19.596  12.043  14.346 -0.0353  0.1419 -0.0007
 2075PEP     CB79309  19.283  11.835  14.575  0.0717 -0.0532  0.0699
 2075PEP     CB79310  19.026  11.603  14.749  0.0541  0.2238  0.1185
 2075PEP     CB79311  18.480  11.517  14.701 -0.3167  0.1589 -0.0295
 2075PEP     CB79312  18.099  11.632  14.738 -0.3083  0.1295  0.0437
 2075PEP     CB79313  17.747  11.397  14.919 -0.3296 -0.1938 -0.0511
 2075PEP     CB79314  17.693  10.966  15.101 -0.2888  0.3724 -0.2852
 2075PEP     CB79315  17.389  10.592  14.864  0.0037 -0.0616  0.1618
 2075PEP     CB79316  17.028  10.743  14.727  0.1333 -0.1059  0.0067
 2075PEP     CB79317  17.077  11.087  14.526 -0.3058  0.0452  0.2535
 2075PEP     CB79318  17.452  11.279  14.412 -0.0604 -0.0121  0.2931
 2075PEP     CB79319  17.829  11.199  14.432 -0.1522 -0.1643  0.0599
 2075PEP     CB79320  18.133  11.110  14.866 -0.2723 -0.5654  0.1845
 2076PEP     CB79321   0.627  19.186   6.920 -0.3671  0.2011 -0.2923
 2076PEP     CB79322   0.880  19.577   7.044  0.0301 -0.0720 -0.7049
 2076PEP     CB79323   0.601  19.943   7.358 -0.3371 -0.1676 -0.5391
 2076PEP     CB79324   0.224  20.149   7.609  0.0507  0.3422 -0.2136
 2076PEP     CB79325  -0.145  20.169   7.701  0.1802  0.0172  0.1182
 2076PEP     CB79326  -0.608  20.340   7.735  0.0143 -0.0033 -0.0654
 2076PEP     CB79327  -0.745  20.729   7.881  0.0611  0.4296  0.1588
 2076PEP     CB79328  -0.516  21.043   7.757  0.0458  0.0892 -0.1716
 2076PEP     CB79329  -0.550  21.196   7.398 -0.0444  0.0931 -0.0438
 2076PEP     CB79330  -0.541  21.612   7.170  0.0865  0.2601 -0.2612
 2076PEP     CB79331  -0.707  22.015   7.004  0.0431  0.0489  0.0345
 2076PEP     CB79332  -0.963  22.229   7.241 -0.1049  0.0166 -0.2406
 2076PEP     CB79333  -1.133  22.036   7.664  0.1447  0.1142 -0.3930
 2076PEP     CB79334  -1.108  21.876   8.095  0.0728  0.0133  0.1259
 2076PEP     CB79335  -0.732  21.819   8.350  0.1748 -0.3684  0.0279
 2076PEP     CB79336  -0.540  22.224   8.615  0.3234 -0.0855  0.0100
 2076PEP     CB79337  -0.710  22.623   8.533 -0.4217  0.2269  0.4965
 2076PEP     CB79338  -0.941  22.976   8.649 -0.0367 -0.0800  0.1934
 2076PEP     CB79339  -1.002  23.176   9.063 -0.1580 -0.0875  0.2654
 2076PEP     CB79340  -1.088  23.288   9.509  0.0397  0.0145  0.1071
 2076PEP     CB79341  -1.436  23.354   9.778 -0.1953 -0.1615  0.3153
 2076PEP     CB79342  -1.792  23.465  10.023  0.1052  0.1241  0.0335
 2076PEP     CB79343  -2.068  23.646  10.349  0.5267  0.2757 -0.1141
 2076PEP     CB79344  -2.339  23.840  10.671 -0.6182  0.1290  0.1141
 2076PEP     CB79345  -2.299  24.159  10.948 -0.0099 -0.2677  0.1009
 2076PEP     CB79346  -1.898  24.288  11.169  0.0136  0.0074 -0.2579
 2076PEP     CB79347  -1.471  24.061  11.208 -0.1481 -0.0768 -0.2474
 2076PEP     CB79348  -1.073  23.988  11.406  0.1581 -0.0236 -0.1251
 2076PEP     CB79349  -0.686  24.172  11.537 -0.1743 -0.3456  0.0487
 2076PEP     CB79350  -0.580  24.567  11.609 -0.1324 -0.3162 -0.1448
 2076PEP     CB79351  -0.402  24.989  11.777  0.1302  0.1825 -0.0263
 2076PEP     CB79352  -0.001  25.209  11.994 -0.0706 -0.2044 -0.0671
 2076PEP     CB79353   0.478  25.076  11.876  0.1771  0.0705  0.1800
 2076PEP     CB79354   0.873  25.206  12.034 -0.0409 -0.1088  0.2356
 2076PEP     CB79355   1.231  25.095  12.448 -0.2849 -0.3212  0.0739
 2076PEP     CB79356   1.456  24.752  12.429  0.3497  0.0603 -0.0561
 2076PEP     CB79357   1.591  24.592  12.051  0.2796 -0.1519 -0.0918
 2076PEP     CB79358   1.577  24.781  11.688 -0.0275 -0.0789  0.0288
 2076PEP     CB79359   1.469  25.200  11.591  0.1189  0.1374  0.0136
 2076PEP     CB79360   1.725  25.615  11.558 -0.0358 -0.0639 -0.1746
 2077PEP     CB79361  20.518  11.151  19.892 -0.0177  0.1478  0.2635
 2077PEP     CB79362  20.931  10.817  19.912  0.0292 -0.1128  0.4478
 2077PEP     CB79363  21.298  10.620  20.208 -0.2587  0.1446  0.0597
 2077PEP     CB79364  21.664  10.727  20.430 -0.1367  0.0226 -0.1917
 2077PEP     CB79365  21.681  11.049  20.735 -0.3898 -0.1835  0.0099
 2077PEP     CB79366  21.702  11.460  20.629  0.1455  0.1372  0.0035
 2077PEP     CB79367  21.521  11.708  20.252 -0.0691  0.3163 -0.1485
 2077PEP     CB79368  21.235  11.741  19.926 -0.1091  0.3373  0.2661
 2077PEP     CB79369  21.208  11.775  19.488  0.4133 -0.1661 -0.1809
 2077PEP     CB79370  21.138  11.891  19.067 -0.2843  0.0176  0.2372
 2077PEP     CB79371  21.275  12.105  18.829 -0.2374  0.1306  0.2062
 2077PEP     CB79372  21.275  12.532  18.746  0.1844  0.1795 -0.2037
 2077PEP     CB79373  21.314  12.950  18.876  0.0341 -0.2994  0.2169
 2077PEP     CB79374  21.521  13.452  18.902  0.0201 -0.1724  0.1294
 2077PEP     CB79375  21.595  13.911  18.823 -0.0418  0.0614 -0.2347
 2077PEP     CB79376  21.586  14.215  18.524 -0.2792 -0.3686 -0.0937
 2077PEP     CB79377  21.441  14.469  18.338 -0.0389 -0.0020 -0.2345
 2077PEP     CB79378  21.390  14.847  18.189  0.1652  0.1519  0.2081
 2077PEP     CB79379  21.414  15.353  18.081  0.3753  0.0324  0.1660
 2077PEP     CB79380  21.246  15.753  18.235 -0.0170  0.0717  0.3842
 2077PEP     CB79381  20.896  15.930  18.250 -0.0523 -0.0075  0.0561
 2077PEP     CB79382  20.615  16.160  18.547  0.0492  0.0430  0.0464
 2077PEP     CB79383  20.474  16.574  18.628 -0.2110  0.0951 -0.4962
 2077PEP     CB79384  20.402  16.982  18.776  0.1155  0.3515  0.0847
 2077PEP     CB79385  20.438  17.286  19.112  0.1890  0.0272  0.1902
 2077PEP     CB79386  20.143  17.628  19.215 -0.2209  0.0240 -0.4067
 2077PEP     CB79387  19.921  17.911  19.567  0.2187  0.3785 -0.1242
 2077PEP     CB79388  19.982  18.067  20.022 -0.2367  0.0662  0.1389
 2077PEP     CB79389  20.320  17.843  20.264 -0.1162 -0.3451  0.5158
 2077PEP     CB79390  20.777  17.617  20.263 -0.2555 -0.0499  0.2843
 2077PEP     CB79391  21.284  17.543  20.196 -0.0204 -0.4720  0.3301
 2077PEP     CB79392  21.640  17.423  20.505 -0.1903 -0.1714 -0.1418
 2077PEP     CB79393  22.103  17.345  20.452 -0.0433 -0.1759 -0.1488
 2077PEP     CB79394  22.326  17.516  20.318  0.2716  0.3991 -0.0813
 2077PEP     CB79395  22.584  17.690  19.970  0.0263 -0.3201  0.1306
 2077PEP     CB79396  22.313  17.759  19.622  0.2086  0.1382 -0.1369
 2077PEP     CB79397  21.877  17.574  19.612 -0.0827  0.3769 -0.0906
 2077PEP     CB79398  21.448  17.448  19.428  0.1822 -0.0338 -0.2698
 2077PEP     CB79399  21.010  17.587  19.263 -0.3942 -0.4967 -0.3108
 2077PEP     CB79400  20.740  17.798  19.380 -0.1031  0.1986 -0.1792
 2078PEP     CB79401  14.717   3.176  19.349  0.3566 -0.2722 -0.3168
 2078PEP     CB79402  14.936   3.429  19.186 -0.2251  0.1760  0.0701
 2078PEP     CB79403  15.405   3.420  18.985  0.1633  0.2463 -0.1941
 2078PEP     CB79404  15.565   3.181  18.615 -0.3676 -0.0252  0.1329
 2078PEP     CB79405  15.329   2.825  18.466  0.1560 -0.4847 -0.0156
 2078PEP     CB79406  15.256   2.466  18.734  0.1801 -0.0620  0.2172
 2078PEP     CB79407  15.536   2.480  19.164 -0.1126  0.0717  0.2570
 2078PEP     CB79408  15.616   2.385  19.573 -0.2216  0.0781 -0.0936
 2078PEP     CB79409  15.687   2.324  19.985 -0.3234  0.1030  0.3082
 2078PEP     CB79410  15.655   2.076  20.305  0.1558 -0.0415 -0.3329
 2078PEP     CB79411  15.818   1.834  20.611 -0.2745 -0.1947 -0.0379
 2078PEP     CB79412  15.933   1.519  20.891  0.3414  0.1608  0.5406
 2078PEP     CB79413  16.172   1.168  20.921 -0.0707  0.2326 -0.1279
 2078PEP     CB79414  16.349   0.759  20.908  0.0650  0.0127  0.1003
 2078PEP     CB79415  16.492   0.354  20.715 -0.2760 -0.2576  0.4589
 2078PEP     CB79416  16.611  -0.135  20.578  0.2540  0.1423 -0.1941
 2078PEP     CB79417  16.690  -0.427  20.920  0.1472 -0.0642 -0.2599
 2078PEP     CB79418  16.546  -0.292  21.253  0.0939  0.2942  0.3632
 2078PEP     CB79419  16.422   0.137  21.305 -0.0617  0.1624 -0.0187
 2078PEP     CB79420  16.369   0.412  21.660 -0.3167 -0.0933 -0.0323
 2078PEP     CB79421  16.586   0.336  21.999 -0.1323 -0.1064 -0.0194
 2078PEP     CB79422  16.528  -0.085  22.315 -0.1000 -0.4732 -0.0814
 2078PEP     CB79423  16.304  -0.594  22.340 -0.0989  0.1344 -0.1389
 2078PEP     CB79424  15.923  -0.773  22.439  0.0138  0.1119 -0.2241
 2078PEP     CB79425  15.573  -0.660  22.646 -0.0806 -0.0902 -0.2924
 2078PEP     CB79426  15.559  -0.345  22.940 -0.1969  0.0200  0.2958
 2078PEP     CB79427  15.727  -0.171  23.324  0.1656  0.0854  0.3233
 2078PEP     CB79428  15.716  -0.127  23.726 -0.1357  0.0886  0.1109
 2078PEP     CB79429  15.723  -0.053  24.254  0.2470 -0.1853 -0.1958
 2078PEP     CB79430  15.717   0.126  24.669 -0.2728  0.0503  0.0922
 2078PEP     CB79431  15.578   0.174  25.071 -0.1152 -0.0414  0.2145
 2078PEP     CB79432  15.750   0.212  25.492 -0.2661 -0.0597  0.2561
 2078PEP     CB79433  15.821  -0.058  25.821  0.0408 -0.0982 -0.0683
 2078PEP     CB79434  15.706  -0.314  26.153  0.4455  0.3578 -0.2945
 2078PEP     CB79435  15.606  -0.546  26.549  0.0264 -0.0729 -0.2758
 2078PEP     CB79436  15.591  -0.769  26.870 -0.1488 -0.1128  0.0200
 2078PEP     CB79437  15.622  -0.686  27.335  0.1323  0.2401 -0.2165
 2078PEP     CB79438  15.209  -0.570  27.513 -0.1180 -0.4455 -0.2141
 2078PEP     CB79439  14.886  -0.337  27.516 -0.2270 -0.1177  0.0792
 2078PEP     CB79440  14.643  -0.292  27.880  0.3383 -0.2668  0.2991
 2079PEP     CB79441   8.043   0.671   2.783 -0.4682 -0.0461 -0.2996
 2079PEP     CB79442   7.654   0.639   2.728 -0.2011  0.2935 -0.0327
 2079PEP     CB79443   7.337   0.600   2.437  0.1847  0.2715  0.4419
 2079PEP     CB79444   7.100   0.884   2.092  0.4938 -0.1258  0.3220
 2079PEP     CB79445   7.024   1.314   2.235 -0.1534  0.2594  0.0431
 2079PEP     CB79446   6.904   1.370   2.636  0.0531  0.1357  0.0823
 2079PEP     CB79447   6.586   1.610   2.862 -0.2979  0.0529 -0.4600
 2079PEP     CB79448   6.407   1.938   2.856 -0.0621  0.3377  0.1145
 2079PEP     CB79449   6.221   2.319   2.699  0.2744 -0.2178  0.0362
 2079PEP     CB79450   6.198   2.649   2.856  0.0475 -0.0423  0.2789
 2079PEP     CB79451   6.644   2.863   2.994  0.0475 -0.1148  0.0359
 2079PEP     CB79452   7.050   2.659   2.852  0.5305  0.0615 -0.3219
 2079PEP     CB79453   7.344   2.541   2.497  0.0578 -0.4100  0.2675
 2079PEP     CB79454   7.482   2.462   2.118 -0.2576  0.0967  0.0315
 2079PEP     CB79455   7.696   2.302   1.872  0.3076  0.1125  0.0350
 2079PEP     CB79456   7.830   2.166   1.469 -0.3406 -0.1256 -0.3133
 2079PEP     CB79457   7.947   2.297   1.142 -0.6061  0.0364  0.1134
 2079PEP     CB79458   7.930   2.662   0.817 -0.1155 -0.2205 -0.4026
 2079PEP     CB79459   8.043   3.025   0.892  0.1232 -0.0024  0.3140
 2079PEP     CB79460   8.443   3.294   0.875 -0.1707  0.1087  0.3328
 2079PEP     CB79461   8.789   3.582   1.005  0.3352  0.0684  0.0869
 2079PEP     CB79462   8.965   3.573   1.430  0.1063  0.0218  0.3627
 2079PEP     CB79463   9.207   3.574   1.708 -0.1218 -0.3195  0.0696
 2079PEP     CB79464   9.406   3.627   2.137 -0.0195 -0.0671  0.5901
 2079PEP     CB79465   9.493   3.608   2.549  0.0375  0.0489  0.1326
 2079PEP     CB79466   9.870   3.527   2.685  0.0569 -0.2281  0.2576
 2079PEP     CB79467  10.128   3.213   3.010 -0.0822  0.3292 -0.1890
 2079PEP     CB79468  10.209   2.893   3.233  0.0935 -0.2175  0.1965
 2079PEP     CB79469  10.508   2.581   3.252 -0.1051 -0.0974 -0.2139
 2079PEP     CB79470  10.970   2.643   3.186  0.0890 -0.0664 -0.1265
 2079PEP     CB79471  11.100   3.016   2.922 -0.3213 -0.1218  0.0477
 2079PEP     CB79472  10.826   3.354   2.656 -0.2157  0.2625  0.3375
 2079PEP     CB79473  10.821   3.735   2.446 -0.0755  0.3981  0.2175
 2079PEP     CB79474  10.980   4.155   2.496 -0.2027 -0.0440  0.3149
 2079PEP     CB79475  11.202   4.448   2.624 -0.1885 -0.4441 -0.1658
 2079PEP     CB79476  11.548   4.703   2.836 -0.1085 -0.0430  0.1809
 2079PEP     CB79477  11.705   5.113   3.018  0.0532  0.2497 -0.5031
 2079PEP     CB79478  11.887   5.445   3.283  0.1537  0.2390 -0.2724
 2079PEP     CB79479  12.142   5.774   3.449 -0.2506 -0.2626  0.0968
 2079PEP     CB79480  12.452   5.920   3.822 -0.1373 -0.1300 -0.0745
 2080PEP     CB79481   9.140   4.421   2.099  0.1269  0.4082 -0.2082
 2080PEP     CB79482   8.826   4.392   2.398  0.0474  0.0638  0.3261
 2080PEP     CB79483   8.427   4.394   2.423  0.3687  0.3496 -0.4304
 2080PEP     CB79484   8.209   4.466   2.082  0.0696 -0.0214  0.0918
 2080PEP     CB79485   8.113   4.681   1.733  0.0812  0.3627  0.1694
 2080PEP     CB79486   8.155   4.978   1.403  0.0615 -0.2541 -0.1639
 2080PEP     CB79487   8.108   5.307   1.085 -0.0800 -0.1788 -0.0192
 2080PEP     CB79488   7.803   5.451   0.762  0.0048  0.1510  0.0793
 2080PEP     CB79489   7.281   5.352   0.672 -0.1034  0.2128 -0.0334
 2080PEP     CB79490   6.956   5.074   0.857 -0.1449 -0.0104  0.1436
 2080PEP     CB79491   6.721   4.945   1.133  0.3860  0.3864 -0.1385
 2080PEP     CB79492   6.330   4.785   1.021 -0.0452  0.0126  0.0741
 2080PEP     CB79493   6.117   4.880   0.733 -0.3788 -0.6333  0.0229
 2080PEP     CB79494   5.986   5.326   0.682  0.1333 -0.0239 -0.3000
 2080PEP     CB79495   5.666   5.642   0.744 -0.0667  0.2489 -0.3506
 2080PEP     CB79496   5.319   5.700   0.476  0.3646 -0.2795  0.1117
 2080PEP     CB79497   5.161   5.474   0.145  0.0364 -0.0268  0.1519
 2080PEP     CB79498   5.340   5.089  -0.024  0.1664  0.0900 -0.1487
 2080PEP     CB79499   5.743   4.965  -0.154  0.1584 -0.1391  0.1754
 2080PEP     CB79500   6.144   5.095  -0.340 -0.0485  0.2714 -0.0940
 2080PEP     CB79501   6.633   5.073  -0.444  0.1177 -0.0931  0.1248
 2080PEP     CB79502   7.042   5.198  -0.752  0.0155 -0.0191 -0.0950
 2080PEP     CB79503   7.311   5.250  -1.122 -0.0379  0.5023 -0.0457
 2080PEP     CB79504   7.659   5.491  -1.258  0.3000 -0.1237  0.4695
 2080PEP     CB79505   8.139   5.664  -1.369 -0.3987 -0.3133 -0.0014
 2080PEP     CB79506   8.440   5.634  -1.277  0.1497 -0.3261  0.1203
 2080PEP     CB79507   8.762   5.383  -1.099  0.2550  0.0794  0.1413
 2080PEP     CB79508   9.006   5.268  -0.743 -0.5395  0.1880  0.1044
 2080PEP     CB79509   9.200   5.298  -0.294 -0.0719 -0.3313 -0.1059
 2080PEP     CB79510   9.637   5.441  -0.136 -0.2714  0.0182  0.5298
 2080PEP     CB79511   9.976   5.662  -0.389 -0.1241 -0.1716  0.3274
 2080PEP     CB79512   9.965   5.940  -0.759 -0.3382 -0.3981  0.3205
 2080PEP     CB79513   9.898   5.987  -1.196 -0.0921 -0.1821 -0.1852
 2080PEP     CB79514   9.977   6.345  -1.556 -0.2463 -0.2976 -0.2809
 2080PEP     CB79515  10.281   6.596  -1.493 -0.1041 -0.1828 -0.2088
 2080PEP     CB79516  10.310   6.895  -1.100 -0.1468 -0.2298  0.1310
 2080PEP     CB79517  10.177   6.823  -0.669  0.4428  0.0561  0.1314
 2080PEP     CB79518  10.104   7.011  -0.168 -0.3989  0.4159 -0.0614
 2080PEP     CB79519  10.240   7.322   0.029  0.3365 -0.0841 -0.4109
 2080PEP     CB79520  10.206   7.789   0.224 -0.4425  0.0968  0.0907
 2081PEP     CB79521   2.872  10.228   4.337 -0.1468  0.1579 -0.0561
 2081PEP     CB79522   2.910  10.668   4.286 -0.0314 -0.1694 -0.0698
 2081PEP     CB79523   2.731  11.012   4.632  0.0912 -0.0887 -0.0680
 2081PEP     CB79524   2.601  11.261   4.891  0.2673  0.2536 -0.0674
 2081PEP     CB79525   2.497  11.661   5.238 -0.2820 -0.2175 -0.1220
 2081PEP     CB79526   2.015  11.881   5.299  0.0769  0.0817 -0.2689
 2081PEP     CB79527   1.650  11.576   5.164  0.0359  0.0732  0.0369
 2081PEP     CB79528   1.566  11.285   5.422 -0.0307  0.2757  0.5185
 2081PEP     CB79529   1.600  11.025   5.748 -0.0356 -0.1188 -0.0261
 2081PEP     CB79530   1.427  10.632   5.972  0.6049  0.0368 -0.1905
 2081PEP     CB79531   1.207  10.598   6.271  0.1641 -0.3511  0.2882
 2081PEP     CB79532   1.203  10.446   6.608  0.2545  0.2910 -0.0081
 2081PEP     CB79533   1.344  10.394   7.084  0.0105  0.1680 -0.1349
 2081PEP     CB79534   1.748  10.419   7.317 -0.1097 -0.1521  0.0095
 2081PEP     CB79535   2.009  10.384   7.680 -0.0351  0.4300  0.0220
 2081PEP     CB79536   1.951  10.648   8.021  0.0358  0.1453 -0.1268
 2081PEP     CB79537   1.664  10.900   8.376 -0.1011 -0.1624 -0.3300
 2081PEP     CB79538   1.292  10.743   8.528 -0.0689  0.4159 -0.1066
 2081PEP     CB79539   1.286  10.522   8.880  0.4103  0.1771  0.3490
 2081PEP     CB79540   1.390  10.217   9.015  0.0907  0.1328 -0.1845
 2081PEP     CB79541   1.342   9.871   9.194 -0.0479 -0.5289  0.2835
 2081PEP     CB79542   1.213   9.450   9.238 -0.1551 -0.0648  0.2641
 2081PEP     CB79543   0.929   9.290   9.500  0.3610  0.2306  0.5009
 2081PEP     CB79544   0.507   9.349   9.706 -0.0774 -0.0465  0.0321
 2081PEP     CB79545   0.303   9.321  10.076 -0.0249  0.0680  0.1346
 2081PEP     CB79546   0.112   8.889  10.254 -0.2576  0.2900  0.4100
 2081PEP     CB79547  -0.252   8.692  10.010 -0.2080  0.0114  0.0180
 2081PEP     CB79548  -0.363   8.406   9.628  0.4137 -0.0409  0.1936
 2081PEP     CB79549  -0.230   8.458   9.281  0.3940 -0.0546 -0.1986
 2081PEP     CB79550  -0.168   8.818   9.126  0.5066 -0.0086  0.0584
 2081PEP     CB79551  -0.124   9.246   8.872  0.4408  0.0817 -0.3340
 2081PEP     CB79552   0.168   9.437   8.516 -0.2616 -0.6846 -0.1320
 2081PEP     CB79553   0.311   9.415   8.064  0.2441  0.0835  0.0051
 2081PEP     CB79554   0.388   9.437   7.677  0.0412  0.1780  0.0633
 2081PEP     CB79555   0.501   9.615   7.284  0.2867  0.0832  0.1086
 2081PEP     CB79556   0.493   9.797   6.815 -0.2234  0.2844  0.0328
 2081PEP     CB79557   0.735   9.947   6.450  0.0579  0.0188 -0.0598
 2081PEP     CB79558   1.026  10.053   6.020 -0.0311  0.1952  0.0704
 2081PEP     CB79559   1.005  10.411   5.743 -0.3148 -0.1661 -0.4240
 2081PEP     CB79560   0.733  10.535   5.434 -0.2087 -0.0467 -0.2518
 2082PEP     CB79561  14.983   6.122  20.333 -0.3947  0.0151  0.2837
 2082PEP     CB79562  14.683   5.996  20.103 -0.0986  0.2414  0.1126
 2082PEP     CB79563  14.221   6.032  19.913 -0.1767 -0.1003  0.1497
 2082PEP     CB79564  13.946   6.297  19.652  0.1491 -0.2631 -0.2905
 2082PEP     CB79565  13.754   6.440  19.346  0.1682 -0.3477  0.1807
 2082PEP     CB79566  13.378   6.623  19.348  0.0430 -0.1513  0.5129
 2082PEP     CB79567  13.002   6.600  19.685  0.0154  0.0403 -0.3485
 2082PEP     CB79568  12.637   6.512  19.748 -0.0364 -0.2614  0.2428
 2082PEP     CB79569  12.308   6.602  19.989  0.2339  0.1184 -0.4111
 2082PEP     CB79570  11.903   6.749  19.896 -0.0743 -0.0169 -0.2689
 2082PEP     CB79571  11.644   6.743  19.518  0.2383  0.3099  0.1391
 2082PEP     CB79572  11.736   6.728  19.134 -0.1129 -0.2420 -0.2479
 2082PEP     CB79573  11.866   6.629  18.716 -0.2655 -0.0820  0.1879
 2082PEP     CB79574  12.134   6.537  18.349  0.0999 -0.3191 -0.0533
 2082PEP     CB79575  12.529   6.581  18.207 -0.1862 -0.4124 -0.1481
 2082PEP     CB79576  12.919   6.572  18.028  0.2592 -0.2344  0.2090
 2082PEP     CB79577  13.256   6.437  18.107  0.4927  0.1254 -0.0791
 2082PEP     CB79578  13.546   6.392  18.431  0.1016 -0.1500 -0.1955
 2082PEP     CB79579  13.602   6.225  18.772 -0.1852 -0.1189 -0.3584
 2082PEP     CB79580  13.351   6.147  19.168 -0.1198 -0.2345  0.4135
 2082PEP     CB79581  13.007   5.939  19.300  0.3583  0.0381  0.0642
 2082PEP     CB79582  12.697   5.634  19.412 -0.1251 -0.3691  0.1636
 2082PEP     CB79583  12.236   5.465  19.457 -0.0670  0.1809 -0.2568
 2082PEP     CB79584  12.038   5.276  19.800  0.0452  0.0016  0.1577
 2082PEP     CB79585  12.002   5.194  20.200 -0.0297  0.0390 -0.0721
 2082PEP     CB79586  12.292   5.308  20.554 -0.4697 -0.3013 -0.0715
 2082PEP     CB79587  12.687   5.285  20.564 -0.0108  0.1186  0.3059
 2082PEP     CB79588  13.079   5.370  20.157 -0.1577  0.1319  0.0580
 2082PEP     CB79589  13.352   5.189  19.852 -0.3310 -0.1915  0.3753
 2082PEP     CB79590  13.641   4.884  19.798  0.0305  0.1089 -0.1453
 2082PEP     CB79591  13.908   4.697  20.062  0.3376  0.0729 -0.4940
 2082PEP     CB79592  13.800   4.566  20.474 -0.2740  0.0324  0.1262
 2082PEP     CB79593  13.571   4.771  20.774 -0.0035  0.0211  0.4030
 2082PEP     CB79594  13.613   5.168  20.935  0.1380 -0.1352  0.3338
 2082PEP     CB79595  13.755   5.564  21.327  0.2184 -0.1057  0.2304
 2082PEP     CB79596  13.665   5.720  21.719  0.3230 -0.0491  0.0023
 2082PEP     CB79597  13.566   5.627  22.123 -0.1795  0.2127 -0.1694
 2082PEP     CB79598  13.121   5.792  22.424  0.0055  0.1386 -0.0148
 2082PEP     CB79599  12.933   5.768  22.773  0.3964 -0.0530  0.0484
 2082PEP     CB79600  13.113   5.621  23.151 -0.1787  0.3412 -0.2445
 2083PEP     CB79601   7.793  16.653  19.816 -0.4666 -0.4128 -0.1745
 2083PEP     CB79602   7.931  16.196  19.867 -0.3478  0.1597  0.1093
 2083PEP     CB79603   8.136  15.847  20.071 -0.1820  0.1383 -0.1419
 2083PEP     CB79604   8.078  15.809  20.545  0.0937 -0.1694  0.1411
 2083PEP     CB79605   8.231  16.052  20.808  0.1621  0.0019  0.2140
 2083PEP     CB79606   8.575  16.157  21.219  0.3857  0.0359  0.4462
 2083PEP     CB79607   8.759  16.000  21.624  0.1712 -0.0623  0.1013
 2083PEP     CB79608   9.050  15.738  21.756 -0.0150  0.0052  0.1334
 2083PEP     CB79609   9.261  15.494  22.022 -0.0478 -0.0681 -0.0235
 2083PEP     CB79610   9.689  15.264  22.144  0.1017  0.1113 -0.0609
 2083PEP     CB79611  10.049  15.112  22.286  0.0008 -0.1376  0.4870
 2083PEP     CB79612  10.401  15.132  22.517  0.2847 -0.2874  0.2164
 2083PEP     CB79613  10.785  15.240  22.678 -0.3899 -0.2098  0.4548
 2083PEP     CB79614  11.168  15.255  22.745 -0.5164  0.3048  0.0875
 2083PEP     CB79615  11.492  14.855  22.729  0.1571  0.1713  0.3069
 2083PEP     CB79616  11.636  14.463  22.820  0.1020 -0.2237 -0.3256
 2083PEP     CB79617  11.832  14.215  22.959 -0.0661 -0.1371  0.2023
 2083PEP     CB79618  12.001  14.006  23.290 -0.0718 -0.0446  0.1328
 2083PEP     CB79619  12.080  13.951  23.659 -0.0157  0.0454  0.1478
 2083PEP     CB79620  12.027  13.999  24.120 -0.0427 -0.2051  0.1472
 2083PEP     CB79621  11.606  14.121  24.324  0.0327 -0.2494 -0.0009
 2083PEP     CB79622  11.302  14.378  24.102 -0.0122 -0.0571 -0.3287
 2083PEP     CB79623  11.316  14.526  23.635 -0.4781 -0.3725  0.2768
 2083PEP     CB79624  11.676  14.422  23.382  0.0471 -0.3818 -0.2442
 2083PEP     CB79625  12.120  14.443  23.539 -0.0685  0.0951 -0.1289
 2083PEP     CB79626  12.312  14.307  23.913 -0.0409  0.0086 -0.0134
 2083PEP     CB79627  12.563  14.067  24.180 -0.1421  0.1015  0.3030
 2083PEP     CB79628  12.902  13.944  24.285 -0.1270 -0.5022  0.1412
 2083PEP     CB79629  13.135  13.594  24.471 -0.0620  0.0149 -0.3221
 2083PEP     CB79630  13.504  13.381  24.596  0.1691 -0.0559  0.2848
 2083PEP     CB79631  13.794  13.007  24.732  0.1311  0.4590  0.2103
 2083PEP     CB79632  13.740  12.556  24.834  0.1054 -0.2858 -0.1568
 2083PEP     CB79633  13.485  12.255  24.833 -0.0245 -0.1082  0.1714
 2083PEP     CB79634  13.580  11.893  24.595 -0.1231 -0.0493  0.5386
 2083PEP     CB79635  13.595  11.463  24.406  0.2762  0.1982 -0.0869
 2083PEP     CB79636  13.650  11.142  24.142 -0.0686  0.2332 -0.3308
 2083PEP     CB79637  13.850  10.923  23.789  0.1995  0.4811  0.0089
 2083PEP     CB79638  13.623  10.728  23.397  0.1826 -0.2528 -0.4107
 2083PEP     CB79639  13.503  10.571  23.054 -0.0172  0.2457 -0.1232
 2083PEP     CB79640  13.611  10.386  22.624  0.2832  0.2552 -0.2796
 2084PEP     CB79641   7.499  10.050   4.615  0.1194  0.2391  0.2990
 2084PEP     CB79642   7.324  10.320   4.853 -0.0913  0.1195  0.2579
 2084PEP     CB79643   7.356  10.402   5.278 -0.1566  0.0827  0.0297
 2084PEP     CB79644   7.383  10.216   5.632 -0.1235 -0.1789  0.0067
 2084PEP     CB79645   7.755   9.854   5.698 -0.3835  0.5347 -0.2607
 2084PEP     CB79646   8.139   9.959   5.840  0.0635  0.2190  0.1085
 2084PEP     CB79647   8.223  10.329   6.059  0.0581 -0.0395  0.0419
 2084PEP     CB79648   7.869  10.693   5.982 -0.1409 -0.3247 -0.0279
 2084PEP     CB79649   7.490  11.030   6.145  0.0321 -0.0257 -0.2252
 2084PEP     CB79650   7.274  11.362   6.327 -0.2139  0.1371  0.2057
 2084PEP     CB79651   6.974  11.678   6.237 -0.2325 -0.0233 -0.0297
 2084PEP     CB79652   6.572  11.962   6.224 -0.1755 -0.2327  0.4630
 2084PEP     CB79653   6.392  11.959   5.902  0.1959  0.3886  0.2227
 2084PEP     CB79654   6.414  12.124   5.560  0.4359  0.1186  0.1252
 2084PEP     CB79655   6.577  12.490   5.607  0.2085  0.0026  0.3895
 2084PEP     CB79656   6.752  12.586   6.062  0.2114  0.1379  0.0914
 2084PEP     CB79657   6.683  12.480   6.544  0.1333  0.1018  0.1888
 2084PEP     CB79658   6.380  12.436   6.844 -0.0587 -0.0220 -0.3052
 2084PEP     CB79659   6.319  12.252   7.154 -0.1340  0.0509 -0.3150
 2084PEP     CB79660   6.202  11.840   7.227 -0.0651 -0.1580  0.2033
 2084PEP     CB79661   6.187  11.384   6.967 -0.2210 -0.2638 -0.1000
 2084PEP     CB79662   5.971  11.198   6.613 -0.0706  0.0269 -0.0085
 2084PEP     CB79663   5.763  11.399   6.238 -0.0569  0.0415  0.3680
 2084PEP     CB79664   5.423  11.639   6.121  0.2911 -0.3057 -0.0111
 2084PEP     CB79665   5.002  11.457   6.217  0.0056 -0.1835 -0.3847
 2084PEP     CB79666   4.685  11.322   6.398 -0.3092  0.5147  0.5185
 2084PEP     CB79667   4.436  10.979   6.305  0.2194  0.0464 -0.1512
 2084PEP     CB79668   4.207  10.956   5.983  0.3791 -0.6122 -0.3689
 2084PEP     CB79669   3.934  10.685   5.695 -0.0111 -0.0039  0.1725
 2084PEP     CB79670   3.633  10.416   5.389 -0.2773  0.0592 -0.0277
 2084PEP     CB79671   3.411  10.001   5.337 -0.1965  0.1015 -0.0489
 2084PEP     CB79672   3.033   9.773   5.375  0.1305  0.2792 -0.5057
 2084PEP     CB79673   2.988   9.390   5.282  0.1313 -0.7609 -0.1587
 2084PEP     CB79674   3.230   9.272   4.975  0.1800 -0.0166  0.4154
 2084PEP     CB79675   3.364   9.056   4.630 -0.3687  0.2885 -0.2429
 2084PEP     CB79676   3.512   8.999   4.209  0.0787  0.1371  0.0544
 2084PEP     CB79677   3.837   8.824   4.031 -0.1306  0.3764  0.1339
 2084PEP     CB79678   4.318   8.655   4.125  0.3181  0.0862 -0.2932
 2084PEP     CB79679   4.465   8.338   3.994 -0.1608  0.1687 -0.0511
 2084PEP     CB79680   4.270   7.851   4.007 -0.0466 -0.0082 -0.3037
 2085PEP     CB79681  21.399   5.072  18.952 -0.1932  0.2043 -0.1759
 2085PEP     CB79682  21.527   5.333  19.229  0.0591 -0.3720  0.2247
 2085PEP     CB79683  21.302   5.734  19.406  0.4014 -0.3791  0.4441
 2085PEP     CB79684  21.567   6.163  19.470  0.3288  0.1792  0.1076
 2085PEP     CB79685  22.026   6.267  19.568  0.0073 -0.1208  0.0540
 2085PEP     CB79686  22.295   6.127  19.891 -0.1962 -0.2284 -0.2210
 2085PEP     CB79687  22.359   5.972  20.317 -0.3618 -0.0068 -0.0485
 2085PEP     CB79688  22.183   5.932  20.761 -0.1495  0.1675 -0.0860
 2085PEP     CB79689  22.367   5.886  21.117  0.3716 -0.0914 -0.0769
 2085PEP     CB79690  22.540   6.213  21.412 -0.1587  0.0832  0.1023
 2085PEP     CB79691  22.678   6.649  21.314  0.1914  0.1072 -0.1643
 2085PEP     CB79692  22.730   6.864  20.897 -0.0618 -0.0296 -0.4760
 2085PEP     CB79693  23.081   6.694  20.689  0.4414 -0.3332  0.0697
 2085PEP     CB79694  23.252   6.272  20.911  0.4797 -0.0564 -0.3674
 2085PEP     CB79695  23.515   5.933  21.064 -0.3039  0.1367 -0.4319
 2085PEP     CB79696  23.628   5.544  21.196 -0.3273  0.1014  0.4607
 2085PEP     CB79697  23.661   5.144  21.397  0.1123 -0.1230  0.1680
 2085PEP     CB79698  23.722   4.742  21.623 -0.0672 -0.3663 -0.1676
 2085PEP     CB79699  23.413   4.540  21.851 -0.4110  0.2240 -0.0270
 2085PEP     CB79700  23.044   4.566  21.633  0.6170 -0.1584  0.2038
 2085PEP     CB79701  23.162   4.525  21.127  0.0632  0.0158 -0.0518
 2085PEP     CB79702  23.607   4.549  21.020 -0.0298  0.2429 -0.0847
 2085PEP     CB79703  23.972   4.818  21.134  0.0869  0.1054  0.2078
 2085PEP     CB79704  24.220   5.042  21.358 -0.2822 -0.0800 -0.4749
 2085PEP     CB79705  24.325   5.052  21.826 -0.1243 -0.0012 -0.0642
 2085PEP     CB79706  24.522   4.739  22.125 -0.0502 -0.3603  0.3472
 2085PEP     CB79707  24.757   4.291  22.197  0.1528  0.0188  0.3433
 2085PEP     CB79708  24.568   3.917  22.030  0.1601  0.0743 -0.0165
 2085PEP     CB79709  24.195   3.691  22.113  0.1311 -0.0088 -0.3399
 2085PEP     CB79710  23.879   3.311  22.088  0.2600 -0.1323  0.2549
 2085PEP     CB79711  23.859   2.882  22.116 -0.4262  0.2243  0.4558
 2085PEP     CB79712  23.833   2.462  22.015  0.0681  0.1611  0.1238
 2085PEP     CB79713  23.730   1.988  21.986 -0.5595  0.3265  0.0841
 2085PEP     CB79714  23.719   1.567  22.055  0.4578  0.2129  0.0098
 2085PEP     CB79715  23.462   1.275  22.177 -0.0121  0.1609 -0.0196
 2085PEP     CB79716  23.031   1.039  22.103  0.0759  0.0770 -0.1917
 2085PEP     CB79717  22.913   0.656  22.282  0.3931  0.0156  0.1326
 2085PEP     CB79718  23.209   0.516  22.647 -0.0119  0.3270  0.1685
 2085PEP     CB79719  23.456   0.635  22.959 -0.0305 -0.2459  0.2387
 2085PEP     CB79720  23.571   0.567  23.249  0.0814 -0.2311  0.0976
 2086PEP     CB79721  18.741  15.882   5.877  0.2709  0.5434 -0.3118
 2086PEP     CB79722  18.995  16.200   6.096 -0.0212 -0.4914  0.0278
 2086PEP     CB79723  19.376  16.213   6.376 -0.2761 -0.1672 -0.5976
 2086PEP     CB79724  19.745  15.994   6.355  0.1691  0.4602  0.0902
 2086PEP     CB79725  19.900  15.723   6.673  0.1334 -0.2692 -0.0925
 2086PEP     CB79726  19.606  15.679   7.025  0.1561  0.0830  0.3251
 2086PEP     CB79727  19.222  15.895   6.911  0.2459 -0.1323  0.1744
 2086PEP     CB79728  19.110  16.357   6.778  0.1379 -0.0153 -0.1277
 2086PEP     CB79729  19.484  16.637   6.613  0.0812 -0.1932 -0.0330
 2086PEP     CB79730  19.893  16.629   6.912 -0.3198  0.1481  0.1905
 2086PEP     CB79731  19.976  16.623   7.285  0.1405  0.2817  0.0269
 2086PEP     CB79732  19.861  16.729   7.649  0.0212  0.2366 -0.2921
 2086PEP     CB79733  19.675  17.094   7.838  0.0118  0.0297  0.0719
 2086PEP     CB79734  19.293  17.299   7.950 -0.2177  0.0238 -0.1128
 2086PEP     CB79735  19.242  17.675   7.906 -0.0734  0.1357 -0.4812
 2086PEP     CB79736  19.541  18.082   7.944 -0.1425 -0.3238  0.4414
 2086PEP     CB79737  19.970  18.267   8.213 -0.2692  0.0979 -0.4209
 2086PEP     CB79738  20.180  18.279   8.582 -0.0534  0.3377 -0.0333
 2086PEP     CB79739  20.553  18.066   8.837  0.0833  0.1107  0.1003
 2086PEP     CB79740  20.976  17.998   8.960  0.3221 -0.4411 -0.1959
 2086PEP     CB79741  21.354  17.871   8.907  0.1037 -0.1495  0.0718
 2086PEP     CB79742  21.529  17.703   8.571 -0.3585 -0.0029  0.1322
 2086PEP     CB79743  21.841  17.579   8.491 -0.0829  0.5304 -0.0060
 2086PEP     CB79744  22.310  17.532   8.650  0.1376  0.1108  0.0593
 2086PEP     CB79745  22.528  17.410   9.025  0.1816 -0.1269  0.2662
 2086PEP     CB79746  22.397  17.399   9.448  0.1557  0.1939 -0.0483
 2086PEP     CB79747  22.193  17.084   9.691  0.4261 -0.0279  0.2168
 2086PEP     CB79748  21.936  16.744   9.715  0.2604 -0.1669 -0.4511
 2086PEP     CB79749  21.988  16.308   9.629 -0.0385  0.6135 -0.5666
 2086PEP     CB79750  22.042  16.049   9.230 -0.1646 -0.0194  0.2679
 2086PEP     CB79751  22.270  16.010   8.860  0.3130 -0.0806 -0.1702
 2086PEP     CB79752  22.440  16.298   8.595 -0.1589 -0.0277  0.4135
 2086PEP     CB79753  22.717  16.664   8.491  0.0515  0.1672 -0.2620
 2086PEP     CB79754  23.191  16.796   8.566 -0.0524  0.0813 -0.0488
 2086PEP     CB79755  23.561  16.602   8.367  0.0900 -0.1233  0.1318
 2086PEP     CB79756  23.852  16.442   8.362  0.0496  0.0094 -0.2010
 2086PEP     CB79757  24.275  16.432   8.394  0.5619 -0.2715  0.1344
 2086PEP     CB79758  24.518  16.708   8.365 -0.4504  0.1787  0.3505
 2086PEP     CB79759  24.505  17.043   8.060 -0.3961  0.0694 -0.0890
 2086PEP     CB79760  24.319  17.485   7.943 -0.2654 -0.1644 -0.0961
 2087PEP     CB79761  14.173  15.069   1.717 -0.1924 -0.1553  0.3704
 2087PEP     CB79762  13.722  14.975   1.726 -0.0574 -0.1324  0.2242
 2087PEP     CB79763  13.397  14.998   1.961 -0.3107  0.1647 -0.1528
 2087PEP     CB79764  13.003  15.046   1.902 -0.1921  0.0850 -0.0423
 2087PEP     CB79765  12.529  15.074   1.869 -0.0077  0.0787  0.2641
 2087PEP     CB79766  12.066  15.056   1.853 -0.3805  0.0859  0.2946
 2087PEP     CB79767  11.726  15.025   1.648  0.1206  0.0127  0.2720
 2087PEP     CB79768  11.649  14.947   1.234 -0.0424  0.1041 -0.2053
 2087PEP     CB79769  11.940  15.088   0.844 -0.3434 -0.0568 -0.3823
 2087PEP     CB79770  12.121  15.446   0.779  0.1690 -0.1979  0.0256
 2087PEP     CB79771  12.303  15.721   1.052  0.0050 -0.3328  0.1745
 2087PEP     CB79772  12.545  15.763   1.462 -0.2392 -0.1363  0.1332
 2087PEP     CB79773  12.956  15.681   1.543 -0.2086 -0.0794  0.0663
 2087PEP     CB79774  13.292  15.522   1.793 -0.2838  0.1821 -0.4038
 2087PEP     CB79775  13.687  15.367   1.950 -0.2091 -0.0587  0.2082
 2087PEP     CB79776  13.762  15.160   2.217  0.3405  0.1429 -0.1877
 2087PEP     CB79777  13.618  14.845   2.623 -0.0707 -0.1367 -0.0948
 2087PEP     CB79778  13.401  14.507   2.754  0.0645  0.2448 -0.0455
 2087PEP     CB79779  12.978  14.345   2.650  0.1098  0.0189 -0.0741
 2087PEP     CB79780  12.695  14.493   2.274  0.1046 -0.1044  0.0068
 2087PEP     CB79781  12.767  14.487   1.845  0.0752  0.1312 -0.1518
 2087PEP     CB79782  13.017  14.641   1.553  0.1308 -0.1946  0.1157
 2087PEP     CB79783  12.967  14.650   1.100  0.2179 -0.2564  0.2214
 2087PEP     CB79784  13.050  14.709   0.638 -0.3637  0.0106 -0.1463
 2087PEP     CB79785  12.985  15.024   0.238 -0.1447  0.0319  0.1350
 2087PEP     CB79786  13.052  15.239  -0.120  0.2547  0.5451 -0.0594
 2087PEP     CB79787  13.182  15.310  -0.595 -0.1054 -0.0243  0.2771
 2087PEP     CB79788  13.201  15.317  -0.961 -0.1168  0.3504  0.2164
 2087PEP     CB79789  13.126  15.010  -1.307 -0.1299 -0.2518  0.0273
 2087PEP     CB79790  13.281  14.919  -1.748  0.0448  0.0580  0.0794
 2087PEP     CB79791  13.774  15.036  -1.796  0.0358  0.1594  0.5444
 2087PEP     CB79792  14.130  14.839  -1.747  0.0917 -0.1368 -0.3456
 2087PEP     CB79793  14.155  14.489  -1.577  0.1974 -0.0905  0.1132
 2087PEP     CB79794  13.827  14.260  -1.474 -0.3209 -0.1028 -0.2544
 2087PEP     CB79795  13.783  14.070  -1.093  0.0718  0.1904  0.1148
 2087PEP     CB79796  13.723  14.166  -0.631  0.4345  0.0875 -0.0595
 2087PEP     CB79797  13.514  14.307  -0.300 -0.0100  0.0585  0.1108
 2087PEP     CB79798  13.458  14.647   0.050 -0.1542 -0.0648 -0.0043
 2087PEP     CB79799  13.463  15.056   0.218 -0.2482  0.1008 -0.0734
 2087PEP     CB79800  13.344  15.358   0.525  0.0413  0.2217  0.1422
 2088PEP     CB79801  19.638  13.011  11.111 -0.3241 -0.2597  0.1019
 2088PEP     CB79802  19.671  13.313  11.427 -0.0823  0.0211 -0.0030
 2088PEP     CB79803  19.633  13.467  11.934 -0.2575  0.5775 -0.3167
 2088PEP     CB79804  19.419  13.742  12.186  0.3010 -0.0907 -0.2171
 2088PEP     CB79805  19.059  13.908  12.437 -0.1382 -0.0003 -0.2221
 2088PEP     CB79806  18.650  13.793  12.513  0.0306  0.0512  0.0292
 2088PEP     CB79807  18.253  13.524  12.585 -0.0690  0.3306 -0.2878
 2088PEP     CB79808  17.969  13.219  12.462  0.2097 -0.0982 -0.2617
 2088PEP     CB79809  17.634  12.834  12.288  0.0016 -0.4863  0.1547
 2088PEP     CB79810  17.360  12.431  12.294  0.2459  0.1330  0.1175
 2088PEP     CB79811  17.267  11.992  12.225 -0.3876 -0.0220  0.0679
 2088PEP     CB79812  17.404  11.585  12.278  0.3571 -0.7329  0.0845
 2088PEP     CB79813  17.196  11.106  12.374  0.4038  0.1511  0.0288
 2088PEP     CB79814  16.808  10.946  12.520 -0.0188 -0.0584 -0.1041
 2088PEP     CB79815  16.671  10.900  12.944  0.3540 -0.0075  0.1801
 2088PEP     CB79816  16.651  10.478  13.056  0.1211  0.1393 -0.0702
 2088PEP     CB79817  16.583  10.074  12.991  0.1897  0.1162  0.2696
 2088PEP     CB79818  16.820   9.695  12.922 -0.0000  0.4611 -0.0743
 2088PEP     CB79819  17.145   9.481  12.797  0.4720  0.0212  0.0704
 2088PEP     CB79820  17.449   9.295  12.482 -0.0518 -0.4450  0.4568
 2088PEP     CB79821  17.584   9.104  12.045 -0.3941  0.1055 -0.0880
 2088PEP     CB79822  17.848   8.987  11.682  0.0763  0.2416  0.1494
 2088PEP     CB79823  18.080   9.222  11.410 -0.0701  0.1148  0.0391
 2088PEP     CB79824  18.499   9.355  11.218 -0.3047 -0.5325  0.0205
 2088PEP     CB79825  18.853   9.540  10.969  0.0436 -0.1663 -0.1700
 2088PEP     CB79826  18.852   9.873  10.681  0.1578 -0.0075  0.1856
 2088PEP     CB79827  18.640  10.067  10.236 -0.3113  0.1496  0.3921
 2088PEP     CB79828  18.525  10.344  10.025  0.2869 -0.0599 -0.1176
 2088PEP     CB79829  18.367  10.725  10.004  0.0496  0.0953 -0.4179
 2088PEP     CB79830  18.287  10.925   9.705 -0.3909 -0.1616 -0.2990
 2088PEP     CB79831  18.296  10.927   9.262 -0.1306 -0.1104 -0.3017
 2088PEP     CB79832  18.470  10.794   8.894 -0.4610  0.1243  0.2496
 2088PEP     CB79833  18.693  10.488   8.608 -0.0432  0.6265 -0.0686
 2088PEP     CB79834  18.994  10.248   8.502  0.0936  0.2046  0.0595
 2088PEP     CB79835  19.320   9.992   8.714 -0.3780 -0.0123  0.1250
 2088PEP     CB79836  19.734   9.995   8.937 -0.0508  0.0978  0.8626
 2088PEP     CB79837  20.121  10.096   8.755  0.2958 -0.2266  0.1271
 2088PEP     CB79838  20.296  10.158   8.391  0.0304  0.0138  0.2513
 2088PEP     CB79839  20.633  10.236   8.119 -0.0927 -0.0578 -0.0237
 2088PEP     CB79840  21.030  10.149   7.904  0.1646 -0.0203  0.1643
 2089PEP     CB79841  20.907   8.498  17.221  0.3533  0.2326 -0.1671
 2089PEP     CB79842  21.276   8.440  17.498 -0.0611 -0.0514 -0.1839
 2089PEP     CB79843  21.661   8.265  17.766  0.3129  0.1148  0.1145
 2089PEP     CB79844  22.076   8.219  18.005  0.0520  0.0189 -0.0721
 2089PEP     CB79845  22.566   8.318  17.964 -0.0817  0.0545  0.1582
 2089PEP     CB79846  22.833   8.630  18.097 -0.1253  0.1706  0.1124
 2089PEP     CB79847  23.157   8.919  17.994 -0.1855 -0.3601  0.0346
 2089PEP     CB79848  23.481   9.015  17.731  0.3104  0.0860 -0.2004
 2089PEP     CB79849  23.554   9.397  17.457  0.2794 -0.0249  0.3342
 2089PEP     CB79850  23.361   9.439  17.138 -0.0404  0.0390  0.1172
 2089PEP     CB79851  22.914   9.251  16.968  0.1728  0.6428 -0.0777
 2089PEP     CB79852  22.683   8.842  16.872 -0.2481 -0.0044  0.0352
 2089PEP     CB79853  22.705   8.486  16.552  0.5512 -0.1481 -0.0560
 2089PEP     CB79854  22.316   8.502  16.304 -0.1687  0.1661 -0.4087
 2089PEP     CB79855  22.136   8.665  15.941 -0.0091  0.0535 -0.0313
 2089PEP     CB79856  22.029   8.917  15.567  0.3445  0.0650  0.1676
 2089PEP     CB79857  21.908   8.892  15.069 -0.3611  0.0760  0.0489
 2089PEP     CB79858  21.996   8.835  14.552 -0.1522 -0.2689 -0.1803
 2089PEP     CB79859  21.794   8.728  14.195 -0.0130 -0.2850 -0.4257
 2089PEP     CB79860  21.417   8.833  13.873  0.0672  0.1867 -0.1741
 2089PEP     CB79861  21.030   8.887  13.882 -0.4965  0.3213 -0.0279
 2089PEP     CB79862  20.541   8.814  13.758  0.1470 -0.3190 -0.0297
 2089PEP     CB79863  20.120   8.756  13.913 -0.0950 -0.0179  0.2224
 2089PEP     CB79864  19.912   8.754  14.382  0.0778 -0.4903  0.2962
 2089PEP     CB79865  19.699   8.926  14.798  0.3095  0.3019 -0.1207
 2089PEP     CB79866  19.655   8.853  15.255  0.2028 -0.4527 -0.1729
 2089PEP     CB79867  19.748   8.432  15.498 -0.3991  0.1709 -0.1058
 2089PEP     CB79868  20.018   8.193  15.382  0.0552 -0.1117  0.1871
 2089PEP     CB79869  20.221   8.244  14.997 -0.2212 -0.2361  0.0257
 2089PEP     CB79870  20.097   8.300  14.524 -0.0201 -0.3808  0.2554
 2089PEP     CB79871  20.082   8.273  14.062  0.1741  0.1676  0.1578
 2089PEP     CB79872  20.228   8.257  13.598  0.2931  0.0698  0.0173
 2089PEP     CB79873  20.360   8.646  13.350  0.0233  0.1844 -0.0414
 2089PEP     CB79874  20.319   9.161  13.390 -0.0640 -0.1179 -0.4888
 2089PEP     CB79875  20.194   9.495  13.216  0.1703  0.3198 -0.2702
 2089PEP     CB79876  20.058   9.859  13.313  0.2423 -0.0595 -0.3130
 2089PEP     CB79877  19.945  10.115  13.679  0.0324 -0.3176 -0.2365
 2089PEP     CB79878  20.127  10.377  13.867 -0.2216 -0.0723 -0.0833
 2089PEP     CB79879  20.361  10.691  13.623 -0.2415 -0.0918 -0.1583
 2089PEP     CB79880  20.323  10.892  13.123 -0.0837 -0.2058  0.3772
 2090PEP     CB79881   0.135   5.569  13.076  0.1496 -0.3048  0.1740
 2090PEP     CB79882   0.200   5.140  12.899  0.1879 -0.2663 -0.2829
 2090PEP     CB79883   0.302   4.700  12.595  0.3849  0.0451 -0.0117
 2090PEP     CB79884   0.380   4.274  12.604 -0.1774  0.1788 -0.0221
 2090PEP     CB79885   0.028   4.077  12.672 -0.2947 -0.1745 -0.0117
 2090PEP     CB79886  -0.343   4.358  12.811  0.2779  0.1459 -0.1966
 2090PEP     CB79887  -0.721   4.531  12.856 -0.3222  0.5326 -0.0940
 2090PEP     CB79888  -1.186   4.389  12.852  0.0433 -0.1815 -0.1441
 2090PEP     CB79889  -1.418   4.340  12.578  0.0012  0.1484  0.3119
 2090PEP     CB79890  -1.749   4.164  12.279 -0.0845  0.4214 -0.0348
 2090PEP     CB79891  -2.220   4.089  12.016  0.2328 -0.0910 -0.2346
 2090PEP     CB79892  -2.451   3.646  12.043  0.0854 -0.0371  0.3439
 2090PEP     CB79893  -2.226   3.228  12.110  0.2870  0.1006  0.1822
 2090PEP     CB79894  -1.959   3.053  12.387 -0.1081 -0.0286 -0.1507
 2090PEP     CB79895  -1.493   2.937  12.495 -0.3602 -0.0880  0.0370
 2090PEP     CB79896  -1.105   3.017  12.655  0.0517  0.0933 -0.0234
 2090PEP     CB79897  -0.611   3.005  12.755  0.1563 -0.1761 -0.1297
 2090PEP     CB79898  -0.428   3.207  13.089  0.1965 -0.0804 -0.2543
 2090PEP     CB79899  -0.560   3.448  13.446 -0.0737  0.2591  0.0574
 2090PEP     CB79900  -0.386   3.834  13.791  0.4201 -0.0310  0.1903
 2090PEP     CB79901  -0.438   4.162  14.023  0.2912  0.1291  0.3099
 2090PEP     CB79902  -0.435   4.600  14.013  0.2777 -0.0078  0.1481
 2090PEP     CB79903  -0.378   5.012  14.204  0.1567  0.1472  0.0588
 2090PEP     CB79904  -0.488   5.423  14.337  0.1625 -0.0646 -0.2160
 2090PEP     CB79905  -0.539   5.819  14.271  0.1333  0.1882 -0.4729
 2090PEP     CB79906  -0.311   6.245  14.360  0.3195  0.0152 -0.0743
 2090PEP     CB79907   0.124   6.407  14.259 -0.2796 -0.2348 -0.2589
 2090PEP     CB79908   0.535   6.611  14.473 -0.1410  0.1556 -0.1027
 2090PEP     CB79909   0.904   6.593  14.435  0.3513 -0.1643 -0.3100
 2090PEP     CB79910   1.159   6.559  14.163  0.3550 -0.3094  0.0121
 2090PEP     CB79911   1.274   6.415  13.739 -0.3022  0.2648 -0.0599
 2090PEP     CB79912   1.176   6.326  13.368  0.1984  0.1013  0.1980
 2090PEP     CB79913   1.232   6.231  12.905  0.1625 -0.2140 -0.0042
 2090PEP     CB79914   1.515   6.158  12.499 -0.1244  0.3316 -0.2649
 2090PEP     CB79915   1.856   6.174  12.159 -0.2432 -0.1368  0.0712
 2090PEP     CB79916   1.921   6.468  11.876 -0.3326  0.3517 -0.2163
 2090PEP     CB79917   1.657   6.740  11.471  0.1455  0.1780  0.0678
 2090PEP     CB79918   1.541   7.116  11.162 -0.0529  0.0702  0.2573
 2090PEP     CB79919   1.193   7.266  10.847 -0.6246 -0.0093  0.2491
 2090PEP     CB79920   0.912   7.325  10.504 -0.0097 -0.2061 -0.0246
 2091PEP     CB79921   0.692  19.179   8.931 -0.0402  0.1256  0.1190
 2091PEP     CB79922   0.842  18.783   8.862 -0.2223  0.1153  0.6460
 2091PEP     CB79923   0.821  18.320   9.016  0.3340  0.0850  0.1447
 2091PEP     CB79924   0.863  18.058   9.355  0.1117 -0.0048 -0.0592
 2091PEP     CB79925   0.755  18.214   9.810 -0.0362 -0.0144 -0.0141
 2091PEP     CB79926   0.586  18.681  10.011 -0.4126  0.2308 -0.0867
 2091PEP     CB79927   0.602  19.065   9.957  0.2454  0.1337  0.0346
 2091PEP     CB79928   0.383  19.400   9.827 -0.0286  0.4391  0.2436
 2091PEP     CB79929   0.079  19.440   9.592  0.4532 -0.1655 -0.1776
 2091PEP     CB79930  -0.063  19.314   9.154 -0.2784  0.0721 -0.0655
 2091PEP     CB79931   0.070  19.031   8.976 -0.1393  0.1582 -0.0839
 2091PEP     CB79932   0.396  18.733   9.066  0.3165  0.0160  0.0991
 2091PEP     CB79933   0.336  18.316   9.300 -0.0558 -0.0402  0.4160
 2091PEP     CB79934   0.245  18.489   9.778  0.0668  0.0940 -0.0113
 2091PEP     CB79935   0.110  18.855   9.769 -0.0378 -0.1600 -0.0660
 2091PEP     CB79936  -0.161  18.919   9.481 -0.0882  0.2955  0.0412
 2091PEP     CB79937  -0.457  18.584   9.378  0.0567 -0.2318 -0.0738
 2091PEP     CB79938  -0.190  18.242   9.491  0.3945  0.5884 -0.3357
 2091PEP     CB79939   0.138  17.904   9.532  0.1882 -0.0388 -0.1458
 2091PEP     CB79940   0.440  17.816   9.840  0.1361  0.0635 -0.3370
 2091PEP     CB79941   0.617  17.802  10.315 -0.0130  0.2454 -0.3100
 2091PEP     CB79942   0.606  17.421  10.657 -0.1442 -0.3978 -0.1196
 2091PEP     CB79943   0.785  17.022  10.594  0.3076 -0.0368  0.1719
 2091PEP     CB79944   1.029  16.834  10.177  0.3865  0.2856  0.0279
 2091PEP     CB79945   1.203  17.137   9.991  0.3848 -0.3485 -0.0603
 2091PEP     CB79946   1.457  17.506  10.182  0.1441  0.0249 -0.0194
 2091PEP     CB79947   1.794  17.767  10.291  0.0942  0.1773  0.0914
 2091PEP     CB79948   1.920  18.150  10.258 -0.1883  0.0737  0.3836
 2091PEP     CB79949   2.037  18.590  10.123 -0.0189 -0.0823  0.1057
 2091PEP     CB79950   2.109  18.997  10.069 -0.2915 -0.0151 -0.1052
 2091PEP     CB79951   2.025  19.331  10.373  0.3241  0.3648  0.0956
 2091PEP     CB79952   1.984  19.299  10.783 -0.2535  0.0024  0.1224
 2091PEP     CB79953   1.786  19.416  11.217 -0.2059  0.4252 -0.4594
 2091PEP     CB79954   1.512  19.489  11.551 -0.3714 -0.0497 -0.0016
 2091PEP     CB79955   1.195  19.275  11.752 -0.3616  0.0902 -0.1606
 2091PEP     CB79956   1.247  19.149  12.127 -0.1423 -0.0468  0.1514
 2091PEP     CB79957   1.572  18.868  12.424 -0.3271  0.5671 -0.2389
 2091PEP     CB79958   1.565  18.514  12.324  0.0863  0.2265 -0.5507
 2091PEP     CB79959   1.676  18.278  12.048  0.2145  0.0341  0.0212
 2091PEP     CB79960   1.891  17.970  11.768 -0.2512  0.4185 -0.0354
 2092PEP     CB79961   8.538  20.382  21.324  0.1018  0.2899 -0.2798
 2092PEP     CB79962   8.857  20.446  21.465 -0.4132 -0.0404  0.1902
 2092PEP     CB79963   9.178  20.638  21.601  0.3593 -0.4781  0.1055
 2092PEP     CB79964   9.048  20.838  21.996 -0.0318 -0.3016  0.1358
 2092PEP     CB79965   8.633  20.832  22.212 -0.0616  0.2081 -0.0965
 2092PEP     CB79966   8.219  20.860  22.326  0.0186  0.3080 -0.1012
 2092PEP     CB79967   7.843  20.751  22.439  0.2429  0.0367 -0.0492
 2092PEP     CB79968   7.446  20.815  22.674  0.0299 -0.1080 -0.0176
 2092PEP     CB79969   7.046  20.768  22.863  0.0464  0.2548  0.0152
 2092PEP     CB79970   6.673  20.716  23.000  0.2450  0.1255 -0.1712
 2092PEP     CB79971   6.280  20.732  23.299 -0.3828 -0.1779  0.2790
 2092PEP     CB79972   5.940  20.858  23.533  0.1143  0.1452  0.1092
 2092PEP     CB79973   5.525  20.658  23.774  0.0727  0.0269  0.1344
 2092PEP     CB79974   5.345  20.218  23.728  0.0528 -0.1239 -0.2201
 2092PEP     CB79975   5.539  19.862  23.702 -0.1850 -0.0898 -0.0004
 2092PEP     CB79976   5.622  19.480  23.908  0.0404 -0.3902  0.0292
 2092PEP     CB79977   5.620  19.126  24.199  0.1166 -0.4917 -0.1421
 2092PEP     CB79978   5.448  18.733  24.367 -0.0902 -0.2075  0.2556
 2092PEP     CB79979   5.236  18.543  24.668  0.4127  0.3799 -0.5438
 2092PEP     CB79980   5.137  18.453  25.139 -0.1279  0.0568  0.3101
 2092PEP     CB79981   5.416  18.255  25.453 -0.0126 -0.0018 -0.1558
 2092PEP     CB79982   5.634  18.219  25.870 -0.2091  0.1417 -0.0976
 2092PEP     CB79983   5.830  18.414  26.182  0.0215  0.5572  0.1492
 2092PEP     CB79984   5.836  18.294  26.637  0.0036 -0.2660 -0.0454
 2092PEP     CB79985   5.558  18.195  27.043 -0.1129  0.0558  0.3937
 2092PEP     CB79986   5.266  18.283  27.261  0.1530  0.3390  0.2346
 2092PEP     CB79987   4.825  18.447  27.216 -0.0447 -0.1554  0.0070
 2092PEP     CB79988   4.497  18.607  26.976 -0.4183 -0.0412 -0.3252
 2092PEP     CB79989   4.350  18.731  26.603  0.0155 -0.1878 -0.2986
 2092PEP     CB79990   4.251  18.741  26.145 -0.1128  0.5034 -0.2191
 2092PEP     CB79991   4.220  18.798  25.664  0.0467  0.1103 -0.0215
 2092PEP     CB79992   4.415  18.681  25.415  0.2527 -0.1911 -0.1213
 2092PEP     CB79993   4.801  18.544  25.485  0.0827  0.1390 -0.2681
 2092PEP     CB79994   5.059  18.507  25.803 -0.2878 -0.0548  0.0997
 2092PEP     CB79995   5.286  18.530  26.195  0.1489 -0.0788  0.1529
 2092PEP     CB79996   5.352  18.252  26.578 -0.1366  0.1516 -0.0374
 2092PEP     CB79997   5.083  17.959  26.779 -0.1590  0.1766  0.1686
 2092PEP     CB79998   4.711  17.824  27.011 -0.3354  0.3589  0.0418
 2092PEP     CB79999   4.326  18.051  27.178 -0.1895  0.1398  0.0558
 2092PEP     CB80000   4.089  18.344  27.257 -0.1000  0.1087 -0.0082
 2093PEP     CB80001   9.740  18.337  10.609  0.0433  0.2606  0.0464
 2093PEP     CB80002   9.702  18.816  10.717  0.7982  0.2927 -0.6277
 2093PEP     CB80003   9.827  19.097  10.967  0.4107  0.0363  0.0582
 2093PEP     CB80004  10.061  19.395  11.244 -0.1070  0.5656  0.2047
 2093PEP     CB80005  10.133  19.463  11.653  0.2939 -0.1254  0.0958
 2093PEP     CB80006  10.497  19.339  11.912  0.2782 -0.1824 -0.0920
 2093PEP     CB80007  10.870  19.122  11.842  0.0574  0.0903 -0.1131
 2093PEP     CB80008  10.945  18.629  11.727 -0.3294  0.1277 -0.3175
 2093PEP     CB80009  10.942  18.252  11.905 -0.4428  0.2519  0.3285
 2093PEP     CB80010  10.996  17.982  12.251 -0.0795  0.0332 -0.1413
 2093PEP     CB80011  10.770  17.564  12.303  0.0357 -0.1936  0.6392
 2093PEP     CB80012  10.789  17.107  12.245 -0.2996 -0.0256 -0.0389
 2093PEP     CB80013  10.780  16.803  11.970  0.2894  0.0697 -0.1548
 2093PEP     CB80014  10.643  16.552  11.646  0.0525 -0.0312 -0.0499
 2093PEP     CB80015  10.697  16.451  11.263  0.1791  0.2064 -0.1496
 2093PEP     CB80016  10.734  16.662  10.888  0.0506 -0.1973 -0.3320
 2093PEP     CB80017  10.891  16.662  10.503  0.2211 -0.0753  0.3312
 2093PEP     CB80018  10.873  16.503  10.151  0.1397 -0.1619 -0.2864
 2093PEP     CB80019  11.095  16.437   9.737  0.2941 -0.5624  0.0548
 2093PEP     CB80020  11.295  16.805   9.361 -0.1845  0.3184 -0.0845
 2093PEP     CB80021  11.112  16.943   9.028 -0.0056 -0.1960 -0.1884
 2093PEP     CB80022  10.547  16.983   8.942  0.2623  0.0180 -0.1630
 2093PEP     CB80023  10.104  16.862   8.894 -0.0699 -0.1432  0.1547
 2093PEP     CB80024   9.819  16.828   9.174  0.0752 -0.3285  0.2457
 2093PEP     CB80025   9.544  17.044   9.376  0.0309  0.1623 -0.1997
 2093PEP     CB80026   9.153  17.097   9.266  0.3124  0.0122  0.3741
 2093PEP     CB80027   8.989  16.945   8.967 -0.0833 -0.0131  0.0458
 2093PEP     CB80028   8.618  16.974   8.724  0.2911  0.1525  0.2477
 2093PEP     CB80029   8.387  17.259   8.504  0.0315  0.2357  0.2234
 2093PEP     CB80030   8.636  17.639   8.432  0.1255 -0.2029 -0.0317
 2093PEP     CB80031   9.031  17.636   8.328  0.1239 -0.2774 -0.0541
 2093PEP     CB80032   9.276  17.293   8.094  0.0560  0.0663  0.2411
 2093PEP     CB80033   9.544  16.871   8.143 -0.0901  0.2113 -0.0148
 2093PEP     CB80034   9.616  16.494   8.052 -0.1000 -0.3641  0.3835
 2093PEP     CB80035   9.494  16.161   7.765  0.1539  0.1147  0.0351
 2093PEP     CB80036   9.262  15.788   7.773  0.2891 -0.0594  0.5521
 2093PEP     CB80037   9.141  15.349   7.931 -0.2290  0.0208 -0.2193
 2093PEP     CB80038   8.831  15.123   8.157 -0.0361  0.1364  0.0750
 2093PEP     CB80039   8.721  15.270   8.468  0.1394  0.0723 -0.3026
 2093PEP     CB80040   8.502  15.687   8.484  0.1691  0.1932  0.0143
 2094PEP     CB80041  17.041  16.755   4.118 -0.2258  0.0748 -0.2236
 2094PEP     CB80042  16.672  16.713   4.043  0.1706 -0.3076  0.2630
 2094PEP     CB80043  16.266  16.802   4.008  0.1215  0.1486 -0.0806
 2094PEP     CB80044  16.039  17.166   3.927  0.0534 -0.5352  0.0369
 2094PEP     CB80045  15.992  17.621   3.998 -0.2071 -0.0552  0.0607
 2094PEP     CB80046  15.813  18.078   4.138  0.6757  0.1236  0.2023
 2094PEP     CB80047  15.650  18.490   4.273 -0.0248 -0.0251  0.1250
 2094PEP     CB80048  15.909  18.795   4.351  0.2828  0.0411 -0.4435
 2094PEP     CB80049  16.320  18.790   4.599  0.1708  0.3965 -0.2538
 2094PEP     CB80050  16.558  18.730   4.928 -0.1823 -0.1990 -0.1459
 2094PEP     CB80051  16.598  18.623   5.303 -0.0807  0.0955 -0.4631
 2094PEP     CB80052  16.455  18.346   5.619 -0.0202 -0.1722  0.2239
 2094PEP     CB80053  16.190  18.084   5.875 -0.2625 -0.0328 -0.3543
 2094PEP     CB80054  15.758  17.853   5.867 -0.0639 -0.1757 -0.0558
 2094PEP     CB80055  15.426  17.985   5.647 -0.1323  0.1899  0.1361
 2094PEP     CB80056  15.155  18.323   5.771 -0.2602 -0.0932 -0.1205
 2094PEP     CB80057  14.938  18.777   5.906 -0.1671 -0.0592  0.3355
 2094PEP     CB80058  14.654  18.961   6.151 -0.1763  0.0372 -0.0723
 2094PEP     CB80059  14.288  18.841   6.302 -0.0245  0.0070 -0.0932
 2094PEP     CB80060  13.894  18.725   6.427  0.2488  0.3575  0.2980
 2094PEP     CB80061  13.500  18.696   6.684 -0.1443 -0.1004  0.3657
 2094PEP     CB80062  13.093  18.697   6.948 -0.0090 -0.0750  0.2029
 2094PEP     CB80063  12.671  18.696   6.852 -0.1058  0.1997 -0.0869
 2094PEP     CB80064  12.316  18.751   6.576 -0.3163  0.0510  0.3162
 2094PEP     CB80065  12.089  18.703   6.249  0.0674 -0.1397 -0.1287
 2094PEP     CB80066  11.641  18.533   6.022  0.2787 -0.3196 -0.2062
 2094PEP     CB80067  11.601  18.127   6.053 -0.0840  0.1699  0.0436
 2094PEP     CB80068  11.549  17.743   6.313  0.0060 -0.1270 -0.1804
 2094PEP     CB80069  11.660  17.256   6.282  0.2176  0.0336  0.2789
 2094PEP     CB80070  11.760  16.806   6.318  0.1951 -0.2316  0.2341
 2094PEP     CB80071  11.948  16.475   6.094 -0.3086  0.1258 -0.1881
 2094PEP     CB80072  12.130  16.329   5.724 -0.0010  0.2027 -0.1247
 2094PEP     CB80073  12.182  16.365   5.311  0.1941  0.1391 -0.1342
 2094PEP     CB80074  12.204  16.514   4.851  0.3465  0.1298  0.0433
 2094PEP     CB80075  12.033  16.904   4.772  0.3349  0.0382 -0.2093
 2094PEP     CB80076  12.158  17.258   4.797  0.0287 -0.0739 -0.1645
 2094PEP     CB80077  12.195  17.704   4.611  0.5525 -0.0074 -0.2281
 2094PEP     CB80078  12.052  18.053   4.825 -0.1174 -0.0465 -0.1629
 2094PEP     CB80079  12.255  18.370   5.038  0.0223  0.1461 -0.1434
 2094PEP     CB80080  12.580  18.354   5.487 -0.1142 -0.2204  0.1238
 2095PEP     CB80081  12.622   8.633   1.900 -0.0913  0.1731 -0.3166
 2095PEP     CB80082  12.779   8.343   1.742 -0.3134 -0.1924  0.1366
 2095PEP     CB80083  12.848   8.125   1.366 -0.1611  0.0385 -0.0815
 2095PEP     CB80084  13.034   8.081   0.901  0.0902  0.2985  0.2090
 2095PEP     CB80085  13.406   8.249   0.762  0.1868  0.0549 -0.0219
 2095PEP     CB80086  13.577   8.410   0.386 -0.1406  0.0580 -0.1851
 2095PEP     CB80087  13.897   8.584   0.188  0.1494  0.2004  0.1705
 2095PEP     CB80088  14.237   8.748   0.014  0.0346 -0.0589 -0.2504
 2095PEP     CB80089  14.553   9.016  -0.157 -0.2367 -0.0731 -0.2532
 2095PEP     CB80090  14.851   9.001  -0.590  0.0553 -0.2423 -0.0025
 2095PEP     CB80091  15.128   9.026  -0.916  0.3097 -0.2137 -0.4483
 2095PEP     CB80092  15.443   9.078  -1.128 -0.2815  0.1145  0.0294
 2095PEP     CB80093  15.636   9.043  -1.429  0.0996  0.0595  0.0300
 2095PEP     CB80094  15.902   9.105  -1.741 -0.1905 -0.0040  0.4434
 2095PEP     CB80095  16.155   8.977  -2.222  0.1745  0.0677  0.1505
 2095PEP     CB80096  16.558   8.969  -2.414  0.0188  0.3387  0.3113
 2095PEP     CB80097  16.811   8.906  -2.716  0.0488 -0.0143 -0.0724
 2095PEP     CB80098  17.125   9.136  -3.152 -0.1348  0.2959 -0.1411
 2095PEP     CB80099  17.251   9.582  -3.286  0.0670 -0.3186  0.4426
 2095PEP     CB80100  17.593   9.810  -3.513  0.0598  0.1570  0.2213
 2095PEP     CB80101  17.956   9.710  -3.746 -0.0201 -0.4602 -0.0474
 2095PEP     CB80102  18.076   9.265  -3.872 -0.1574 -0.0212 -0.2004
 2095PEP     CB80103  17.955   8.884  -4.056  0.2165  0.2535  0.0313
 2095PEP     CB80104  18.101   8.503  -4.236  0.3783 -0.3769  0.0164
 2095PEP     CB80105  18.118   8.028  -4.254 -0.1112  0.2478 -0.0649
 2095PEP     CB80106  17.884   7.679  -4.183 -0.0113 -0.0541 -0.1739
 2095PEP     CB80107  17.483   7.681  -4.214  0.0782 -0.0839  0.2176
 2095PEP     CB80108  17.083   7.872  -3.968  0.1551  0.3045  0.2302
 2095PEP     CB80109  17.028   8.286  -4.064  0.2678  0.1051  0.1971
 2095PEP     CB80110  17.104   8.771  -3.995 -0.3119 -0.1018 -0.0992
 2095PEP     CB80111  17.370   9.047  -4.149 -0.1077  0.0753 -0.1848
 2095PEP     CB80112  17.489   8.932  -4.589 -0.1732 -0.0535  0.3262
 2095PEP     CB80113  17.177   8.853  -4.935  0.0450  0.5043  0.1265
 2095PEP     CB80114  16.731   8.915  -5.033 -0.4268  0.2212  0.1492
 2095PEP     CB80115  16.352   9.266  -5.110  0.1963 -0.1393 -0.4866
 2095PEP     CB80116  16.226   9.300  -5.550  0.0763 -0.1897  0.3335
 2095PEP     CB80117  16.427   9.188  -5.909  0.2334 -0.0917  0.0069
 2095PEP     CB80118  16.720   9.357  -6.134 -0.2613 -0.0608  0.0448
 2095PEP     CB80119  17.062   9.290  -6.359 -0.0216  0.0567  0.1400
 2095PEP     CB80120  17.469   9.246  -6.401  0.3262  0.0989 -0.0371
 2096PEP     CB80121  13.289   0.418   5.592 -0.2651  0.2436  0.0110
 2096PEP     CB80122  12.944   0.509   5.732  0.0853 -0.0003  0.1485
 2096PEP     CB80123  12.658   0.792   5.924 -0.1883  0.0786  0.0241
 2096PEP     CB80124  12.754   1.200   6.070  0.1143 -0.0509 -0.1052
 2096PEP     CB80125  13.262   1.453   5.950 -0.1273  0.2150  0.1075
 2096PEP     CB80126  13.605   1.162   5.731  0.0335  0.1441  0.0215
 2096PEP     CB80127  13.994   0.895   5.714  0.0752  0.4367 -0.4424
 2096PEP     CB80128  13.984   0.405   5.807 -0.0746 -0.6208 -0.3417
 2096PEP     CB80129  13.713   0.158   6.088  0.0908  0.2446 -0.1067
 2096PEP     CB80130  13.249   0.216   6.054 -0.2628 -0.0289  0.1263
 2096PEP     CB80131  12.986   0.463   6.288 -0.1039 -0.1000  0.0408
 2096PEP     CB80132  12.863   0.798   6.584  0.1535  0.1608  0.2097
 2096PEP     CB80133  13.000   0.864   6.908  0.0224 -0.1513 -0.2364
 2096PEP     CB80134  13.478   0.837   6.905 -0.0227  0.3385  0.0685
 2096PEP     CB80135  13.713   1.143   6.628  0.0751  0.1147  0.0842
 2096PEP     CB80136  13.523   1.364   6.352  0.0087 -0.2451  0.1667
 2096PEP     CB80137  13.191   1.680   6.330 -0.1131 -0.0621  0.2257
 2096PEP     CB80138  12.893   2.004   6.251  0.0410  0.1871 -0.0325
 2096PEP     CB80139  12.538   2.066   6.043 -0.0444 -0.1082  0.0535
 2096PEP     CB80140  12.358   1.686   5.863  0.1842 -0.5021 -0.1818
 2096PEP     CB80141  12.241   1.204   5.806 -0.1195  0.0979 -0.0698
 2096PEP     CB80142  12.141   0.765   6.040 -0.0160 -0.0478 -0.2034
 2096PEP     CB80143  12.281   0.459   6.379 -0.5172 -0.0691  0.0173
 2096PEP     CB80144  12.574   0.308   6.733 -0.1945  0.3545 -0.0017
 2096PEP     CB80145  12.876   0.382   7.030  0.2301  0.0574 -0.2757
 2096PEP     CB80146  12.804   0.281   7.481 -0.1098  0.3269 -0.3322
 2096PEP     CB80147  12.559  -0.056   7.633 -0.0017  0.2655 -0.0721
 2096PEP     CB80148  12.281  -0.363   7.531  0.1164 -0.2813 -0.4132
 2096PEP     CB80149  11.956  -0.613   7.610 -0.0686 -0.3433 -0.1144
 2096PEP     CB80150  11.466  -0.881   7.588 -0.4197  0.3464  0.3407
 2096PEP     CB80151  11.035  -0.851   7.324  0.2515 -0.0128 -0.0318
 2096PEP     CB80152  10.693  -1.040   7.082 -0.1164 -0.0646 -0.0166
 2096PEP     CB80153  10.381  -1.079   6.854 -0.1840 -0.2185  0.1421
 2096PEP     CB80154  10.000  -1.020   6.730 -0.2382  0.1620 -0.3524
 2096PEP     CB80155   9.689  -1.329   6.547 -0.1151 -0.0860 -0.4377
 2096PEP     CB80156   9.557  -1.369   6.056  0.1829 -0.1814 -0.2760
 2096PEP     CB80157   9.327  -1.197   5.686  0.0320  0.0548  0.1889
 2096PEP     CB80158   9.091  -0.965   5.412 -0.0519  0.4273  0.0938
 2096PEP     CB80159   8.708  -0.939   5.197  0.1071  0.3593 -0.0766
 2096PEP     CB80160   8.365  -0.655   4.983  0.1685 -0.0151  0.2219
 2097PEP     CB80161  12.017   0.386  21.791  0.0142 -0.1149 -0.3356
 2097PEP     CB80162  12.311   0.225  21.428 -0.3214  0.0453  0.0032
 2097PEP     CB80163  12.665   0.197  21.140 -0.0853  0.0750 -0.1462
 2097PEP     CB80164  13.064   0.168  21.032 -0.2793  0.0808  0.2158
 2097PEP     CB80165  13.388   0.158  21.214  0.2152  0.3894  0.1327
 2097PEP     CB80166  13.627  -0.217  21.403  0.1736  0.0052 -0.3088
 2097PEP     CB80167  13.596  -0.316  21.804  0.4042  0.0164 -0.3858
 2097PEP     CB80168  13.663  -0.137  22.197 -0.0768 -0.0114 -0.0345
 2097PEP     CB80169  14.057  -0.079  22.383  0.0005  0.3214 -0.0840
 2097PEP     CB80170  14.287  -0.216  22.715  0.1513 -0.2045 -0.0799
 2097PEP     CB80171  14.416  -0.074  23.044  0.2231 -0.2224  0.0088
 2097PEP     CB80172  14.321   0.398  23.035 -0.0250  0.0942  0.0237
 2097PEP     CB80173  14.361   0.535  22.598  0.2435  0.0168  0.2143
 2097PEP     CB80174  14.488   0.235  22.250  0.2523  0.3516 -0.1544
 2097PEP     CB80175  14.648  -0.244  22.341  0.2478 -0.0801 -0.0554
 2097PEP     CB80176  14.786  -0.491  22.682 -0.1781 -0.2270 -0.4086
 2097PEP     CB80177  15.006  -0.289  23.093 -0.0574 -0.0336 -0.0038
 2097PEP     CB80178  14.879   0.178  23.148  0.0737  0.3642 -0.1379
 2097PEP     CB80179  14.695   0.390  23.426  0.1103  0.1491  0.1709
 2097PEP     CB80180  14.718   0.499  23.883 -0.0562 -0.0859 -0.0797
 2097PEP     CB80181  14.770   0.913  24.097 -0.1081  0.2400 -0.1182
 2097PEP     CB80182  15.214   1.057  24.099 -0.0349 -0.0651  0.0531
 2097PEP     CB80183  15.619   0.811  24.244 -0.1744 -0.1550 -0.2155
 2097PEP     CB80184  15.792   0.636  24.598  0.0274  0.0460  0.4061
 2097PEP     CB80185  15.962   0.519  25.054  0.0358  0.2934  0.0529
 2097PEP     CB80186  16.224   0.751  25.331  0.3767 -0.1309  0.0396
 2097PEP     CB80187  16.517   1.112  25.248  0.3510 -0.1120 -0.2118
 2097PEP     CB80188  16.744   1.191  24.875 -0.0183 -0.2245  0.2522
 2097PEP     CB80189  16.839   0.888  24.510  0.2666  0.0986  0.2371
 2097PEP     CB80190  16.719   0.672  24.076  0.3530 -0.3813  0.1302
 2097PEP     CB80191  16.899   0.404  23.825 -0.0595  0.2520  0.0337
 2097PEP     CB80192  16.926   0.002  23.590 -0.3105  0.0403 -0.1104
 2097PEP     CB80193  17.058  -0.433  23.574 -0.3499 -0.0851  0.2425
 2097PEP     CB80194  17.436  -0.546  23.603  0.1849  0.0698 -0.0910
 2097PEP     CB80195  17.760  -0.580  23.838 -0.0964  0.3165 -0.3818
 2097PEP     CB80196  18.095  -0.525  24.207 -0.3476 -0.1411 -0.0263
 2097PEP     CB80197  18.585  -0.571  24.385  0.1420  0.2050 -0.0334
 2097PEP     CB80198  19.009  -0.513  24.488 -0.1316 -0.1122  0.1482
 2097PEP     CB80199  19.330  -0.368  24.913  0.1165  0.0133  0.1132
 2097PEP     CB80200  19.365  -0.310  25.340  0.0576 -0.2348  0.1790
 2098PEP     CB80201  12.663  12.215   3.056 -0.1941  0.1678  0.4930
 2098PEP     CB80202  12.814  11.895   3.293  0.2791 -0.1308  0.3325
 2098PEP     CB80203  13.115  11.623   3.446  0.2526  0.1118  0.2710
 2098PEP     CB80204  13.463  11.553   3.794  0.3265  0.2550 -0.0657
 2098PEP     CB80205  13.648  11.273   4.128 -0.0505 -0.1658  0.1012
 2098PEP     CB80206  13.983  11.008   4.010 -0.0798 -0.1528 -0.0080
 2098PEP     CB80207  14.341  10.927   3.766  0.2003 -0.1474  0.3881
 2098PEP     CB80208  14.534  10.788   3.448  0.0546  0.0973  0.1607
 2098PEP     CB80209  14.901  10.946   3.264 -0.1043  0.3844 -0.1652
 2098PEP     CB80210  15.241  10.970   3.493 -0.0878 -0.1388 -0.3052
 2098PEP     CB80211  15.538  10.773   3.747  0.1289  0.0645  0.0443
 2098PEP     CB80212  15.860  10.480   3.853 -0.1657 -0.1557 -0.0471
 2098PEP     CB80213  15.793  10.008   3.793  0.1246 -0.2037 -0.1601
 2098PEP     CB80214  15.539   9.744   3.479 -0.1689  0.1775 -0.0360
 2098PEP     CB80215  15.198   9.875   3.212  0.0979 -0.1558 -0.1665
 2098PEP     CB80216  15.007  10.316   3.402 -0.1305 -0.0789 -0.0999
 2098PEP     CB80217  15.035  10.631   3.698  0.2756 -0.0562  0.2444
 2098PEP     CB80218  15.036  10.826   4.025  0.3337  0.0363  0.3898
 2098PEP     CB80219  14.952  11.163   4.382 -0.0029 -0.2251 -0.0107
 2098PEP     CB80220  14.830  11.506   4.551 -0.2091  0.4145 -0.2727
 2098PEP     CB80221  14.577  11.788   4.774 -0.4721  0.0012  0.2307
 2098PEP     CB80222  14.399  11.790   5.195 -0.0958 -0.0936  0.2374
 2098PEP     CB80223  14.676  11.681   5.550 -0.1899  0.2263 -0.3437
 2098PEP     CB80224  15.051  11.688   5.804  0.2573 -0.3535 -0.0531
 2098PEP     CB80225  15.318  11.755   6.082  0.5358 -0.3971 -0.2951
 2098PEP     CB80226  15.312  11.562   6.445  0.1048  0.1395 -0.0016
 2098PEP     CB80227  15.033  11.262   6.548  0.1037  0.2724  0.2902
 2098PEP     CB80228  14.753  11.249   6.873  0.0588  0.1469  0.4646
 2098PEP     CB80229  14.429  11.082   7.057 -0.1109 -0.0997 -0.1840
 2098PEP     CB80230  14.005  11.209   6.757  0.0575  0.1315  0.1240
 2098PEP     CB80231  14.124  11.340   6.328  0.2475 -0.4896  0.2591
 2098PEP     CB80232  14.588  11.525   6.334  0.0726 -0.1912  0.1785
 2098PEP     CB80233  14.907  11.676   6.687 -0.2156  0.0294 -0.4188
 2098PEP     CB80234  14.732  11.779   7.073 -0.1709 -0.3995  0.2587
 2098PEP     CB80235  14.584  12.140   7.210  0.4267  0.0445  0.0533
 2098PEP     CB80236  14.349  12.426   7.392 -0.1048  0.0912  0.0802
 2098PEP     CB80237  13.907  12.405   7.522 -0.0561 -0.4977 -0.0995
 2098PEP     CB80238  13.537  12.281   7.855 -0.1697  0.1835 -0.0387
 2098PEP     CB80239  13.124  12.155   8.117 -0.2296  0.2495  0.0391
 2098PEP     CB80240  12.923  12.184   8.490 -0.2196  0.1543  0.0986
 2099PEP     CB80241  13.481  21.867  10.280 -0.1347 -0.0815 -0.3202
 2099PEP     CB80242  13.487  22.028  10.658 -0.3765 -0.1781  0.3269
 2099PEP     CB80243  13.240  22.249  10.959  0.1883 -0.2379 -0.0203
 2099PEP     CB80244  12.784  22.327  10.923 -0.2121 -0.1201  0.1630
 2099PEP     CB80245  12.360  22.241  11.023 -0.0126 -0.0289 -0.0953
 2099PEP     CB80246  11.918  22.265  10.894  0.2937 -0.2889  0.3911
 2099PEP     CB80247  11.530  22.291  10.649 -0.0093  0.1557 -0.0151
 2099PEP     CB80248  11.385  22.339  10.207  0.1219  0.1858 -0.0118
 2099PEP     CB80249  11.317  22.175   9.851 -0.3684  0.0814  0.3323
 2099PEP     CB80250  10.875  22.175   9.696 -0.1640  0.1806  0.1251
 2099PEP     CB80251  10.494  22.010   9.455 -0.0957  0.0073  0.1846
 2099PEP     CB80252  10.268  21.673   9.592 -0.2118  0.1419  0.2702
 2099PEP     CB80253  10.261  21.663  10.078 -0.0712 -0.2023  0.1594
 2099PEP     CB80254  10.076  22.043  10.344 -0.2937  0.2231 -0.1473
 2099PEP     CB80255   9.875  22.439  10.322  0.0091 -0.3560  0.0932
 2099PEP     CB80256   9.611  22.829  10.395 -0.0230 -0.1299 -0.1681
 2099PEP     CB80257   9.404  23.219  10.472 -0.0582 -0.1065 -0.0339
 2099PEP     CB80258   9.409  23.687  10.301 -0.2747  0.1722  0.3662
 2099PEP     CB80259   9.475  23.972   9.854  0.0248  0.0322  0.0004
 2099PEP     CB80260   9.834  24.086   9.609  0.2816 -0.2819  0.0343
 2099PEP     CB80261   9.974  23.980   9.296 -0.0358 -0.1740  0.5147
 2099PEP     CB80262   9.966  23.962   8.880  0.5828 -0.2185  0.1488
 2099PEP     CB80263  10.005  23.622   8.623 -0.0562 -0.1871 -0.1198
 2099PEP     CB80264  10.095  23.589   8.128  0.1410 -0.2024  0.2120
 2099PEP     CB80265  10.002  23.455   7.689  0.0705 -0.2962 -0.2516
 2099PEP     CB80266   9.945  23.394   7.268  0.0050 -0.4169 -0.0273
 2099PEP     CB80267   9.832  23.467   6.955  0.0804  0.0378 -0.0746
 2099PEP     CB80268   9.832  23.817   6.682 -0.0482 -0.2432 -0.1628
 2099PEP     CB80269  10.199  23.954   6.422  0.0532 -0.3451 -0.5574
 2099PEP     CB80270  10.571  23.905   5.985 -0.0243  0.3850 -0.3523
 2099PEP     CB80271  10.983  24.076   5.881 -0.0313  0.0392 -0.3527
 2099PEP     CB80272  11.221  24.316   5.580 -0.0471 -0.0304 -0.1691
 2099PEP     CB80273  11.620  24.328   5.327 -0.0590  0.1881  0.0994
 2099PEP     CB80274  11.995  24.471   5.068  0.2216 -0.0866 -0.0855
 2099PEP     CB80275  12.069  24.933   4.868  0.1258 -0.1428 -0.1106
 2099PEP     CB80276  11.807  25.338   4.741  0.4020  0.1756 -0.2534
 2099PEP     CB80277  11.705  25.562   4.548  0.2349 -0.2240 -0.2906
 2099PEP     CB80278  11.784  25.888   4.377  0.2492 -0.3440  0.0913
 2099PEP     CB80279  12.109  26.204   4.058 -0.1315 -0.2469  0.0387
 2099PEP     CB80280  12.525  26.201   3.845  0.3660 -0.2671  0.1042
 2100PEP     CB80281  18.359   0.165  15.009  0.0292 -0.1584 -0.0768
 2100PEP     CB80282  18.026   0.229  14.783  0.0006 -0.0521  0.5833
 2100PEP     CB80283  17.945   0.016  14.408  0.2064 -0.1855  0.1177
 2100PEP     CB80284  18.220   0.014  13.998 -0.0823  0.0970  0.4877
 2100PEP     CB80285  18.633   0.007  13.924 -0.0633  0.1726 -0.1817
 2100PEP     CB80286  18.899  -0.032  13.565 -0.2030 -0.0694 -0.1317
 2100PEP     CB80287  19.266   0.028  13.369 -0.1473 -0.0191 -0.0357
 2100PEP     CB80288  19.702   0.108  13.216  0.0941 -0.0178 -0.3387
 2100PEP     CB80289  20.175   0.084  13.219 -0.1331 -0.3402 -0.2483
 2100PEP     CB80290  20.661   0.295  13.136 -0.3924  0.2415 -0.0407
 2100PEP     CB80291  21.001   0.059  13.024 -0.3937 -0.0062  0.1049
 2100PEP     CB80292  21.379  -0.321  13.089 -0.2366 -0.2097  0.1111
 2100PEP     CB80293  21.506  -0.640  13.170  0.0049 -0.0834 -0.4182
 2100PEP     CB80294  21.720  -0.857  13.480 -0.0361  0.4310 -0.0770
 2100PEP     CB80295  21.642  -1.086  13.830 -0.0233 -0.0781 -0.0193
 2100PEP     CB80296  21.618  -1.262  14.205  0.2281 -0.2321 -0.0793
 2100PEP     CB80297  21.490  -1.377  14.581  0.3648  0.2831  0.2554
 2100PEP     CB80298  21.457  -1.433  14.987  0.2882  0.0020 -0.2387
 2100PEP     CB80299  21.553  -1.829  15.063 -0.2543 -0.2263 -0.0263
 2100PEP     CB80300  21.472  -2.240  14.854  0.0131 -0.0242 -0.2420
 2100PEP     CB80301  21.816  -2.628  14.814  0.2476 -0.1868 -0.0882
 2100PEP     CB80302  22.222  -2.532  15.072  0.0242 -0.0088 -0.3385
 2100PEP     CB80303  22.459  -2.235  15.230  0.0262 -0.4743 -0.4603
 2100PEP     CB80304  22.626  -2.085  15.527  0.0192  0.2000 -0.3028
 2100PEP     CB80305  22.660  -2.101  15.980  0.2610  0.0523 -0.1536
 2100PEP     CB80306  22.352  -2.279  16.354 -0.0926 -0.0534  0.0210
 2100PEP     CB80307  22.275  -2.762  16.521  0.0839  0.1964 -0.0381
 2100PEP     CB80308  22.103  -3.057  16.851 -0.3299 -0.1411 -0.4916
 2100PEP     CB80309  22.035  -3.073  17.277  0.2089  0.0868  0.0167
 2100PEP     CB80310  21.962  -2.726  17.557 -0.1706 -0.1874  0.1422
 2100PEP     CB80311  22.303  -2.396  17.552  0.8527  0.4698 -0.0481
 2100PEP     CB80312  22.734  -2.313  17.441 -0.2202 -0.2783 -0.0278
 2100PEP     CB80313  22.962  -2.332  17.015 -0.1742  0.0961  0.0658
 2100PEP     CB80314  22.632  -2.151  16.752  0.8144 -0.1615  0.0062
 2100PEP     CB80315  22.141  -2.164  16.788 -0.2267  0.1039 -0.2670
 2100PEP     CB80316  21.746  -2.309  16.516  0.2919 -0.1543 -0.0559
 2100PEP     CB80317  21.655  -2.343  16.110 -0.1464 -0.1179 -0.1659
 2100PEP     CB80318  21.737  -2.395  15.690  0.2409 -0.1219  0.1196
 2100PEP     CB80319  21.860  -2.263  15.337  0.1504 -0.0198  0.3418
 2100PEP     CB80320  22.129  -1.949  14.970 -0.4793  0.3409  0.2304
 2101PEP     CB80321  18.496   9.644  18.042 -0.2346  0.1684  0.1708
 2101PEP     CB80322  18.775   9.671  17.774  0.2656  0.2405  0.5104
 2101PEP     CB80323  19.157   9.538  17.613 -0.1816  0.3914 -0.2619
 2101PEP     CB80324  19.353   9.195  17.388 -0.2658 -0.0820  0.1321
 2101PEP     CB80325  19.548   9.133  16.915  0.2919  0.1975  0.0549
 2101PEP     CB80326  19.860   9.231  16.673  0.2890 -0.1727 -0.3488
 2101PEP     CB80327  20.060   9.637  16.567 -0.2538 -0.0451 -0.2245
 2101PEP     CB80328  20.359   9.862  16.548  0.0261 -0.0970 -0.2704
 2101PEP     CB80329  20.743  10.037  16.353 -0.3132 -0.2641 -0.0048
 2101PEP     CB80330  21.206  10.049  16.290 -0.6320 -0.1590  0.3716
 2101PEP     CB80331  21.521   9.753  16.042 -0.2489 -0.4950 -0.2290
 2101PEP     CB80332  21.413   9.545  15.706  0.4905 -0.2439 -0.1707
 2101PEP     CB80333  21.098   9.173  15.814  0.2548  0.2240  0.0298
 2101PEP     CB80334  20.741   9.274  16.071  0.3779  0.1195  0.0466
 2101PEP     CB80335  20.772   9.600  16.443  0.0936 -0.3718 -0.2698
 2101PEP     CB80336  21.088   9.895  16.742 -0.3581  0.1707  0.0950
 2101PEP     CB80337  21.055  10.002  17.116 -0.3997  0.1583 -0.0727
 2101PEP     CB80338  20.877   9.720  17.369 -0.0418 -0.5566  0.2145
 2101PEP     CB80339  20.703   9.356  17.258 -0.0035  0.2270  0.0428
 2101PEP     CB80340  20.861   9.170  16.841  0.6093 -0.4393  0.0729
 2101PEP     CB80341  21.217   9.251  16.539 -0.2407 -0.0218  0.2194
 2101PEP     CB80342  21.486   9.647  16.516  0.3374 -0.0976 -0.2986
 2101PEP     CB80343  21.626   9.822  16.869  0.0322  0.1782  0.0399
 2101PEP     CB80344  21.638  10.192  17.031 -0.1983 -0.3276 -0.1308
 2101PEP     CB80345  21.459  10.628  17.082 -0.2122 -0.0598  0.3129
 2101PEP     CB80346  21.464  10.967  16.913  0.1077 -0.1996 -0.2584
 2101PEP     CB80347  21.708  11.234  16.759  0.0049  0.3140 -0.0961
 2101PEP     CB80348  21.787  11.604  16.521  0.1208 -0.4333  0.3202
 2101PEP     CB80349  22.035  11.588  16.119  0.0238  0.1152 -0.4052
 2101PEP     CB80350  22.178  11.311  15.916 -0.2949  0.0556  0.0612
 2101PEP     CB80351  21.823  10.985  15.763 -0.0839  0.1113 -0.1995
 2101PEP     CB80352  21.378  11.124  15.647 -0.2786  0.2467 -0.1722
 2101PEP     CB80353  21.106  11.403  15.672  0.3122 -0.1856 -0.2620
 2101PEP     CB80354  21.028  11.863  15.776  0.1300  0.3219 -0.0588
 2101PEP     CB80355  20.719  12.120  16.065  0.1492 -0.2372  0.3097
 2101PEP     CB80356  20.330  12.017  16.104  0.1263 -0.2583 -0.0879
 2101PEP     CB80357  20.095  11.744  15.808  0.4366 -0.0453 -0.0817
 2101PEP     CB80358  19.959  11.460  15.517 -0.0628  0.0155 -0.4507
 2101PEP     CB80359  19.920  11.413  15.037 -0.0822  0.1064 -0.0581
 2101PEP     CB80360  20.044  11.158  14.697 -0.0611  0.0858  0.0981
 2102PEP     CB80361  20.777  18.184   6.048 -0.3318 -0.3943 -0.1768
 2102PEP     CB80362  21.016  17.845   5.890  0.0262 -0.0085 -0.3714
 2102PEP     CB80363  21.099  17.439   5.847 -0.0081 -0.2189 -0.1523
 2102PEP     CB80364  21.393  17.202   5.926 -0.0143  0.1204  0.0250
 2102PEP     CB80365  21.602  16.872   6.105  0.3878 -0.2976  0.0026
 2102PEP     CB80366  21.965  16.530   6.171  0.0173  0.1143  0.1482
 2102PEP     CB80367  22.144  16.207   6.008  0.0704  0.0608  0.1281
 2102PEP     CB80368  22.492  15.973   6.133  0.0143  0.4805  0.1500
 2102PEP     CB80369  22.609  15.523   6.122  0.0448 -0.1872  0.0388
 2102PEP     CB80370  22.578  15.283   5.694 -0.1028  0.3050 -0.3030
 2102PEP     CB80371  22.502  15.444   5.377  0.3179  0.0962 -0.1597
 2102PEP     CB80372  22.187  15.686   5.345 -0.0762  0.1061 -0.1696
 2102PEP     CB80373  21.813  15.838   5.182  0.0945 -0.3377  0.1017
 2102PEP     CB80374  21.440  16.167   5.325 -0.2084  0.1180 -0.0720
 2102PEP     CB80375  21.151  16.486   5.625 -0.2028 -0.1701  0.1642
 2102PEP     CB80376  20.780  16.452   5.856 -0.2230  0.1704 -0.2384
 2102PEP     CB80377  20.498  16.160   5.673  0.0325 -0.1524  0.0176
 2102PEP     CB80378  20.722  16.145   5.221  0.0785 -0.0900  0.0708
 2102PEP     CB80379  21.006  16.439   5.041  0.0709  0.2446 -0.0716
 2102PEP     CB80380  21.140  16.800   5.188  0.0462 -0.0105  0.0184
 2102PEP     CB80381  21.156  16.945   5.564 -0.1089  0.0689  0.2074
 2102PEP     CB80382  21.131  16.770   6.084 -0.0989  0.2566 -0.3605
 2102PEP     CB80383  21.333  16.812   6.494 -0.0433 -0.1808 -0.3088
 2102PEP     CB80384  21.438  17.150   6.590 -0.0935 -0.1354 -0.2064
 2102PEP     CB80385  21.251  17.488   6.361 -0.0293  0.0809  0.1228
 2102PEP     CB80386  20.806  17.558   6.235 -0.0637 -0.3592 -0.0870
 2102PEP     CB80387  20.574  17.735   6.559 -0.0254 -0.1897  0.0846
 2102PEP     CB80388  20.639  17.725   6.966  0.1717  0.0550 -0.2411
 2102PEP     CB80389  20.738  17.625   7.267  0.0903  0.0551 -0.0532
 2102PEP     CB80390  20.742  17.803   7.643  0.3245  0.1241 -0.4623
 2102PEP     CB80391  20.799  18.214   7.853  0.0419  0.0121  0.0485
 2102PEP     CB80392  21.026  18.553   8.034 -0.3992 -0.2768  0.4431
 2102PEP     CB80393  21.239  18.934   7.825  0.3425 -0.3197 -0.2319
 2102PEP     CB80394  21.226  19.269   7.463  0.0317  0.0621 -0.4603
 2102PEP     CB80395  20.866  19.432   7.199 -0.1698 -0.2187 -0.0247
 2102PEP     CB80396  20.483  19.574   7.109 -0.1196 -0.1207  0.1718
 2102PEP     CB80397  20.261  19.916   6.763 -0.1321 -0.3644 -0.1428
 2102PEP     CB80398  20.341  20.231   6.429 -0.2937 -0.2049  0.0698
 2102PEP     CB80399  20.497  20.263   6.023 -0.1082  0.0221  0.0557
 2102PEP     CB80400  20.238  20.047   5.758 -0.1576  0.1439 -0.0472
 2103PEP     CB80401   4.160   1.575  20.835 -0.0238  0.3330 -0.0008
 2103PEP     CB80402   4.330   2.028  20.851  0.6743 -0.0369  0.1943
 2103PEP     CB80403   4.410   2.395  21.077 -0.1876  0.1026  0.0577
 2103PEP     CB80404   4.498   2.623  21.361  0.0611  0.1130  0.1771
 2103PEP     CB80405   4.330   2.751  21.819 -0.1636 -0.4158 -0.3450
 2103PEP     CB80406   4.014   2.576  22.086  0.2017 -0.0007  0.2588
 2103PEP     CB80407   3.599   2.611  22.150  0.2309  0.2356  0.0526
 2103PEP     CB80408   3.391   3.011  22.224  0.0021  0.2916 -0.0756
 2103PEP     CB80409   3.218   3.428  22.138 -0.2429  0.2211  0.3348
 2103PEP     CB80410   3.071   3.741  22.400 -0.1381 -0.0652 -0.1792
 2103PEP     CB80411   2.641   3.834  22.528  0.3150 -0.2216  0.0882
 2103PEP     CB80412   2.237   3.952  22.548  0.1015 -0.0028  0.1242
 2103PEP     CB80413   1.833   3.988  22.331 -0.0758 -0.2492  0.2509
 2103PEP     CB80414   1.552   4.122  22.081 -0.1186  0.1505 -0.2872
 2103PEP     CB80415   1.107   3.988  21.833 -0.0183 -0.1339  0.0617
 2103PEP     CB80416   0.962   3.672  21.781  0.2909  0.1765  0.2645
 2103PEP     CB80417   1.032   3.394  21.579 -0.0545 -0.1292 -0.0100
 2103PEP     CB80418   1.000   3.051  21.592  0.1591  0.2733 -0.1847
 2103PEP     CB80419   0.874   2.649  21.524 -0.1750 -0.4387  0.3004
 2103PEP     CB80420   0.670   2.308  21.345 -0.0937  0.3231 -0.0078
 2103PEP     CB80421   0.415   1.963  21.171 -0.0985 -0.0362 -0.1803
 2103PEP     CB80422   0.494   1.681  20.864 -0.3093 -0.2239  0.1846
 2103PEP     CB80423   0.629   1.733  20.479  0.2016  0.1761  0.3155
 2103PEP     CB80424   1.019   1.959  20.304 -0.0414  0.0557  0.0633
 2103PEP     CB80425   1.319   2.272  20.047 -0.3089 -0.1107  0.0158
 2103PEP     CB80426   1.493   2.632  19.809 -0.0916 -0.0387  0.0523
 2103PEP     CB80427   1.690   2.733  19.525 -0.0333 -0.0700 -0.2210
 2103PEP     CB80428   1.611   2.943  19.085 -0.2478  0.2102  0.0001
 2103PEP     CB80429   1.286   3.161  18.934 -0.2491 -0.4003 -0.1028
 2103PEP     CB80430   0.821   2.976  19.043  0.0195 -0.0337  0.1169
 2103PEP     CB80431   0.699   2.490  19.062  0.0587 -0.2997  0.1666
 2103PEP     CB80432   0.855   2.170  18.750  0.1033  0.0548  0.0998
 2103PEP     CB80433   0.929   2.196  18.201 -0.2231 -0.1099  0.0273
 2103PEP     CB80434   0.944   2.498  17.810 -0.0845 -0.2793  0.0543
 2103PEP     CB80435   0.931   2.630  17.399 -0.1651 -0.1362 -0.2067
 2103PEP     CB80436   0.952   2.681  17.018  0.3074 -0.2109 -0.1036
 2103PEP     CB80437   1.210   2.463  16.707 -0.2417 -0.0541  0.4303
 2103PEP     CB80438   1.455   2.261  16.329 -0.1268  0.0745 -0.0431
 2103PEP     CB80439   1.695   2.292  16.015  0.4677 -0.4236  0.3006
 2103PEP     CB80440   1.866   2.141  15.748 -0.2279 -0.0045  0.3490
 2104PEP     CB80441   0.705  11.937  19.809  0.1653  0.1432 -0.5369
 2104PEP     CB80442   0.333  11.912  19.632 -0.0515 -0.4035 -0.3134
 2104PEP     CB80443  -0.195  11.826  19.848 -0.0833 -0.0262 -0.2460
 2104PEP     CB80444  -0.445  12.158  20.100  0.3087 -0.0005  0.1743
 2104PEP     CB80445  -0.277  12.567  20.210 -0.0618  0.0861 -0.1813
 2104PEP     CB80446   0.029  12.811  20.436 -0.1585  0.2236 -0.0181
 2104PEP     CB80447  -0.063  13.203  20.607 -0.3386 -0.3709  0.1822
 2104PEP     CB80448  -0.262  13.384  21.014  0.0207  0.1185  0.2761
 2104PEP     CB80449  -0.331  13.255  21.428 -0.3399  0.0007  0.0350
 2104PEP     CB80450  -0.049  13.167  21.769 -0.0529 -0.0604  0.1311
 2104PEP     CB80451   0.439  13.184  21.882 -0.0076 -0.1208  0.3714
 2104PEP     CB80452   0.950  13.158  22.067  0.0143  0.0308 -0.0494
 2104PEP     CB80453   1.370  12.909  22.127 -0.2372  0.1003  0.0091
 2104PEP     CB80454   1.525  12.487  21.976 -0.2266  0.1773 -0.2820
 2104PEP     CB80455   1.261  12.195  21.866 -0.1358  0.0320  0.1023
 2104PEP     CB80456   0.749  12.316  21.885 -0.0115  0.5589 -0.4598
 2104PEP     CB80457   0.514  12.698  22.201  0.0579  0.3637  0.0956
 2104PEP     CB80458   0.640  13.037  22.530  0.1560 -0.3056 -0.1422
 2104PEP     CB80459   0.693  13.046  22.980 -0.1699  0.0598 -0.1225
 2104PEP     CB80460   0.987  12.772  23.247 -0.0761  0.2778  0.5642
 2104PEP     CB80461   1.020  12.312  23.352 -0.0940 -0.1861  0.1604
 2104PEP     CB80462   0.717  11.925  23.281  0.3450  0.1112 -0.0393
 2104PEP     CB80463   0.615  11.517  22.964  0.2173 -0.1795 -0.3012
 2104PEP     CB80464   0.573  11.431  22.552 -0.2160 -0.0263 -0.0983
 2104PEP     CB80465   0.830  11.319  22.253  0.0984 -0.0293  0.2882
 2104PEP     CB80466   1.276  11.328  22.272 -0.3645  0.0588 -0.0489
 2104PEP     CB80467   1.610  11.223  22.022 -0.0822 -0.2644  0.0810
 2104PEP     CB80468   1.758  10.860  21.967  0.1369  0.2427 -0.2871
 2104PEP     CB80469   2.123  10.676  22.030  0.0962 -0.2825  0.1160
 2104PEP     CB80470   2.519  10.715  21.780 -0.0779  0.2199 -0.0659
 2104PEP     CB80471   2.932  10.980  21.696 -0.0753 -0.4152 -0.1455
 2104PEP     CB80472   3.009  11.438  21.804 -0.1353  0.0078 -0.0876
 2104PEP     CB80473   2.783  11.892  21.730 -0.3954 -0.0320 -0.2227
 2104PEP     CB80474   2.543  12.193  22.040 -0.2553 -0.2882 -0.6020
 2104PEP     CB80475   2.727  12.221  22.389  0.2246  0.0890  0.0599
 2104PEP     CB80476   2.829  11.941  22.748 -0.1691  0.5029  0.0962
 2104PEP     CB80477   2.848  11.500  22.831 -0.2114 -0.0767 -0.1221
 2104PEP     CB80478   2.590  11.247  23.057  0.3857 -0.2073  0.0402
 2104PEP     CB80479   2.514  11.287  23.562  0.2176 -0.1640  0.0504
 2104PEP     CB80480   2.786  11.281  23.864  0.2116  0.0203 -0.2271
 2105PEP     CB80481  10.304   7.489  14.543  0.0652 -0.0956 -0.0699
 2105PEP     CB80482  10.652   7.715  14.378  0.2003 -0.0638  0.1708
 2105PEP     CB80483  11.090   7.694  14.470  0.2656  0.0492 -0.0711
 2105PEP     CB80484  11.290   7.487  14.623  0.1647 -0.0005  0.0186
 2105PEP     CB80485  11.360   7.385  15.031 -0.2774 -0.2258 -0.0187
 2105PEP     CB80486  11.383   7.109  15.284  0.3081  0.0901  0.1392
 2105PEP     CB80487  11.361   6.912  15.605 -0.2207  0.1422 -0.0442
 2105PEP     CB80488  11.320   6.699  16.028 -0.2762  0.0279 -0.0180
 2105PEP     CB80489  11.199   6.650  16.367  0.0956  0.2144  0.3107
 2105PEP     CB80490  10.762   6.549  16.535 -0.0407  0.3273 -0.2784
 2105PEP     CB80491  10.430   6.592  16.836  0.3439  0.0320  0.2743
 2105PEP     CB80492  10.159   6.853  17.161 -0.2700 -0.0659  0.0313
 2105PEP     CB80493   9.816   6.969  17.501  0.4427  0.1283 -0.2023
 2105PEP     CB80494   9.516   7.043  17.790  0.2798  0.2497  0.2945
 2105PEP     CB80495   9.075   7.013  17.741 -0.0782 -0.3359  0.1690
 2105PEP     CB80496   8.762   7.061  17.338 -0.0215 -0.1299  0.1728
 2105PEP     CB80497   8.616   6.743  17.051  0.2739  0.0632  0.1480
 2105PEP     CB80498   8.974   6.335  17.101  0.4148 -0.0949 -0.3455
 2105PEP     CB80499   9.049   6.376  17.503 -0.0937  0.1918  0.0566
 2105PEP     CB80500   8.742   6.362  17.868 -0.3138 -0.4470 -0.1833
 2105PEP     CB80501   8.252   6.347  17.819  0.5309 -0.1590  0.0066
 2105PEP     CB80502   8.074   5.897  17.690  0.1188  0.3225 -0.2845
 2105PEP     CB80503   8.384   5.586  17.485 -0.1052  0.1752  0.0871
 2105PEP     CB80504   8.681   5.806  17.338  0.0922 -0.1775  0.4242
 2105PEP     CB80505   8.954   5.816  17.093 -0.1379  0.1269  0.0186
 2105PEP     CB80506   9.235   6.065  16.821 -0.2606 -0.2401 -0.0176
 2105PEP     CB80507   9.105   6.308  16.545 -0.2302  0.0623  0.2605
 2105PEP     CB80508   8.999   6.314  16.142 -0.4596  0.0277 -0.0453
 2105PEP     CB80509   8.869   6.520  15.658  0.3720  0.4319 -0.2673
 2105PEP     CB80510   8.473   6.431  15.425 -0.3032 -0.0902  0.1517
 2105PEP     CB80511   8.138   6.276  15.659  0.1405  0.1358 -0.1929
 2105PEP     CB80512   7.865   6.438  16.034  0.3863 -0.2425  0.5162
 2105PEP     CB80513   7.994   6.660  16.415  0.6569 -0.2287  0.2343
 2105PEP     CB80514   8.051   6.771  16.804  0.0334 -0.1548 -0.0078
 2105PEP     CB80515   8.076   6.781  17.254  0.1024  0.0378  0.1060
 2105PEP     CB80516   8.116   6.828  17.766 -0.4225 -0.1550 -0.0333
 2105PEP     CB80517   8.217   7.096  18.224 -0.0543 -0.1013  0.6338
 2105PEP     CB80518   8.217   7.438  18.440 -0.1531  0.0541  0.2895
 2105PEP     CB80519   8.421   7.718  18.773 -0.2339 -0.3716 -0.0599
 2105PEP     CB80520   8.687   7.838  19.130  0.0278  0.2153  0.3549
 2106PEP     CB80521  17.011  21.822  11.935  0.0340 -0.1655  0.0731
 2106PEP     CB80522  17.103  21.403  12.015 -0.0864  0.3501 -0.4207
 2106PEP     CB80523  17.268  20.984  11.841  0.3478  0.3436  0.1044
 2106PEP     CB80524  17.573  20.681  11.944 -0.0856 -0.0266  0.2458
 2106PEP     CB80525  17.795  20.359  12.234  0.0463  0.2320  0.8341
 2106PEP     CB80526  18.044  20.024  12.359 -0.4674  0.0709 -0.5398
 2106PEP     CB80527  18.178  19.597  12.395 -0.1357  0.3106 -0.3224
 2106PEP     CB80528  18.487  19.336  12.269 -0.0730 -0.1541 -0.0555
 2106PEP     CB80529  18.718  18.984  12.008  0.1641  0.1012  0.1398
 2106PEP     CB80530  18.967  18.674  12.020  0.0103 -0.4390  0.0189
 2106PEP     CB80531  19.296  18.438  12.175  0.1934  0.0021 -0.3318
 2106PEP     CB80532  19.552  18.161  12.324  0.1160  0.1334 -0.1974
 2106PEP     CB80533  19.990  18.162  12.474 -0.3553  0.0473 -0.2647
 2106PEP     CB80534  20.341  18.014  12.252 -0.0294  0.0124 -0.3235
 2106PEP     CB80535  20.562  18.294  11.970 -0.0416  0.1703 -0.1239
 2106PEP     CB80536  20.694  18.759  12.007  0.1738  0.1809  0.2986
 2106PEP     CB80537  20.729  19.175  11.755 -0.2329 -0.0540  0.1055
 2106PEP     CB80538  20.712  19.610  11.586  0.2904 -0.0811 -0.2547
 2106PEP     CB80539  20.519  19.726  11.156 -0.1622  0.1775  0.2258
 2106PEP     CB80540  20.319  19.953  10.768  0.2443 -0.0615 -0.1996
 2106PEP     CB80541  20.141  20.245  10.593 -0.0369  0.1396  0.0460
 2106PEP     CB80542  19.783  20.407  10.405 -0.0995 -0.4658 -0.1251
 2106PEP     CB80543  19.612  20.667  10.211 -0.1223 -0.0917  0.0334
 2106PEP     CB80544  19.405  20.873   9.793  0.1436 -0.1032 -0.2874
 2106PEP     CB80545  19.007  20.776   9.657 -0.0209  0.3315  0.0650
 2106PEP     CB80546  18.735  20.531   9.922 -0.1044 -0.0507 -0.0022
 2106PEP     CB80547  18.650  20.171  10.271  0.1734 -0.2870 -0.0336
 2106PEP     CB80548  18.452  19.952  10.565  0.0390 -0.1647 -0.0813
 2106PEP     CB80549  18.463  19.649  10.818 -0.1381  0.0470  0.1984
 2106PEP     CB80550  18.482  19.420  11.304 -0.0169  0.4829 -0.0626
 2106PEP     CB80551  18.758  19.014  11.392  0.0574 -0.1090 -0.0805
 2106PEP     CB80552  18.955  18.542  11.400 -0.1649 -0.0200 -0.2989
 2106PEP     CB80553  19.075  18.299  11.698 -0.2607  0.1039 -0.3971
 2106PEP     CB80554  19.542  18.173  11.786  0.4297 -0.0478  0.0348
 2106PEP     CB80555  19.849  18.247  11.456  0.3700 -0.1328  0.2859
 2106PEP     CB80556  19.805  18.399  11.000 -0.0162 -0.0422  0.2495
 2106PEP     CB80557  20.088  18.429  10.621 -0.0329 -0.2327  0.0169
 2106PEP     CB80558  20.148  18.757  10.330 -0.0036  0.3184 -0.3103
 2106PEP     CB80559  19.710  18.919  10.115  0.2444 -0.0399 -0.4299
 2106PEP     CB80560  19.306  18.737  10.232  0.2516  0.2509  0.2009
 2107PEP     CB80561   6.387  21.168   0.405  0.0847  0.0366 -0.1830
 2107PEP     CB80562   5.949  21.180   0.361  0.1810 -0.1243  0.2665
 2107PEP     CB80563   5.593  21.137   0.515 -0.2262  0.1248 -0.1394
 2107PEP     CB80564   5.421  20.729   0.744 -0.5045  0.0707  0.1618
 2107PEP     CB80565   5.542  20.321   0.857 -0.1126  0.3206 -0.0200
 2107PEP     CB80566   5.516  19.933   0.767  0.1159  0.3248 -0.1905
 2107PEP     CB80567   5.754  19.572   0.560 -0.0965 -0.3089  0.1726
 2107PEP     CB80568   5.905  19.598   0.127  0.1370  0.1053  0.1342
 2107PEP     CB80569   6.078  19.969  -0.084 -0.3385  0.2252  0.1794
 2107PEP     CB80570   6.452  20.129  -0.189 -0.4639 -0.2188 -0.0002
 2107PEP     CB80571   6.876  20.136  -0.092 -0.3979  0.2076 -0.1032
 2107PEP     CB80572   7.158  19.929   0.201  0.0174  0.2230  0.0664
 2107PEP     CB80573   7.175  19.467   0.225 -0.2505  0.1477 -0.1050
 2107PEP     CB80574   6.841  19.242   0.352 -0.2252  0.1436 -0.2106
 2107PEP     CB80575   6.372  19.420   0.396  0.0945 -0.1264 -0.1215
 2107PEP     CB80576   6.320  19.714   0.684 -0.0867 -0.1581 -0.2403
 2107PEP     CB80577   6.051  19.830   0.962  0.0616 -0.0710 -0.2490
 2107PEP     CB80578   5.846  20.130   1.310 -0.2390  0.2681 -0.2258
 2107PEP     CB80579   5.903  20.405   1.623 -0.1159 -0.4586  0.3748
 2107PEP     CB80580   5.946  20.673   2.014  0.1416 -0.0110  0.0209
 2107PEP     CB80581   5.995  21.144   1.937 -0.0831 -0.2624 -0.2358
 2107PEP     CB80582   5.902  21.495   1.793  0.5099  0.1898  0.1327
 2107PEP     CB80583   5.683  21.791   1.560 -0.1828  0.0008 -0.0947
 2107PEP     CB80584   5.528  21.659   1.160  0.1193  0.2727  0.1997
 2107PEP     CB80585   5.356  21.422   0.893 -0.2838 -0.0502  0.0042
 2107PEP     CB80586   5.020  21.032   0.803  0.1394  0.1451 -0.0006
 2107PEP     CB80587   4.927  20.594   0.667 -0.4812  0.0995 -0.1926
 2107PEP     CB80588   5.111  20.217   0.503 -0.1317  0.1077 -0.0957
 2107PEP     CB80589   5.166  19.857   0.240 -0.3426 -0.0222  0.1517
 2107PEP     CB80590   5.319  19.513   0.045  0.3896  0.1565 -0.0317
 2107PEP     CB80591   5.615  19.213   0.068  0.0244  0.0272 -0.0789
 2107PEP     CB80592   5.933  19.100   0.348 -0.1415  0.0611  0.0762
 2107PEP     CB80593   6.288  18.959   0.538 -0.4978  0.0741 -0.3198
 2107PEP     CB80594   6.671  18.934   0.734 -0.2892 -0.3992 -0.0514
 2107PEP     CB80595   7.146  18.945   0.605 -0.0581 -0.3602 -0.0555
 2107PEP     CB80596   7.529  19.003   0.358 -0.0837  0.0371 -0.0909
 2107PEP     CB80597   7.886  19.247   0.251  0.2407  0.3866 -0.1057
 2107PEP     CB80598   8.203  19.562   0.154 -0.0606 -0.3257 -0.0087
 2107PEP     CB80599   8.556  19.879  -0.012  0.0413 -0.2234 -0.3182
 2107PEP     CB80600   8.798  20.328   0.007 -0.0545 -0.0679  0.1400
 2108PEP     CB80601   3.711  14.101  18.000 -0.0514 -0.3023  0.3303
 2108PEP     CB80602   4.182  14.222  18.196 -0.2659 -0.4518 -0.0720
 2108PEP     CB80603   4.531  14.429  18.232 -0.2667  0.2897 -0.0140
 2108PEP     CB80604   4.941  14.435  18.526  0.1302  0.1944  0.3072
 2108PEP     CB80605   5.204  14.264  18.873 -0.0923 -0.5462 -0.1805
 2108PEP     CB80606   5.745  14.164  18.822  0.3521 -0.3150  0.4006
 2108PEP     CB80607   6.170  14.100  18.915 -0.1990 -0.3879  0.3357
 2108PEP     CB80608   6.573  14.123  18.781  0.2018 -0.0535  0.0823
 2108PEP     CB80609   6.981  13.977  18.640  0.0179  0.1589  0.2698
 2108PEP     CB80610   7.536  13.963  18.662 -0.0421 -0.0250  0.1574
 2108PEP     CB80611   7.799  13.938  19.002  0.0237  0.2029  0.1048
 2108PEP     CB80612   7.752  13.975  19.477 -0.2659  0.1346 -0.1248
 2108PEP     CB80613   7.494  13.769  19.832 -0.0207 -0.4862  0.2581
 2108PEP     CB80614   7.272  13.383  19.987  0.0594  0.0542 -0.2755
 2108PEP     CB80615   7.254  12.947  20.339 -0.1147  0.0241 -0.0119
 2108PEP     CB80616   7.527  12.620  20.360  0.0852  0.1358 -0.1948
 2108PEP     CB80617   7.957  12.604  20.284 -0.2671  0.0430  0.0720
 2108PEP     CB80618   8.241  12.908  20.414 -0.1087  0.1063 -0.4220
 2108PEP     CB80619   8.184  13.274  20.776  0.2939  0.1143  0.0454
 2108PEP     CB80620   8.064  13.499  21.099 -0.1010  0.0553 -0.1458
 2108PEP     CB80621   8.119  13.717  21.540  0.3960  0.1629  0.4355
 2108PEP     CB80622   8.043  14.019  21.870 -0.0824  0.0290  0.3921
 2108PEP     CB80623   7.970  14.471  21.939 -0.1245  0.1630  0.2655
 2108PEP     CB80624   8.204  14.835  21.849  0.0919 -0.0570 -0.2626
 2108PEP     CB80625   8.384  15.180  21.861 -0.0755 -0.3326 -0.4593
 2108PEP     CB80626   8.597  15.520  21.601  0.1882  0.1101  0.3185
 2108PEP     CB80627   8.875  15.692  21.206 -0.0427  0.1871  0.2287
 2108PEP     CB80628   8.819  15.860  20.772 -0.0860  0.2527 -0.3309
 2108PEP     CB80629   9.033  15.790  20.379 -0.3888 -0.3502  0.1123
 2108PEP     CB80630   9.361  15.708  20.115  0.0561  0.2595 -0.1867
 2108PEP     CB80631   9.577  16.067  19.980 -0.1407  0.0168 -0.0977
 2108PEP     CB80632   9.901  16.322  19.968  0.4524  0.2728 -0.0061
 2108PEP     CB80633  10.179  16.540  20.011 -0.0083 -0.0715 -0.5693
 2108PEP     CB80634  10.694  16.673  19.847  0.0238  0.2037  0.2648
 2108PEP     CB80635  10.962  16.988  19.571  0.5408 -0.2914 -0.4346
 2108PEP     CB80636  11.025  17.167  19.155 -0.2704 -0.0866 -0.0551
 2108PEP     CB80637  11.340  16.960  18.810 -0.2530  0.0629 -0.4321
 2108PEP     CB80638  11.822  16.939  18.852  0.3117 -0.2785 -0.3344
 2108PEP     CB80639  12.099  16.808  19.176  0.4087  0.1796 -0.0220
 2108PEP     CB80640  12.382  16.787  19.543  0.0058 -0.3261 -0.2191
 2109PEP     CB80641  22.003  19.993   3.105  0.0475 -0.0546  0.0522
 2109PEP     CB80642  22.153  20.076   3.543  0.0908  0.0443 -0.0350
 2109PEP     CB80643  22.358  19.920   3.780  0.1465 -0.1178  0.0478
 2109PEP     CB80644  22.730  19.917   4.065 -0.2502  0.2739  0.0200
 2109PEP     CB80645  23.081  19.834   4.308 -0.3122 -0.3870  0.2340
 2109PEP     CB80646  23.390  19.483   4.304 -0.0825  0.1868 -0.0363
 2109PEP     CB80647  23.275  19.069   4.304 -0.0915 -0.0720  0.0949
 2109PEP     CB80648  22.942  18.895   4.075  0.0132 -0.1138  0.1594
 2109PEP     CB80649  22.687  18.803   3.806 -0.0528  0.0594  0.2840
 2109PEP     CB80650  22.648  18.842   3.347 -0.1041 -0.1281 -0.1507
 2109PEP     CB80651  22.682  19.159   3.096  0.0995  0.1536  0.0578
 2109PEP     CB80652  22.864  19.552   3.269  0.0846 -0.2811  0.0921
 2109PEP     CB80653  22.904  19.655   3.709 -0.1066  0.0324  0.5055
 2109PEP     CB80654  22.851  19.364   4.032 -0.3243  0.4707 -0.2233
 2109PEP     CB80655  22.508  19.164   4.118  0.0083  0.2562 -0.7244
 2109PEP     CB80656  22.015  19.216   4.219  0.0230  0.4689  0.0777
 2109PEP     CB80657  21.650  19.043   4.079 -0.2785  0.0331  0.3698
 2109PEP     CB80658  21.450  18.733   4.142  0.0029  0.1058  0.2828
 2109PEP     CB80659  21.160  18.446   4.226  0.3042 -0.1057  0.2288
 2109PEP     CB80660  20.977  18.090   4.200 -0.4633 -0.3700 -0.1772
 2109PEP     CB80661  20.647  17.873   4.121 -0.0569  0.6271 -0.1320
 2109PEP     CB80662  20.337  17.610   4.269 -0.1350  0.1276  0.3013
 2109PEP     CB80663  19.912  17.423   4.422 -0.1048  0.0680  0.3085
 2109PEP     CB80664  19.603  17.522   4.616 -0.4359  0.0855 -0.1145
 2109PEP     CB80665  19.322  17.767   4.824  0.0773  0.1322 -0.1936
 2109PEP     CB80666  18.977  18.025   4.812  0.1469 -0.1810 -0.1024
 2109PEP     CB80667  18.618  18.265   5.014  0.0656  0.0385 -0.0230
 2109PEP     CB80668  18.280  18.477   5.155  0.1449  0.0086 -0.1327
 2109PEP     CB80669  18.065  18.648   5.502  0.1753 -0.2943 -0.0102
 2109PEP     CB80670  18.003  19.036   5.782 -0.3141 -0.1837 -0.0560
 2109PEP     CB80671  18.201  19.433   6.033  0.3124 -0.1355  0.1671
 2109PEP     CB80672  18.119  19.909   5.994  0.1452  0.2249 -0.0793
 2109PEP     CB80673  18.186  20.084   5.589 -0.1188  0.0224 -0.2754
 2109PEP     CB80674  18.192  19.775   5.242 -0.0700  0.1041  0.0563
 2109PEP     CB80675  18.014  19.375   5.365  0.1528 -0.4212  0.0579
 2109PEP     CB80676  17.758  19.455   5.710 -0.1910 -0.1757 -0.0374
 2109PEP     CB80677  17.454  19.667   5.973 -0.1171 -0.1613 -0.0338
 2109PEP     CB80678  17.032  19.661   6.250 -0.0638 -0.1561 -0.2375
 2109PEP     CB80679  16.678  19.477   6.558 -0.1397 -0.2181 -0.2787
 2109PEP     CB80680  16.190  19.586   6.631  0.3175  0.0568  0.0197
 2110PEP     CB80681  20.406   7.585  15.065 -0.0098 -0.2726  0.1623
 2110PEP     CB80682  20.448   7.210  15.187 -0.1823  0.1699  0.0327
 2110PEP     CB80683  20.305   6.794  15.400  0.1538 -0.1144 -0.3265
 2110PEP     CB80684  20.114   6.595  15.820 -0.0147  0.3104  0.2213
 2110PEP     CB80685  19.977   6.283  16.048 -0.1117 -0.2249  0.0225
 2110PEP     CB80686  19.923   6.087  16.379  0.2494 -0.0414 -0.2029
 2110PEP     CB80687  19.985   5.904  16.867  0.2815  0.0991 -0.2159
 2110PEP     CB80688  19.767   5.749  17.281  0.0595  0.2388  0.2426
 2110PEP     CB80689  19.452   5.391  17.325 -0.1881  0.0418 -0.2047
 2110PEP     CB80690  19.517   5.041  17.063  0.3124 -0.0751 -0.0940
 2110PEP     CB80691  19.697   5.141  16.645 -0.1473  0.0594  0.1828
 2110PEP     CB80692  20.079   5.361  16.685  0.0156 -0.0135 -0.1538
 2110PEP     CB80693  20.364   5.568  16.938 -0.0999 -0.3654 -0.1550
 2110PEP     CB80694  20.773   5.450  17.184 -0.2308  0.2773  0.4256
 2110PEP     CB80695  21.019   5.081  16.937  0.3060 -0.1034  0.0439
 2110PEP     CB80696  21.077   5.035  16.456  0.3139  0.2555  0.1455
 2110PEP     CB80697  21.249   5.228  16.150  0.0016 -0.2907 -0.1929
 2110PEP     CB80698  21.490   5.476  16.087 -0.5410  0.1567 -0.6432
 2110PEP     CB80699  21.396   5.954  16.001  0.0970  0.1127 -0.0529
 2110PEP     CB80700  21.001   6.125  15.803  0.0881  0.1934  0.0018
 2110PEP     CB80701  20.641   5.815  15.515 -0.5599  0.1522  0.3812
 2110PEP     CB80702  20.195   5.722  15.332 -0.2158 -0.3512 -0.1298
 2110PEP     CB80703  19.795   5.566  15.496 -0.1051  0.0202 -0.2248
 2110PEP     CB80704  19.465   5.750  15.728  0.1616 -0.0336 -0.3092
 2110PEP     CB80705  19.406   6.151  15.973 -0.3848  0.1169 -0.0981
 2110PEP     CB80706  19.223   6.602  16.040 -0.0667  0.0863  0.3012
 2110PEP     CB80707  18.840   6.720  15.948  0.0838  0.0964 -0.3092
 2110PEP     CB80708  18.558   6.652  15.673  0.0884 -0.2043 -0.2497
 2110PEP     CB80709  18.546   6.412  15.318  0.2861  0.0927 -0.0091
 2110PEP     CB80710  18.801   6.581  15.020 -0.1481  0.1179  0.0700
 2110PEP     CB80711  18.793   7.124  15.025 -0.1920  0.0676  0.0992
 2110PEP     CB80712  18.853   7.567  15.055 -0.0170 -0.4112 -0.0206
 2110PEP     CB80713  19.227   7.827  14.999  0.1017 -0.1415 -0.0384
 2110PEP     CB80714  19.307   8.125  15.263  0.1259 -0.3835  0.2574
 2110PEP     CB80715  19.118   8.542  15.170 -0.1309 -0.2355 -0.3119
 2110PEP     CB80716  18.926   8.743  14.876  0.0810  0.3578  0.0483
 2110PEP     CB80717  19.055   9.066  14.590  0.1257 -0.0182 -0.1869
 2110PEP     CB80718  19.417   9.240  14.394  0.2709  0.2729 -0.1674
 2110PEP     CB80719  19.645   9.063  14.059 -0.4436 -0.1446  0.0435
 2110PEP     CB80720  19.675   8.638  13.917  0.4675  0.0969 -0.1014
 2111PEP     CB80721   5.101  13.386   3.151 -0.0923  0.4908  0.1503
 2111PEP     CB80722   4.954  13.827   3.094  0.0492 -0.2982  0.2980
 2111PEP     CB80723   4.761  14.213   3.072 -0.5941  0.1173  0.0257
 2111PEP     CB80724   4.811  14.553   2.717  0.1127 -0.0123 -0.0525
 2111PEP     CB80725   5.194  14.535   2.504  0.1662  0.1594  0.1560
 2111PEP     CB80726   5.548  14.239   2.428  0.1373 -0.1491  0.0988
 2111PEP     CB80727   5.607  13.785   2.590 -0.1574  0.1803  0.2152
 2111PEP     CB80728   5.403  13.424   2.720 -0.0563 -0.3034 -0.0898
 2111PEP     CB80729   5.585  13.049   2.839  0.1220  0.2886  0.1190
 2111PEP     CB80730   5.730  12.764   2.534  0.1411  0.2628 -0.1777
 2111PEP     CB80731   5.764  12.759   2.075  0.0842  0.0094 -0.3376
 2111PEP     CB80732   5.535  13.098   1.824 -0.1252  0.3409 -0.0697
 2111PEP     CB80733   5.235  13.481   1.979  0.0013  0.4807 -0.2327
 2111PEP     CB80734   4.919  13.526   2.207 -0.2000 -0.2280  0.7256
 2111PEP     CB80735   4.852  13.469   2.591  0.1764  0.3037 -0.1018
 2111PEP     CB80736   4.887  13.054   2.879 -0.0384  0.1526  0.0510
 2111PEP     CB80737   5.197  12.696   2.991  0.1494 -0.0917 -0.1270
 2111PEP     CB80738   5.590  12.604   2.995 -0.0623 -0.3821 -0.1685
 2111PEP     CB80739   5.734  12.248   2.871  0.1251 -0.3142  0.7408
 2111PEP     CB80740   5.978  11.921   2.527  0.1593  0.0629  0.1379
 2111PEP     CB80741   6.384  11.562   2.444  0.1224 -0.0774  0.2759
 2111PEP     CB80742   6.830  11.629   2.596  0.1657  0.1824 -0.1247
 2111PEP     CB80743   6.970  11.515   3.003 -0.1409 -0.1384 -0.0406
 2111PEP     CB80744   7.025  11.209   3.209 -0.0936  0.2240 -0.3658
 2111PEP     CB80745   6.864  10.743   3.302 -0.0795  0.1226 -0.2086
 2111PEP     CB80746   6.758  10.272   3.407 -0.2931  0.2285  0.0126
 2111PEP     CB80747   6.816   9.823   3.468 -0.0089 -0.2856  0.0080
 2111PEP     CB80748   6.811   9.347   3.455  0.0789 -0.0135 -0.0798
 2111PEP     CB80749   6.583   8.901   3.328  0.1790 -0.0296  0.2168
 2111PEP     CB80750   6.313   8.727   3.007  0.0246 -0.3519 -0.1846
 2111PEP     CB80751   6.028   8.660   2.666 -0.5955  0.1464 -0.5648
 2111PEP     CB80752   6.023   8.811   2.245  0.1355 -0.0979 -0.0784
 2111PEP     CB80753   6.298   9.145   2.129 -0.1456  0.0244 -0.0461
 2111PEP     CB80754   6.192   9.580   2.302 -0.0459 -0.1129  0.1287
 2111PEP     CB80755   5.898   9.835   2.217 -0.4063  0.0458  0.2177
 2111PEP     CB80756   5.515  10.056   2.231 -0.2174  0.1232  0.1081
 2111PEP     CB80757   5.238  10.313   2.249  0.2142 -0.1175 -0.0534
 2111PEP     CB80758   4.816  10.429   1.957 -0.0534  0.2070  0.3045
 2111PEP     CB80759   4.812  10.487   1.555 -0.2932  0.1261 -0.0276
 2111PEP     CB80760   4.955  10.597   1.158  0.1031 -0.4199  0.2557
 2112PEP     CB80761   1.898   5.736   8.226 -0.0638  0.2669 -0.1694
 2112PEP     CB80762   1.654   5.641   8.602 -0.2371 -0.3394  0.1092
 2112PEP     CB80763   1.354   5.754   8.912  0.3174  0.0261 -0.2687
 2112PEP     CB80764   1.015   5.548   9.195 -0.5370 -0.2643 -0.1531
 2112PEP     CB80765   0.720   5.249   9.276  0.3133 -0.3742  0.0501
 2112PEP     CB80766   0.412   5.122   9.487  0.2533 -0.2894  0.1074
 2112PEP     CB80767   0.274   4.920   9.833  0.0145 -0.0366 -0.1079
 2112PEP     CB80768   0.215   4.806  10.181 -0.2960 -0.1519  0.0619
 2112PEP     CB80769   0.106   4.697  10.571  0.1794 -0.0524  0.0336
 2112PEP     CB80770   0.237   5.019  10.975  0.1699  0.0228 -0.1505
 2112PEP     CB80771   0.647   5.286  11.042 -0.1540  0.0248  0.1659
 2112PEP     CB80772   0.928   5.607  10.874  0.1734 -0.0330 -0.0851
 2112PEP     CB80773   0.928   5.855  10.468 -0.0139 -0.2535 -0.2663
 2112PEP     CB80774   0.555   5.866  10.268 -0.3959  0.0442 -0.0220
 2112PEP     CB80775   0.233   5.693  10.206 -0.1688 -0.0821  0.0091
 2112PEP     CB80776  -0.070   5.453  10.056  0.0797  0.2924 -0.3414
 2112PEP     CB80777  -0.486   5.250  10.004 -0.1020  0.2304 -0.2619
 2112PEP     CB80778  -0.600   4.811   9.895  0.3316  0.1953 -0.1833
 2112PEP     CB80779  -0.523   4.354   9.827  0.5924  0.4191 -0.4384
 2112PEP     CB80780  -0.176   4.091   9.751  0.0998 -0.0634 -0.0787
 2112PEP     CB80781   0.038   3.890   9.293 -0.4185  0.0821  0.1928
 2112PEP     CB80782   0.483   3.804   9.140 -0.0357  0.0032 -0.1978
 2112PEP     CB80783   0.923   3.685   9.052 -0.3035  0.3392  0.2360
 2112PEP     CB80784   1.249   3.502   9.198  0.1243  0.7202 -0.2562
 2112PEP     CB80785   1.194   3.057   9.392  0.1648  0.0444  0.0382
 2112PEP     CB80786   0.800   2.825   9.266 -0.1141 -0.0279  0.2631
 2112PEP     CB80787   0.503   2.987   8.964 -0.1247  0.2359  0.0473
 2112PEP     CB80788   0.277   3.278   9.093  0.0654 -0.1222  0.0757
 2112PEP     CB80789   0.166   3.380   9.486  0.0762 -0.3638  0.0968
 2112PEP     CB80790   0.069   3.542   9.910 -0.2588  0.2723 -0.3318
 2112PEP     CB80791  -0.139   3.835  10.290  0.1307 -0.4254 -0.2819
 2112PEP     CB80792  -0.433   4.230  10.326 -0.0110 -0.0895 -0.4508
 2112PEP     CB80793  -0.858   4.287  10.156  0.1547 -0.4099  0.1045
 2112PEP     CB80794  -1.049   4.610   9.805 -0.1301  0.0800 -0.1336
 2112PEP     CB80795  -1.129   5.030   9.769  0.1131  0.4925  0.2318
 2112PEP     CB80796  -0.891   5.335   9.694  0.0725  0.3513 -0.0993
 2112PEP     CB80797  -0.564   5.308   9.489 -0.6275  0.0545 -0.2005
 2112PEP     CB80798  -0.284   4.898   9.511  0.1863  0.1680 -0.2409
 2112PEP     CB80799  -0.133   4.605   9.870 -0.0547 -0.0664  0.0556
 2112PEP     CB80800   0.157   4.287  10.091 -0.3075 -0.2810 -0.4760
 2113PEP     CB80801  21.322  17.797   3.225  0.1786 -0.3450  0.1405
 2113PEP     CB80802  20.872  17.791   3.024  0.1063 -0.1442  0.0901
 2113PEP     CB80803  20.462  17.811   2.797 -0.1185 -0.1228  0.1865
 2113PEP     CB80804  20.215  17.961   2.517  0.1005  0.3511  0.3244
 2113PEP     CB80805  20.119  17.955   2.111 -0.0822 -0.0708  0.2496
 2113PEP     CB80806  20.221  17.942   1.740  0.2488  0.0572  0.0169
 2113PEP     CB80807  19.958  17.970   1.421 -0.1511  0.1640 -0.2934
 2113PEP     CB80808  19.733  18.215   1.173  0.2164 -0.1480 -0.1079
 2113PEP     CB80809  19.384  18.021   0.960  0.0450  0.3021 -0.0685
 2113PEP     CB80810  19.370  17.537   0.922  0.4021  0.0945 -0.2302
 2113PEP     CB80811  19.585  17.286   1.144  0.4065  0.2246 -0.0677
 2113PEP     CB80812  19.646  17.053   1.537  0.0361 -0.0022  0.2400
 2113PEP     CB80813  19.732  16.847   1.961  0.1949  0.3989  0.1959
 2113PEP     CB80814  19.427  16.678   2.278 -0.3328 -0.1189 -0.5292
 2113PEP     CB80815  19.201  16.337   2.223  0.1008 -0.0705 -0.3142
 2113PEP     CB80816  18.844  16.135   1.947 -0.1466 -0.1818  0.0249
 2113PEP     CB80817  18.717  15.873   1.636 -0.2866 -0.1238  0.0181
 2113PEP     CB80818  18.683  15.518   1.587 -0.0183 -0.1871  0.0150
 2113PEP     CB80819  18.839  15.174   1.617 -0.0885  0.0882 -0.2999
 2113PEP     CB80820  18.832  14.711   1.602 -0.0079  0.3321 -0.3297
 2113PEP     CB80821  18.849  14.311   1.386 -0.0500  0.5121 -0.2418
 2113PEP     CB80822  18.860  14.060   1.104 -0.0109  0.1792  0.2208
 2113PEP     CB80823  18.744  14.133   0.641  0.1354  0.4141 -0.1789
 2113PEP     CB80824  18.478  14.086   0.277  0.1608 -0.2912  0.0926
 2113PEP     CB80825  18.296  14.085  -0.125  0.3043 -0.1601 -0.0079
 2113PEP     CB80826  17.983  14.174  -0.469  0.0114 -0.3042  0.1552
 2113PEP     CB80827  17.954  14.220  -0.930 -0.3015  0.0621  0.1050
 2113PEP     CB80828  18.031  14.074  -1.270 -0.1659 -0.2068  0.1344
 2113PEP     CB80829  18.151  13.747  -1.536  0.3957 -0.3534 -0.1763
 2113PEP     CB80830  18.244  13.757  -1.999  0.2992 -0.0111 -0.3280
 2113PEP     CB80831  18.478  13.934  -2.386  0.2606 -0.1096 -0.2172
 2113PEP     CB80832  18.580  14.400  -2.522  0.1225  0.3860  0.3067
 2113PEP     CB80833  18.714  14.742  -2.540  0.0644  0.0763  0.1170
 2113PEP     CB80834  18.927  15.198  -2.373  0.1826  0.3915  0.0486
 2113PEP     CB80835  18.833  15.502  -2.240 -0.1615  0.1323  0.0183
 2113PEP     CB80836  18.814  15.829  -1.948 -0.2532  0.1566 -0.1060
 2113PEP     CB80837  18.865  16.034  -1.523  0.0485  0.3199 -0.0693
 2113PEP     CB80838  18.954  16.110  -1.111  0.0926  0.1259 -0.0387
 2113PEP     CB80839  19.057  15.763  -0.733  0.0202 -0.1617 -0.0031
 2113PEP     CB80840  19.043  15.379  -0.592 -0.0721 -0.1586  0.0935
 2114PEP     CB80841  21.031   0.515  17.498  0.1108 -0.2447  0.0401
 2114PEP     CB80842  21.079   0.130  17.582 -0.2624 -0.1641 -0.0774
 2114PEP     CB80843  21.210  -0.274  17.493  0.3830 -0.0027 -0.2328
 2114PEP     CB80844  21.544  -0.521  17.568  0.2303  0.1159 -0.1485
 2114PEP     CB80845  21.814  -0.875  17.537  0.0779 -0.4176  0.0387
 2114PEP     CB80846  22.241  -0.931  17.458 -0.1379 -0.0137  0.2287
 2114PEP     CB80847  22.570  -1.151  17.252 -0.2718  0.1475  0.1146
 2114PEP     CB80848  22.712  -1.313  17.001  0.2983  0.0298 -0.1236
 2114PEP     CB80849  23.084  -1.475  16.739  0.1042 -0.0068  0.0067
 2114PEP     CB80850  23.260  -1.544  16.346 -0.4665 -0.0349  0.3116
 2114PEP     CB80851  23.492  -1.648  15.899  0.3807 -0.4133 -0.3937
 2114PEP     CB80852  23.816  -1.871  15.666 -0.2119  0.3800  0.0190
 2114PEP     CB80853  23.852  -2.270  15.419 -0.0115  0.1147  0.2146
 2114PEP     CB80854  23.857  -2.642  15.465 -0.1952  0.0683  0.2718
 2114PEP     CB80855  24.027  -2.900  15.121  0.3882  0.3651 -0.1045
 2114PEP     CB80856  23.897  -3.215  14.681  0.0570  0.0798 -0.0678
 2114PEP     CB80857  23.803  -3.176  14.211 -0.0234 -0.2349 -0.3317
 2114PEP     CB80858  23.711  -2.862  14.025 -0.2920  0.0563  0.1119
 2114PEP     CB80859  23.462  -2.452  14.122  0.3107  0.0670 -0.4145
 2114PEP     CB80860  23.489  -2.080  14.401 -0.0806  0.1379 -0.0103
 2114PEP     CB80861  23.889  -2.004  14.550  0.0967  0.0812  0.0857
 2114PEP     CB80862  24.072  -2.204  14.933  0.0559 -0.1804 -0.0051
 2114PEP     CB80863  24.323  -2.382  15.272 -0.1192  0.2144 -0.0363
 2114PEP     CB80864  24.727  -2.494  15.537 -0.2636  0.0564  0.0274
 2114PEP     CB80865  25.107  -2.558  15.836 -0.1288 -0.2121  0.0675
 2114PEP     CB80866  25.527  -2.732  15.800 -0.2058  0.5959  0.2597
 2114PEP     CB80867  25.806  -2.922  15.452 -0.3573  0.1773  0.0104
 2114PEP     CB80868  25.990  -3.361  15.440  0.4419 -0.2405 -0.0784
 2114PEP     CB80869  25.870  -3.771  15.368  0.1233 -0.0828 -0.1144
 2114PEP     CB80870  25.718  -4.157  15.201  0.3351 -0.0340  0.1264
 2114PEP     CB80871  25.962  -4.546  15.193  0.1235  0.0931 -0.2163
 2114PEP     CB80872  26.205  -4.815  14.960 -0.0196  0.1790  0.4369
 2114PEP     CB80873  26.562  -4.782  14.562  0.1091 -0.3015 -0.0674
 2114PEP     CB80874  26.781  -4.765  14.120 -0.1255  0.3031  0.1910
 2114PEP     CB80875  26.910  -4.509  13.809 -0.0164  0.0568  0.6405
 2114PEP     CB80876  26.614  -4.236  13.540  0.1766  0.2603 -0.4275
 2114PEP     CB80877  26.222  -4.147  13.686 -0.2223  0.0612 -0.1466
 2114PEP     CB80878  26.092  -3.940  14.088  0.0278 -0.0343 -0.2662
 2114PEP     CB80879  25.964  -3.841  14.493  0.0947 -0.3075  0.1812
 2114PEP     CB80880  25.980  -4.042  14.839 -0.1248 -0.3365  0.5408
 2115PEP     CB80881   2.600   6.762  15.767 -0.0735  0.0571  0.3341
 2115PEP     CB80882   2.719   6.345  15.632 -0.1688  0.2718 -0.0490
 2115PEP     CB80883   2.794   5.969  15.571  0.2379  0.0364 -0.0867
 2115PEP     CB80884   2.778   5.429  15.589  0.0216 -0.3274 -0.0562
 2115PEP     CB80885   2.710   5.000  15.386 -0.0262 -0.0022  0.0863
 2115PEP     CB80886   2.466   4.652  15.499  0.0144  0.1348 -0.0920
 2115PEP     CB80887   2.131   4.540  15.274 -0.3901 -0.2266 -0.1112
 2115PEP     CB80888   1.880   4.419  14.974  0.2104  0.1442 -0.0740
 2115PEP     CB80889   1.654   4.229  14.886 -0.4976 -0.5937  0.1191
 2115PEP     CB80890   1.426   3.988  14.652 -0.1233  0.1770  0.1808
 2115PEP     CB80891   1.299   3.727  14.318 -0.3904 -0.0399 -0.2825
 2115PEP     CB80892   1.111   3.369  14.213  0.0586 -0.0652  0.0482
 2115PEP     CB80893   0.818   3.082  14.004 -0.3930  0.0100  0.1269
 2115PEP     CB80894   0.586   2.702  14.037 -0.0226  0.0864 -0.2318
 2115PEP     CB80895   0.404   2.460  14.366  0.1520 -0.1537  0.0286
 2115PEP     CB80896   0.338   2.285  14.722 -0.0273 -0.4824 -0.0063
 2115PEP     CB80897  -0.001   2.344  15.109 -0.0422 -0.0133 -0.1701
 2115PEP     CB80898  -0.193   2.701  15.132  0.2932  0.2683 -0.1369
 2115PEP     CB80899  -0.475   2.720  14.843  0.1177 -0.2461  0.0815
 2115PEP     CB80900  -0.680   2.401  14.572  0.2158  0.0322  0.1730
 2115PEP     CB80901  -0.565   1.973  14.456 -0.1030  0.1157 -0.3300
 2115PEP     CB80902  -0.540   1.498  14.567 -0.3103  0.2946  0.0499
 2115PEP     CB80903  -0.260   1.327  14.852 -0.1987  0.0783  0.3752
 2115PEP     CB80904  -0.100   1.384  15.291  0.1038  0.2144  0.1984
 2115PEP     CB80905   0.049   1.442  15.735  0.4665  0.0711  0.2615
 2115PEP     CB80906  -0.076   1.304  16.198  0.2304 -0.0249  0.1570
 2115PEP     CB80907  -0.384   1.087  16.429 -0.0303 -0.0139  0.2982
 2115PEP     CB80908  -0.718   0.751  16.718  0.0948 -0.1524 -0.3562
 2115PEP     CB80909  -0.697   0.619  17.179  0.0004  0.0638  0.8142
 2115PEP     CB80910  -0.647   0.901  17.556  0.0311  0.2524 -0.0663
 2115PEP     CB80911  -0.829   1.345  17.511 -0.1225  0.1266 -0.3196
 2115PEP     CB80912  -0.925   1.625  17.119 -0.1500  0.5797 -0.0001
 2115PEP     CB80913  -0.897   1.746  16.558 -0.3796  0.0256  0.1157
 2115PEP     CB80914  -0.601   2.010  16.276  0.3513 -0.3209 -0.0205
 2115PEP     CB80915  -0.493   2.289  15.950  0.4393 -0.5128  0.2172
 2115PEP     CB80916  -0.499   2.706  15.822  0.3633  0.1548 -0.0617
 2115PEP     CB80917  -0.222   3.023  15.598  0.1226  0.1143  0.0109
 2115PEP     CB80918   0.070   3.360  15.591  0.2445 -0.1922  0.2638
 2115PEP     CB80919   0.434   3.700  15.605 -0.1292  0.0092 -0.1877
 2115PEP     CB80920   0.575   4.186  15.595  0.3281  0.0704 -0.0708
 2116PEP     CB80921   7.052   2.737  14.559 -0.2000 -0.0329 -0.3375
 2116PEP     CB80922   7.147   2.781  14.989 -0.0952 -0.6137 -0.0344
 2116PEP     CB80923   7.105   2.652  15.480 -0.0352 -0.1934 -0.1978
 2116PEP     CB80924   7.254   2.465  15.871  0.1611  0.1146 -0.0079
 2116PEP     CB80925   7.357   2.270  16.260 -0.1926 -0.0185  0.1428
 2116PEP     CB80926   7.321   2.048  16.587 -0.2166  0.1629 -0.0380
 2116PEP     CB80927   7.381   1.684  16.777 -0.0187  0.5530  0.2071
 2116PEP     CB80928   7.325   1.220  16.637  0.0515 -0.0204  0.1078
 2116PEP     CB80929   7.265   1.123  16.143 -0.1195 -0.1397 -0.1492
 2116PEP     CB80930   7.120   1.212  15.683  0.1476  0.1359 -0.3574
 2116PEP     CB80931   6.921   1.164  15.246  0.1679 -0.0875 -0.0485
 2116PEP     CB80932   7.222   1.096  14.819 -0.0679  0.4522 -0.0742
 2116PEP     CB80933   7.497   0.935  14.487  0.2070  0.5331  0.1266
 2116PEP     CB80934   7.500   1.048  13.988  0.2331  0.3908  0.0082
 2116PEP     CB80935   7.423   1.253  13.582  0.0339  0.1473 -0.0300
 2116PEP     CB80936   7.136   1.452  13.307  0.4298 -0.0921 -0.0496
 2116PEP     CB80937   6.801   1.735  13.342  0.3269 -0.0137 -0.3278
 2116PEP     CB80938   6.416   1.790  13.212  0.2407 -0.1731 -0.1380
 2116PEP     CB80939   6.174   1.978  12.917 -0.1260 -0.3912 -0.0372
 2116PEP     CB80940   6.108   2.362  12.695 -0.1013  0.2275 -0.0863
 2116PEP     CB80941   5.953   2.615  12.245 -0.2686  0.3167  0.2862
 2116PEP     CB80942   5.762   2.706  11.871 -0.6009 -0.0128  0.2895
 2116PEP     CB80943   5.549   2.983  11.530 -0.2622  0.1794 -0.2341
 2116PEP     CB80944   5.121   3.070  11.473 -0.2190 -0.3982 -0.0547
 2116PEP     CB80945   4.792   2.814  11.674  0.0517  0.0926  0.1575
 2116PEP     CB80946   4.455   2.691  11.822  0.3845 -0.0348 -0.0290
 2116PEP     CB80947   3.965   2.637  11.898 -0.6826  0.1748 -0.2541
 2116PEP     CB80948   3.502   2.603  11.900  0.0866 -0.2740 -0.1135
 2116PEP     CB80949   3.020   2.508  11.733 -0.0760 -0.4378 -0.2729
 2116PEP     CB80950   2.868   2.338  11.312  0.0859  0.2225 -0.5457
 2116PEP     CB80951   3.037   2.364  10.890 -0.0054 -0.2410  0.0701
 2116PEP     CB80952   3.474   2.248  10.669  0.0462 -0.2624 -0.2394
 2116PEP     CB80953   3.866   2.513  10.465 -0.0126  0.2265 -0.1442
 2116PEP     CB80954   4.236   2.378  10.670 -0.3052  0.2044  0.2488
 2116PEP     CB80955   4.335   2.426  11.107 -0.2784  0.0587  0.2291
 2116PEP     CB80956   4.570   2.783  11.207  0.0134  0.1544 -0.0621
 2116PEP     CB80957   4.886   3.072  11.054 -0.0723 -0.0316  0.2069
 2116PEP     CB80958   4.994   3.400  10.893  0.1278 -0.1254  0.2673
 2116PEP     CB80959   5.143   3.839  10.739  0.1861  0.2274 -0.0283
 2116PEP     CB80960   5.358   4.107  10.675  0.0896  0.1950 -0.0206
 2117PEP     CB80961  13.055  20.232   2.172 -0.2477  0.0230 -0.2218
 2117PEP     CB80962  12.802  19.845   1.978  0.0603  0.0907 -0.1960
 2117PEP     CB80963  12.629  19.504   1.780  0.1284  0.1096 -0.1566
 2117PEP     CB80964  12.619  19.255   1.398 -0.6262  0.0687  0.2811
 2117PEP     CB80965  12.665  19.331   0.911  0.0650  0.0364 -0.2134
 2117PEP     CB80966  12.585  19.519   0.630  0.1019  0.5420 -0.3724
 2117PEP     CB80967  12.872  19.696   0.342 -0.1009 -0.0907  0.0573
 2117PEP     CB80968  13.388  19.632   0.500 -0.2856 -0.2537  0.1302
 2117PEP     CB80969  13.547  19.596   0.903  0.3854  0.0069  0.3517
 2117PEP     CB80970  13.336  19.664   1.339  0.3508 -0.0996  0.1503
 2117PEP     CB80971  13.110  19.390   1.556 -0.1495 -0.1617  0.4239
 2117PEP     CB80972  13.058  18.943   1.514  0.0751 -0.4893 -0.3203
 2117PEP     CB80973  12.943  18.632   1.251  0.0689  0.0796 -0.0004
 2117PEP     CB80974  12.619  18.337   1.154  0.0820 -0.3412  0.0548
 2117PEP     CB80975  12.142  18.414   1.261 -0.2866  0.1367  0.1307
 2117PEP     CB80976  11.688  18.437   1.039 -0.0544 -0.0146  0.3004
 2117PEP     CB80977  11.306  18.540   1.121  0.2480  0.2883  0.4184
 2117PEP     CB80978  10.943  18.472   1.424  0.1841  0.1090 -0.2940
 2117PEP     CB80979  10.506  18.504   1.499 -0.4918 -0.3754 -0.5261
 2117PEP     CB80980  10.050  18.510   1.719  0.2182  0.1796 -0.1126
 2117PEP     CB80981   9.721  18.854   1.842  0.3857  0.7796 -0.0934
 2117PEP     CB80982   9.471  19.250   1.915  0.4318  0.2803 -0.1377
 2117PEP     CB80983   9.683  19.574   2.123 -0.1232 -0.0534  0.0410
 2117PEP     CB80984  10.032  19.498   2.452  0.1560  0.3847  0.3661
 2117PEP     CB80985  10.053  19.127   2.705  0.2406  0.0192  0.2022
 2117PEP     CB80986   9.939  18.961   3.080 -0.3763  0.2120 -0.0897
 2117PEP     CB80987   9.595  18.949   3.468  0.0936 -0.2613 -0.0253
 2117PEP     CB80988   9.151  18.831   3.527  0.0104 -0.3624  0.3262
 2117PEP     CB80989   8.744  19.010   3.519  0.0053  0.1670  0.1498
 2117PEP     CB80990   8.552  19.210   3.900  0.1238 -0.0674  0.2373
 2117PEP     CB80991   8.608  19.436   4.260  0.3441 -0.2154 -0.2673
 2117PEP     CB80992   8.810  19.405   4.636  0.2269 -0.2521 -0.3602
 2117PEP     CB80993   9.145  19.265   4.779  0.2696  0.2942  0.0817
 2117PEP     CB80994   9.429  19.570   4.679 -0.2439  0.1290 -0.0794
 2117PEP     CB80995   9.317  19.981   4.418 -0.1590 -0.4118 -0.1723
 2117PEP     CB80996   9.394  20.405   4.457  0.1414 -0.3975  0.1323
 2117PEP     CB80997   9.492  20.776   4.574 -0.1066 -0.0087 -0.0120
 2117PEP     CB80998   9.745  21.140   4.550 -0.0296  0.0024  0.1852
 2117PEP     CB80999  10.208  21.036   4.411 -0.1237 -0.1427 -0.0248
 2117PEP     CB81000  10.516  20.905   4.114  0.2942 -0.3982  0.6300
 2118PEP     CB81001  10.649  16.595   2.871 -0.3710 -0.1196  0.0159
 2118PEP     CB81002  10.250  16.947   2.787 -0.3671  0.0937  0.0603
 2118PEP     CB81003  10.365  17.268   2.607  0.1793 -0.2076 -0.2460
 2118PEP     CB81004  10.827  17.237   2.561 -0.1057  0.3141 -0.1684
 2118PEP     CB81005  10.987  16.726   2.448  0.2855 -0.0457 -0.0358
 2118PEP     CB81006  10.717  16.375   2.435  0.0496 -0.0939 -0.2484
 2118PEP     CB81007  10.549  16.076   2.587 -0.3721 -0.3907  0.0368
 2118PEP     CB81008  10.406  16.066   3.032 -0.3915  0.0078  0.0209
 2118PEP     CB81009  10.468  16.235   3.480 -0.0111  0.1884  0.1487
 2118PEP     CB81010  10.341  16.453   3.816 -0.0776 -0.0372 -0.3976
 2118PEP     CB81011  10.411  16.890   3.825  0.1868  0.2387  0.0523
 2118PEP     CB81012  10.812  17.139   3.855 -0.2639 -0.4836 -0.1323
 2118PEP     CB81013  11.124  17.335   3.680  0.1594 -0.1751 -0.0099
 2118PEP     CB81014  11.316  17.778   3.510  0.1084 -0.1737  0.0939
 2118PEP     CB81015  11.406  18.052   3.254  0.4818 -0.3064 -0.2276
 2118PEP     CB81016  11.677  18.142   2.882  0.1813  0.3357 -0.3277
 2118PEP     CB81017  12.053  18.176   2.643  0.0189 -0.0394 -0.1544
 2118PEP     CB81018  12.462  18.350   2.638  0.0632 -0.2248  0.3771
 2118PEP     CB81019  12.617  18.659   2.476 -0.0314 -0.1261  0.1967
 2118PEP     CB81020  12.626  18.763   2.028  0.1385  0.0412  0.0901
 2118PEP     CB81021  12.449  18.757   1.633  0.0156 -0.0393  0.2080
 2118PEP     CB81022  12.464  18.843   1.122 -0.0313  0.0765  0.2865
 2118PEP     CB81023  12.851  18.824   0.783  0.3834 -0.5050  0.1363
 2118PEP     CB81024  13.146  18.549   0.768  0.0823 -0.1786 -0.2712
 2118PEP     CB81025  13.071  18.178   1.078  0.2998 -0.0482  0.0491
 2118PEP     CB81026  12.962  18.018   1.494  0.5592  0.1389 -0.1104
 2118PEP     CB81027  12.824  17.951   1.847 -0.2085 -0.1556  0.0161
 2118PEP     CB81028  12.783  18.224   2.177 -0.0551  0.1456  0.4851
 2118PEP     CB81029  13.052  18.588   2.282 -0.0986 -0.0493 -0.1429
 2118PEP     CB81030  13.550  18.716   2.306 -0.1450  0.3823  0.2107
 2118PEP     CB81031  13.789  18.665   1.968  0.2382  0.2199 -0.0895
 2118PEP     CB81032  13.719  18.387   1.665  0.0708  0.2058  0.5677
 2118PEP     CB81033  13.528  18.536   1.327  0.0632  0.3810 -0.2161
 2118PEP     CB81034  13.396  18.896   1.071 -0.3560  0.2435 -0.1497
 2118PEP     CB81035  13.190  19.287   1.067  0.1595  0.1760 -0.1958
 2118PEP     CB81036  13.044  19.617   0.906 -0.1373 -0.1450 -0.3759
 2118PEP     CB81037  12.828  19.930   0.809 -0.5018 -0.2948  0.2655
 2118PEP     CB81038  12.409  19.966   0.742 -0.1793  0.2947  0.3352
 2118PEP     CB81039  12.136  19.581   0.797  0.2005 -0.2294 -0.2276
 2118PEP     CB81040  12.169  19.219   1.012  0.1716  0.1597 -0.3929
 2119PEP     CB81041  12.065  18.809  17.568  0.5527 -0.1370  0.4089
 2119PEP     CB81042  12.389  18.654  17.274  0.0910 -0.2120 -0.2216
 2119PEP     CB81043  12.613  18.597  16.911 -0.2468  0.2605  0.1219
 2119PEP     CB81044  12.870  18.319  16.827 -0.0373  0.0845 -0.0444
 2119PEP     CB81045  12.839  17.825  16.838 -0.1645  0.2601 -0.1149
 2119PEP     CB81046  12.589  17.449  16.969 -0.0089  0.2972 -0.0058
 2119PEP     CB81047  12.544  17.073  17.179 -0.1622 -0.1280  0.0654
 2119PEP     CB81048  12.702  16.939  17.540 -0.2062 -0.1651 -0.2197
 2119PEP     CB81049  13.085  16.846  17.679 -0.0286  0.1204  0.2121
 2119PEP     CB81050  13.471  16.839  17.850  0.2605 -0.3971  0.0916
 2119PEP     CB81051  13.905  16.680  17.893  0.3133  0.5077 -0.1417
 2119PEP     CB81052  14.304  16.456  17.952  0.1277  0.1277  0.1687
 2119PEP     CB81053  14.709  16.340  17.762  0.3605 -0.2534 -0.2038
 2119PEP     CB81054  14.919  16.090  17.458  0.0311 -0.3519  0.0353
 2119PEP     CB81055  15.296  15.964  17.195 -0.1070 -0.0739 -0.0801
 2119PEP     CB81056  15.431  16.021  16.749  0.0599  0.0305 -0.0292
 2119PEP     CB81057  15.303  16.125  16.349 -0.0073 -0.1367  0.1355
 2119PEP     CB81058  15.329  16.226  15.874  0.1199 -0.0288 -0.3267
 2119PEP     CB81059  15.514  16.334  15.549 -0.3868 -0.2076 -0.0044
 2119PEP     CB81060  15.624  16.468  15.137  0.2555  0.1405 -0.0868
 2119PEP     CB81061  15.786  16.495  14.744 -0.1058  0.2529  0.2304
 2119PEP     CB81062  15.538  16.687  14.363 -0.2684  0.2221  0.1379
 2119PEP     CB81063  15.294  16.983  14.450 -0.0601 -0.3277  0.4434
 2119PEP     CB81064  15.138  17.389  14.748  0.3367 -0.0084 -0.0748
 2119PEP     CB81065  15.003  17.848  14.866 -0.0879 -0.2478  0.0645
 2119PEP     CB81066  14.865  18.061  15.241 -0.3740 -0.4332  0.2314
 2119PEP     CB81067  14.748  17.876  15.716 -0.2908  0.2043  0.0447
 2119PEP     CB81068  14.562  17.528  15.961  0.2290 -0.3140  0.1103
 2119PEP     CB81069  14.734  17.198  16.133  0.1628 -0.0165  0.1264
 2119PEP     CB81070  14.800  17.009  16.504 -0.1131 -0.2071  0.4089
 2119PEP     CB81071  14.819  16.843  16.856  0.0175  0.0714 -0.3216
 2119PEP     CB81072  14.705  16.516  17.257  0.1499 -0.1209 -0.0548
 2119PEP     CB81073  14.588  16.785  17.558 -0.0286  0.0731 -0.0097
 2119PEP     CB81074  14.415  17.055  17.424 -0.2295  0.3254  0.1334
 2119PEP     CB81075  14.379  17.114  16.923 -0.1361 -0.5681 -0.1449
 2119PEP     CB81076  14.083  16.897  16.629 -0.3266  0.2925  0.1049
 2119PEP     CB81077  13.580  16.752  16.671  0.0022 -0.2820  0.1656
 2119PEP     CB81078  13.205  16.640  16.604  0.0037 -0.1444  0.1931
 2119PEP     CB81079  12.814  16.425  16.663  0.5607  0.2280  0.2630
 2119PEP     CB81080  12.454  16.247  16.408  0.0944 -0.1883 -0.1010
 2120PEP     CB81081  10.538  10.369   1.837  0.0085  0.0444  0.1454
 2120PEP     CB81082  10.318  10.323   1.379 -0.1734  0.0368  0.1226
 2120PEP     CB81083  10.117  10.325   0.996 -0.2319  0.3541  0.6229
 2120PEP     CB81084   9.909  10.145   0.633  0.0727  0.2874  0.3487
 2120PEP     CB81085   9.963  10.305   0.140 -0.2206  0.2406  0.0712
 2120PEP     CB81086  10.215  10.233  -0.180 -0.2949  0.0307  0.2361
 2120PEP     CB81087  10.615  10.037  -0.212 -0.1814 -0.3582  0.0842
 2120PEP     CB81088  10.988  10.290  -0.511 -0.1121 -0.2657  0.0702
 2120PEP     CB81089  11.349  10.287  -0.807 -0.0873 -0.0173  0.3224
 2120PEP     CB81090  11.698  10.125  -0.967  0.1992 -0.0970  0.1224
 2120PEP     CB81091  12.110  10.174  -1.235  0.1207 -0.3173  0.1435
 2120PEP     CB81092  12.394  10.168  -1.452  0.0089 -0.0303  0.3213
 2120PEP     CB81093  12.560  10.140  -1.990 -0.0992  0.2973  0.0612
 2120PEP     CB81094  12.650   9.843  -2.309 -0.0187  0.2103 -0.0779
 2120PEP     CB81095  12.723   9.714  -2.716  0.1960  0.1923 -0.1746
 2120PEP     CB81096  12.975   9.537  -3.043 -0.3659 -0.4583  0.0714
 2120PEP     CB81097  13.365   9.369  -3.260 -0.0345 -0.2887  0.1961
 2120PEP     CB81098  13.604   9.417  -3.734 -0.2861  0.2192 -0.0952
 2120PEP     CB81099  13.670   9.738  -4.028  0.0692 -0.1413  0.1097
 2120PEP     CB81100  13.468   9.950  -4.349  0.0091  0.3820 -0.0620
 2120PEP     CB81101  13.352  10.214  -4.681 -0.0455 -0.4658 -0.0793
 2120PEP     CB81102  13.072  10.300  -4.988 -0.0383 -0.2782 -0.5339
 2120PEP     CB81103  12.704  10.500  -5.106  0.2005  0.0830  0.0317
 2120PEP     CB81104  12.354  10.719  -4.786  0.3595 -0.1206 -0.2179
 2120PEP     CB81105  12.287  10.780  -4.432 -0.1518 -0.3341 -0.3170
 2120PEP     CB81106  12.294  10.581  -4.129 -0.0903 -0.2286  0.1814
 2120PEP     CB81107  12.348  10.211  -3.765  0.0313  0.5740  0.0187
 2120PEP     CB81108  12.561   9.810  -3.826  0.2643  0.0719  0.0727
 2120PEP     CB81109  12.628   9.540  -4.120 -0.2309 -0.2205  0.2181
 2120PEP     CB81110  12.599   9.280  -4.454  0.2083 -0.0075 -0.0370
 2120PEP     CB81111  12.629   9.404  -4.901 -0.3555  0.0327 -0.0401
 2120PEP     CB81112  12.723   9.726  -5.171  0.0711  0.1734  0.0912
 2120PEP     CB81113  12.544  10.053  -5.440  0.1675 -0.0214 -0.0033
 2120PEP     CB81114  12.499  10.301  -5.823  0.1200  0.2172 -0.0346
 2120PEP     CB81115  12.442  10.523  -6.053  0.3020 -0.0136  0.0882
 2120PEP     CB81116  12.718  10.643  -6.451  0.0572  0.1958  0.0190
 2120PEP     CB81117  13.070  10.723  -6.725 -0.0907  0.2188 -0.0210
 2120PEP     CB81118  13.485  10.855  -6.746  0.2117  0.3974  0.2858
 2120PEP     CB81119  13.795  11.011  -6.500  0.2355  0.0554 -0.1189
 2120PEP     CB81120  14.071  11.024  -6.121  0.0200  0.0745  0.1940
 2121PEP     CB81121   7.191  14.535   1.264  0.1524 -0.1457  0.1147
 2121PEP     CB81122   7.367  14.605   1.664 -0.0567 -0.0970 -0.0563
 2121PEP     CB81123   7.311  14.567   2.077  0.1882  0.3407  0.0435
 2121PEP     CB81124   6.969  14.644   2.425 -0.0983 -0.0716 -0.4095
 2121PEP     CB81125   6.672  14.472   2.746 -0.0298 -0.2844 -0.3350
 2121PEP     CB81126   6.229  14.544   2.758 -0.2882 -0.0035 -0.3329
 2121PEP     CB81127   5.984  14.817   2.510 -0.4005  0.2164  0.4235
 2121PEP     CB81128   6.011  15.233   2.394 -0.2718  0.2050  0.4012
 2121PEP     CB81129   6.240  15.578   2.382 -0.3247 -0.3680 -0.0420
 2121PEP     CB81130   6.628  15.577   2.350 -0.4772  0.3270 -0.4048
 2121PEP     CB81131   7.014  15.537   2.241  0.3057  0.6534 -0.3560
 2121PEP     CB81132   7.502  15.423   2.320  0.0473 -0.2730  0.2197
 2121PEP     CB81133   7.930  15.560   2.169 -0.0980 -0.1924 -0.3336
 2121PEP     CB81134   8.131  15.889   2.397 -0.0281  0.4751 -0.0279
 2121PEP     CB81135   7.937  16.310   2.415  0.1480  0.2082  0.2031
 2121PEP     CB81136   7.519  16.494   2.448  0.1992  0.0145 -0.0661
 2121PEP     CB81137   7.117  16.442   2.630  0.1662  0.1624 -0.2029
 2121PEP     CB81138   6.972  16.569   3.008  0.0533  0.2843 -0.0085
 2121PEP     CB81139   7.222  16.758   3.370  0.4407  0.3147 -0.0517
 2121PEP     CB81140   7.404  16.615   3.730 -0.0584  0.0463  0.6319
 2121PEP     CB81141   7.716  16.481   3.967 -0.1551  0.1099  0.4069
 2121PEP     CB81142   7.757  16.176   4.353  0.3374  0.0472 -0.0639
 2121PEP     CB81143   7.616  15.790   4.321 -0.0605 -0.0141  0.0523
 2121PEP     CB81144   7.438  15.633   3.880 -0.3548 -0.0520 -0.4518
 2121PEP     CB81145   6.979  15.834   3.724  0.1001 -0.0552 -0.2098
 2121PEP     CB81146   6.554  15.955   3.997  0.1512  0.3666  0.3241
 2121PEP     CB81147   6.305  15.973   4.396 -0.3036  0.3043 -0.0633
 2121PEP     CB81148   5.909  16.272   4.438 -0.6177 -0.2035  0.2235
 2121PEP     CB81149   5.427  16.287   4.216 -0.2963  0.3649  0.0831
 2121PEP     CB81150   5.278  15.997   4.084 -0.1994  0.0880 -0.0223
 2121PEP     CB81151   5.060  15.661   4.049 -0.2871  0.2126  0.2040
 2121PEP     CB81152   4.873  15.480   4.354  0.0107 -0.3048 -0.1083
 2121PEP     CB81153   4.690  15.161   4.580  0.1896 -0.3981 -0.1421
 2121PEP     CB81154   4.652  14.909   4.922  0.2202 -0.1919 -0.0999
 2121PEP     CB81155   4.568  14.598   5.235 -0.1207 -0.0292  0.1225
 2121PEP     CB81156   4.332  14.567   5.679  0.2582 -0.3514  0.1664
 2121PEP     CB81157   4.164  14.571   6.135 -0.1441  0.3324  0.3256
 2121PEP     CB81158   3.932  15.003   6.308 -0.0664  0.1950  0.0871
 2121PEP     CB81159   3.807  15.316   6.643  0.1466  0.4327 -0.0492
 2121PEP     CB81160   3.877  15.735   6.672 -0.0635  0.5606 -0.1863
 2122PEP     CB81161  18.910  11.003   1.581 -0.3575 -0.4830  0.0484
 2122PEP     CB81162  18.780  11.444   1.405 -0.0335  0.1124  0.0720
 2122PEP     CB81163  18.842  11.903   1.174  0.0932 -0.0347  0.0128
 2122PEP     CB81164  18.667  12.211   1.337 -0.0074  0.1476  0.3602
 2122PEP     CB81165  18.243  12.307   1.472  0.5174 -0.1477 -0.0219
 2122PEP     CB81166  17.891  12.598   1.438 -0.1295 -0.0711 -0.0549
 2122PEP     CB81167  17.724  13.059   1.251 -0.3079  0.0954 -0.2153
 2122PEP     CB81168  17.485  13.439   1.311  0.2750 -0.1067 -0.0725
 2122PEP     CB81169  17.713  13.874   1.323 -0.0634 -0.1380  0.1523
 2122PEP     CB81170  17.948  14.137   1.237  0.1245 -0.6368  0.1206
 2122PEP     CB81171  18.316  14.542   1.427 -0.2134 -0.0385  0.1418
 2122PEP     CB81172  18.383  14.928   1.692  0.1574 -0.2016  0.0078
 2122PEP     CB81173  18.377  15.107   2.039  0.2960  0.3532 -0.3296
 2122PEP     CB81174  18.306  14.994   2.473  0.2695  0.1200  0.0587
 2122PEP     CB81175  18.504  14.842   2.841  0.1220  0.0510  0.3165
 2122PEP     CB81176  18.681  14.532   3.029 -0.2386  0.0876  0.5419
 2122PEP     CB81177  18.415  14.077   2.949  0.6721  0.1705  0.4076
 2122PEP     CB81178  18.096  14.044   2.608  0.1504 -0.0636  0.0286
 2122PEP     CB81179  17.775  14.178   2.372  0.2383  0.2048 -0.0904
 2122PEP     CB81180  17.523  14.564   2.416  0.1779  0.1490  0.5526
 2122PEP     CB81181  17.432  14.902   2.671  0.4310  0.0484  0.0340
 2122PEP     CB81182  17.340  15.241   2.914 -0.1738 -0.1646  0.2446
 2122PEP     CB81183  17.670  15.586   3.009  0.0049  0.0012  0.3025
 2122PEP     CB81184  18.119  15.509   2.878 -0.1402 -0.2213  0.0244
 2122PEP     CB81185  18.500  15.377   2.649 -0.1850  0.0757  0.0063
 2122PEP     CB81186  18.893  15.384   2.475  0.1061 -0.2184  0.0122
 2122PEP     CB81187  19.207  15.663   2.391 -0.1889 -0.1078  0.3075
 2122PEP     CB81188  19.677  15.519   2.236 -0.0054 -0.5950  0.0014
 2122PEP     CB81189  19.914  15.309   1.856  0.1084 -0.2383 -0.1642
 2122PEP     CB81190  20.199  15.118   1.524  0.0718 -0.1603  0.1960
 2122PEP     CB81191  20.348  14.959   1.246  0.1457  0.0330 -0.2708
 2122PEP     CB81192  20.367  14.543   1.193 -0.1551  0.1001 -0.4189
 2122PEP     CB81193  20.697  14.229   1.474  0.0842  0.0902 -0.0211
 2122PEP     CB81194  21.059  14.192   1.424  0.1437  0.1727 -0.0351
 2122PEP     CB81195  21.427  14.080   1.663 -0.2998 -0.0765  0.1689
 2122PEP     CB81196  21.655  13.856   1.986 -0.1619  0.0026 -0.0124
 2122PEP     CB81197  21.727  13.746   2.377 -0.0758  0.0829 -0.3040
 2122PEP     CB81198  21.809  13.720   2.804  0.1994 -0.0289 -0.1903
 2122PEP     CB81199  21.747  13.536   3.271 -0.2071  0.3087  0.1223
 2122PEP     CB81200  21.610  13.368   3.626 -0.1972  0.0094 -0.0267
 2123PEP     CB81201  15.655   2.379   5.406  0.0224  0.1699  0.2343
 2123PEP     CB81202  15.225   2.158   5.545  0.0576 -0.3437 -0.0346
 2123PEP     CB81203  14.957   1.790   5.770 -0.5332  0.3364 -0.0792
 2123PEP     CB81204  14.618   1.537   6.003  0.1389 -0.2335 -0.3321
 2123PEP     CB81205  14.672   1.193   6.297 -0.0850  0.2993 -0.2274
 2123PEP     CB81206  14.502   1.054   6.752 -0.0378  0.1078 -0.3273
 2123PEP     CB81207  14.316   0.759   7.115  0.1023  0.5527  0.0304
 2123PEP     CB81208  14.334   0.375   7.234  0.1062 -0.0544 -0.4126
 2123PEP     CB81209  14.581   0.122   7.060  0.0480  0.0704 -0.0039
 2123PEP     CB81210  14.962  -0.078   7.262 -0.0415  0.0401 -0.0967
 2123PEP     CB81211  15.072  -0.190   7.718 -0.4143  0.0112  0.0423
 2123PEP     CB81212  15.034   0.099   8.041  0.0242  0.0124 -0.0114
 2123PEP     CB81213  14.751   0.497   7.916 -0.1257 -0.0253 -0.3428
 2123PEP     CB81214  14.723   0.564   7.474 -0.0216  0.3172  0.2571
 2123PEP     CB81215  15.098   0.374   7.290 -0.2079  0.0956 -0.0489
 2123PEP     CB81216  15.481   0.150   7.328  0.1630 -0.1857 -0.1419
 2123PEP     CB81217  15.561  -0.170   7.573 -0.0916  0.1369 -0.0282
 2123PEP     CB81218  15.381  -0.549   7.663 -0.1139 -0.1704  0.1563
 2123PEP     CB81219  15.593  -0.995   7.678 -0.1460 -0.1458 -0.1769
 2123PEP     CB81220  16.013  -1.156   7.391 -0.0322 -0.3089 -0.4715
 2123PEP     CB81221  16.439  -0.984   7.262  0.0300 -0.0315  0.2663
 2123PEP     CB81222  16.589  -0.969   6.832 -0.0069  0.1729 -0.2556
 2123PEP     CB81223  16.398  -1.093   6.446 -0.3760 -0.2247  0.2265
 2123PEP     CB81224  15.983  -1.064   6.374  0.0936 -0.0659  0.1315
 2123PEP     CB81225  15.738  -0.970   6.798 -0.1824  0.1811  0.0614
 2123PEP     CB81226  15.503  -1.067   7.182 -0.2084 -0.0917  0.0424
 2123PEP     CB81227  15.357  -1.435   7.400  0.1913  0.0763  0.1821
 2123PEP     CB81228  15.356  -1.893   7.265  0.2286 -0.0487  0.2878
 2123PEP     CB81229  15.343  -2.052   6.985 -0.0358  0.3435 -0.2194
 2123PEP     CB81230  15.744  -2.263   6.677  0.1908  0.1787  0.0844
 2123PEP     CB81231  16.114  -1.943   6.442 -0.0991  0.3510 -0.1467
 2123PEP     CB81232  16.083  -1.549   6.206  0.1897  0.3235  0.0853
 2123PEP     CB81233  15.730  -1.371   6.049  0.0064 -0.0633  0.0736
 2123PEP     CB81234  15.363  -1.517   6.054 -0.0020  0.3727  0.0511
 2123PEP     CB81235  14.949  -1.626   5.968  0.3182  0.2141  0.1090
 2123PEP     CB81236  14.786  -1.769   5.597 -0.3753 -0.2603  0.2414
 2123PEP     CB81237  14.986  -1.694   5.240 -0.2846  0.1507 -0.0649
 2123PEP     CB81238  15.027  -1.431   4.875  0.1449 -0.1064 -0.3590
 2123PEP     CB81239  14.669  -1.122   4.799 -0.1249  0.1723  0.0090
 2123PEP     CB81240  14.287  -1.087   5.072  0.0782 -0.3487  0.0364
 2124PEP     CB81241  13.640  11.098   3.563 -0.2649 -0.0293 -0.2338
 2124PEP     CB81242  13.226  11.086   3.475  0.0510 -0.0315  0.1082
 2124PEP     CB81243  12.819  11.189   3.464  0.3768  0.2826  0.2337
 2124PEP     CB81244  12.491  11.474   3.436 -0.0874 -0.2431 -0.0369
 2124PEP     CB81245  12.377  11.875   3.501 -0.0651 -0.2781 -0.0264
 2124PEP     CB81246  11.949  12.162   3.503 -0.0609  0.1358 -0.0263
 2124PEP     CB81247  11.476  12.144   3.468  0.0269  0.1780 -0.1446
 2124PEP     CB81248  11.197  12.429   3.407  0.1393  0.0990 -0.4406
 2124PEP     CB81249  10.831  12.703   3.436  0.1690 -0.0575  0.0645
 2124PEP     CB81250  10.828  13.220   3.273 -0.0747 -0.2147  0.2536
 2124PEP     CB81251  11.136  13.496   3.234 -0.2381  0.1521  0.2995
 2124PEP     CB81252  11.533  13.411   3.003  0.2608 -0.1005  0.4133
 2124PEP     CB81253  11.583  13.019   2.877 -0.1713  0.1627 -0.0189
 2124PEP     CB81254  11.956  12.683   2.657 -0.0810 -0.1153  0.1790
 2124PEP     CB81255  12.428  12.789   2.480 -0.1137  0.1514 -0.2332
 2124PEP     CB81256  12.626  13.174   2.310 -0.1267 -0.3795  0.2755
 2124PEP     CB81257  12.739  13.448   2.014  0.0555 -0.0468  0.3270
 2124PEP     CB81258  12.801  13.372   1.527 -0.3220 -0.0155 -0.1711
 2124PEP     CB81259  12.701  13.032   1.302 -0.2702 -0.2590 -0.4668
 2124PEP     CB81260  12.406  12.673   1.385 -0.0388 -0.0870 -0.2314
 2124PEP     CB81261  12.372  12.161   1.369 -0.0260  0.0644 -0.2980
 2124PEP     CB81262  12.145  11.707   1.478 -0.2787 -0.2484 -0.1603
 2124PEP     CB81263  12.261  11.303   1.669 -0.2308  0.0095  0.1689
 2124PEP     CB81264  12.374  11.095   1.994  0.0632  0.3455  0.1242
 2124PEP     CB81265  12.590  10.882   2.360 -0.0857 -0.0156  0.0884
 2124PEP     CB81266  13.077  10.796   2.425  0.1628 -0.2469 -0.0598
 2124PEP     CB81267  13.405  11.026   2.560 -0.0487 -0.0414  0.1164
 2124PEP     CB81268  13.905  11.065   2.571 -0.2323 -0.4330 -0.0373
 2124PEP     CB81269  14.351  11.117   2.665 -0.0239  0.3216 -0.1262
 2124PEP     CB81270  14.655  11.269   2.965  0.0280 -0.1440  0.0845
 2124PEP     CB81271  15.055  11.448   3.174  0.0968 -0.0286 -0.5981
 2124PEP     CB81272  15.487  11.509   3.210  0.1595 -0.0732  0.0041
 2124PEP     CB81273  15.727  11.078   3.241  0.4387  0.0836  0.0626
 2124PEP     CB81274  15.497  10.675   3.200  0.2878  0.4341  0.1040
 2124PEP     CB81275  15.152  10.594   3.009 -0.6974  0.0701 -0.0099
 2124PEP     CB81276  14.883  10.294   2.801  0.0104  0.3062  0.1506
 2124PEP     CB81277  14.430  10.084   2.945  0.1549 -0.2219 -0.1722
 2124PEP     CB81278  14.043  10.244   2.804  0.0148  0.3098 -0.2164
 2124PEP     CB81279  13.790  10.650   2.797 -0.1164  0.2892 -0.0664
 2124PEP     CB81280  13.654  11.046   2.997 -0.0806 -0.0176  0.4372
 2125PEP     CB81281   0.146  19.301   6.020 -0.0028  0.0132  0.1463
 2125PEP     CB81282   0.133  19.432   6.455 -0.0198  0.0618  0.1664
 2125PEP     CB81283  -0.087  19.636   6.887  0.6146 -0.0297  0.2827
 2125PEP     CB81284  -0.293  19.639   7.186  0.1431 -0.1542  0.2663
 2125PEP     CB81285  -0.689  19.767   7.407  0.0650 -0.0537  0.4600
 2125PEP     CB81286  -1.015  19.778   7.714  0.2642  0.0357 -0.4577
 2125PEP     CB81287  -1.400  19.789   7.826  0.0199  0.4582  0.0298
 2125PEP     CB81288  -1.821  19.918   7.969  0.0446 -0.2302 -0.1085
 2125PEP     CB81289  -2.212  20.176   7.946 -0.3458 -0.1340  0.1936
 2125PEP     CB81290  -2.692  20.249   7.857  0.0098 -0.0629  0.2230
 2125PEP     CB81291  -3.038  20.604   7.875  0.0074  0.0217  0.1171
 2125PEP     CB81292  -3.362  20.850   7.655 -0.4210 -0.1359  0.0165
 2125PEP     CB81293  -3.850  20.828   7.693  0.2354 -0.0088 -0.2242
 2125PEP     CB81294  -4.157  20.656   7.924 -0.0016 -0.0928  0.2039
 2125PEP     CB81295  -4.299  20.239   7.899 -0.1394  0.1137  0.0347
 2125PEP     CB81296  -4.426  19.914   7.677 -0.0642  0.1564 -0.2421
 2125PEP     CB81297  -4.664  19.638   7.761  0.4478 -0.4160 -0.6275
 2125PEP     CB81298  -4.807  19.446   8.109  0.7193  0.1429 -0.0715
 2125PEP     CB81299  -5.055  19.098   8.391  0.1588 -0.3569  0.0910
 2125PEP     CB81300  -5.104  18.956   8.774 -0.1735 -0.0304  0.0670
 2125PEP     CB81301  -4.757  18.951   9.116  0.1351  0.3606 -0.1744
 2125PEP     CB81302  -4.409  19.135   9.221 -0.3366 -0.5926  0.0273
 2125PEP     CB81303  -4.135  19.219   8.961  0.0458  0.0834 -0.3427
 2125PEP     CB81304  -4.232  19.305   8.557  0.1941  0.0174 -0.1211
 2125PEP     CB81305  -4.293  19.637   8.315 -0.0920 -0.1655 -0.4425
 2125PEP     CB81306  -4.067  19.796   8.001 -0.5914  0.2222 -0.0379
 2125PEP     CB81307  -3.906  19.899   7.690 -0.0178 -0.2326 -0.2003
 2125PEP     CB81308  -3.762  20.267   7.693 -0.0290 -0.2690 -0.0112
 2125PEP     CB81309  -3.530  20.477   7.942 -0.1436  0.2162  0.0435
 2125PEP     CB81310  -3.437  20.484   8.432  0.1966  0.0831  0.3041
 2125PEP     CB81311  -3.208  20.422   8.859 -0.1009  0.0472 -0.1416
 2125PEP     CB81312  -2.953  20.035   9.024  0.0311  0.4212  0.2610
 2125PEP     CB81313  -2.965  19.623   9.168 -0.2193 -0.2407 -0.0434
 2125PEP     CB81314  -2.680  19.232   9.202  0.0202  0.0429 -0.0902
 2125PEP     CB81315  -2.210  19.145   8.965 -0.0535  0.0223 -0.2329
 2125PEP     CB81316  -2.024  19.234   8.596 -0.2200  0.2916  0.0413
 2125PEP     CB81317  -1.970  18.915   8.175 -0.3846  0.6200  0.1610
 2125PEP     CB81318  -2.263  18.764   7.904 -0.0510 -0.1197  0.1405
 2125PEP     CB81319  -2.708  18.699   7.872  0.1611 -0.1397 -0.4354
 2125PEP     CB81320  -2.905  18.461   7.620 -0.2561  0.1191 -0.1967
 2126PEP     CB81321   0.476   7.270  18.971 -0.3891 -0.1101  0.2310
 2126PEP     CB81322   0.465   7.236  18.585 -0.1263  0.2513  0.2788
 2126PEP     CB81323   0.187   7.059  18.257  0.2038 -0.1001 -0.3317
 2126PEP     CB81324  -0.163   7.238  18.048  0.0725 -0.1465  0.0875
 2126PEP     CB81325  -0.329   7.781  18.045  0.2834  0.1924 -0.0318
 2126PEP     CB81326  -0.410   8.118  18.242  0.3331 -0.4682  0.2041
 2126PEP     CB81327  -0.350   8.508  18.394  0.3425  0.1124  0.2901
 2126PEP     CB81328  -0.497   8.903  18.605 -0.1875 -0.2818  0.1461
 2126PEP     CB81329  -0.830   9.162  18.675  0.1168  0.3978 -0.1662
 2126PEP     CB81330  -1.223   9.307  18.540 -0.3265  0.0881  0.1712
 2126PEP     CB81331  -1.356   9.534  18.257 -0.1887  0.0066 -0.1563
 2126PEP     CB81332  -1.488   9.964  18.312 -0.0030  0.1328  0.0111
 2126PEP     CB81333  -1.482  10.123  18.665 -0.2597 -0.1602  0.4361
 2126PEP     CB81334  -1.021  10.034  18.876  0.4031 -0.1618 -0.2123
 2126PEP     CB81335  -0.625  10.139  18.836  0.0755  0.2124  0.1654
 2126PEP     CB81336  -0.243  10.033  18.709 -0.3077  0.1595 -0.0209
 2126PEP     CB81337   0.189   9.983  18.412  0.0880  0.2373 -0.0467
 2126PEP     CB81338   0.500   9.704  18.350  0.1884 -0.5354 -0.0722
 2126PEP     CB81339   0.833   9.719  18.089 -0.3063 -0.2114  0.1541
 2126PEP     CB81340   1.062   9.685  17.736  0.0465  0.1938 -0.3277
 2126PEP     CB81341   0.938   9.789  17.292  0.0077  0.2936  0.0925
 2126PEP     CB81342   0.490   9.895  17.052 -0.0686  0.3189  0.2694
 2126PEP     CB81343   0.352   9.972  16.624 -0.0184 -0.1931  0.1900
 2126PEP     CB81344   0.534  10.318  16.354  0.0137 -0.1504  0.0782
 2126PEP     CB81345   1.032  10.384  16.414  0.3850  0.0021  0.1156
 2126PEP     CB81346   1.410  10.327  16.739  0.1802 -0.3622 -0.1709
 2126PEP     CB81347   1.578  10.338  17.133 -0.1692  0.1657 -0.0490
 2126PEP     CB81348   1.726  10.393  17.552  0.0997  0.2418  0.0721
 2126PEP     CB81349   1.602  10.455  18.074  0.3697  0.0453 -0.0557
 2126PEP     CB81350   1.655  10.662  18.472 -0.4722  0.1195 -0.1260
 2126PEP     CB81351   1.977  10.828  18.657  0.3071  0.2605  0.4730
 2126PEP     CB81352   2.479  10.771  18.635  0.1676  0.0734  0.2467
 2126PEP     CB81353   2.883  10.910  18.618  0.1684  0.0664  0.0417
 2126PEP     CB81354   3.299  10.771  18.651 -0.1460 -0.1242  0.4029
 2126PEP     CB81355   3.622  10.437  18.577  0.2660  0.2077 -0.0292
 2126PEP     CB81356   3.976  10.220  18.648 -0.2059  0.2530  0.5193
 2126PEP     CB81357   4.177   9.845  18.767  0.2582  0.0946  0.2688
 2126PEP     CB81358   4.180   9.473  19.006  0.0933 -0.0256 -0.2207
 2126PEP     CB81359   4.068   9.097  19.233 -0.0820 -0.1038  0.2535
 2126PEP     CB81360   3.921   8.711  19.367 -0.1323 -0.0896  0.0689
 2127PEP     CB81361  19.098   4.911   8.073 -0.1165  0.1987  0.5004
 2127PEP     CB81362  19.519   5.111   8.089  0.0348  0.0677 -0.3618
 2127PEP     CB81363  19.897   5.126   7.882  0.2479  0.4562 -0.3292
 2127PEP     CB81364  20.075   4.869   7.575 -0.0667 -0.0069 -0.2062
 2127PEP     CB81365  20.099   4.612   7.174 -0.1890  0.0402  0.1271
 2127PEP     CB81366  20.332   4.454   6.871 -0.3035 -0.2561  0.1062
 2127PEP     CB81367  20.441   4.607   6.407 -0.0367 -0.3658 -0.2927
 2127PEP     CB81368  20.405   5.012   6.147 -0.0539  0.3757 -0.0831
 2127PEP     CB81369  20.362   5.389   6.256  0.1286  0.1353 -0.2395
 2127PEP     CB81370  20.313   5.364   6.621 -0.0632  0.3527  0.2946
 2127PEP     CB81371  20.181   4.880   6.718 -0.0388 -0.2498 -0.0841
 2127PEP     CB81372  19.927   4.591   6.445 -0.3634  0.1087 -0.0254
 2127PEP     CB81373  19.935   4.350   6.016 -0.1324 -0.2101  0.2472
 2127PEP     CB81374  20.178   4.150   5.640 -0.0029 -0.3077 -0.1933
 2127PEP     CB81375  20.314   3.691   5.604 -0.2474 -0.0819  0.3849
 2127PEP     CB81376  20.289   3.246   5.558  0.1102 -0.1610  0.4290
 2127PEP     CB81377  20.323   2.705   5.382 -0.3018 -0.1355  0.0253
 2127PEP     CB81378  20.433   2.318   5.428  0.1497  0.2308  0.4370
 2127PEP     CB81379  20.513   1.983   5.817 -0.1697 -0.0756 -0.0806
 2127PEP     CB81380  20.626   1.911   6.228  0.2478  0.3813  0.0223
 2127PEP     CB81381  20.863   1.617   6.404  0.1506  0.2550 -0.1566
 2127PEP     CB81382  21.241   1.631   6.731 -0.0081  0.1737 -0.0018
 2127PEP     CB81383  21.230   1.576   7.186 -0.2623 -0.3659  0.0132
 2127PEP     CB81384  21.091   1.244   7.476  0.2093  0.1879 -0.0603
 2127PEP     CB81385  21.117   0.781   7.361  0.0885  0.1298 -0.2451
 2127PEP     CB81386  21.144   0.600   6.960  0.0340 -0.7543 -0.1104
 2127PEP     CB81387  21.062   0.895   6.542  0.1610 -0.3959 -0.4596
 2127PEP     CB81388  21.082   1.245   6.226 -0.1563  0.0430 -0.1995
 2127PEP     CB81389  21.113   1.252   5.763 -0.2561  0.0882  0.1511
 2127PEP     CB81390  21.193   1.051   5.522 -0.0778 -0.0763 -0.4547
 2127PEP     CB81391  21.477   1.064   5.130  0.0970  0.1010  0.3123
 2127PEP     CB81392  21.476   0.817   4.719  0.4194 -0.3552  0.0872
 2127PEP     CB81393  21.072   0.478   4.689  0.3185 -0.0779 -0.1092
 2127PEP     CB81394  20.719   0.265   4.453  0.1682  0.1913 -0.0132
 2127PEP     CB81395  20.273   0.246   4.367 -0.0967  0.0959  0.2285
 2127PEP     CB81396  19.991   0.370   4.622 -0.1122 -0.3783  0.1506
 2127PEP     CB81397  19.737   0.125   4.883  0.0341 -0.1292 -0.1618
 2127PEP     CB81398  19.923  -0.337   4.995  0.1312  0.3628 -0.4871
 2127PEP     CB81399  19.747  -0.693   5.206 -0.0093 -0.2323 -0.2335
 2127PEP     CB81400  19.762  -1.104   5.310  0.4384 -0.1215 -0.0103
 2128PEP     CB81401  15.693  17.906   9.732  0.2393  0.1854  0.0256
 2128PEP     CB81402  15.623  17.761   9.278 -0.0763  0.2269  0.3509
 2128PEP     CB81403  15.872  17.795   8.964 -0.1063  0.4336 -0.2996
 2128PEP     CB81404  16.307  18.048   8.851  0.1303 -0.0025 -0.2224
 2128PEP     CB81405  16.719  18.232   8.643  0.0498 -0.2463  0.1667
 2128PEP     CB81406  16.727  18.594   8.301 -0.1525 -0.1077 -0.0264
 2128PEP     CB81407  16.397  18.689   8.037 -0.3747 -0.0996  0.0038
 2128PEP     CB81408  16.314  18.438   7.641 -0.4033 -0.0431  0.0803
 2128PEP     CB81409  16.393  18.211   7.218  0.0212  0.1804 -0.1564
 2128PEP     CB81410  16.596  18.026   6.830  0.0316 -0.1529 -0.2268
 2128PEP     CB81411  16.361  17.836   6.425 -0.1136  0.2602  0.4355
 2128PEP     CB81412  16.086  17.638   6.173  0.4389 -0.2324 -0.3431
 2128PEP     CB81413  15.775  17.319   6.012 -0.2078 -0.2646 -0.1557
 2128PEP     CB81414  15.661  17.212   5.513  0.1421 -0.0266 -0.2981
 2128PEP     CB81415  15.939  17.311   5.136 -0.5170  0.0499 -0.0826
 2128PEP     CB81416  16.293  17.233   5.020 -0.1463 -0.1706  0.0792
 2128PEP     CB81417  16.734  17.413   5.212  0.1848  0.0516  0.0425
 2128PEP     CB81418  17.187  17.449   5.399 -0.2501  0.0117  0.3969
 2128PEP     CB81419  17.477  17.288   5.706  0.0701  0.0118  0.0208
 2128PEP     CB81420  17.717  17.129   6.085 -0.0487  0.1584  0.2380
 2128PEP     CB81421  17.776  17.166   6.519 -0.1240 -0.5280 -0.1735
 2128PEP     CB81422  18.052  17.334   6.874  0.3091  0.3322  0.0064
 2128PEP     CB81423  18.276  17.327   7.259  0.2512  0.2271 -0.0398
 2128PEP     CB81424  18.434  17.023   7.430 -0.0672 -0.2423  0.1927
 2128PEP     CB81425  18.604  16.717   7.730  0.2153 -0.2810  0.0006
 2128PEP     CB81426  18.546  16.421   8.110  0.2986 -0.0050  0.2000
 2128PEP     CB81427  18.309  16.356   8.475 -0.0274 -0.1872 -0.1185
 2128PEP     CB81428  17.986  16.354   8.754 -0.0415 -0.2929 -0.1534
 2128PEP     CB81429  17.694  16.479   9.158 -0.1786  0.3730 -0.0736
 2128PEP     CB81430  17.621  16.464   9.603  0.4442  0.2328  0.1501
 2128PEP     CB81431  17.713  16.399  10.047  0.4047  0.2173 -0.2394
 2128PEP     CB81432  17.788  16.248  10.487 -0.3875  0.0636  0.1566
 2128PEP     CB81433  17.915  15.839  10.779 -0.5642 -0.3964 -0.1098
 2128PEP     CB81434  18.084  15.319  10.726  0.2322 -0.0251 -0.4606
 2128PEP     CB81435  18.450  15.132  10.626 -0.4159  0.1408  0.0160
 2128PEP     CB81436  18.813  15.042  10.442 -0.2446  0.2193  0.1420
 2128PEP     CB81437  19.195  15.096  10.034  0.0366 -0.2624  0.0467
 2128PEP     CB81438  19.551  15.395   9.998 -0.0098 -0.0039  0.2569
 2128PEP     CB81439  19.973  15.463  10.050 -0.1423 -0.0382 -0.0509
 2128PEP     CB81440  20.270  15.877  10.075 -0.0519  0.0010 -0.2901
 2129PEP     CB81441   5.547   0.059  15.724 -0.3646 -0.0961  0.1000
 2129PEP     CB81442   5.540  -0.263  16.032 -0.0474  0.1961  0.0594
 2129PEP     CB81443   5.916  -0.620  16.059  0.1280  0.0156  0.1559
 2129PEP     CB81444   6.104  -0.817  15.760 -0.1503  0.0219  0.0325
 2129PEP     CB81445   6.530  -0.930  15.645  0.0067 -0.0822 -0.2693
 2129PEP     CB81446   6.850  -1.214  15.823  0.2400 -0.1754  0.4302
 2129PEP     CB81447   6.718  -1.577  16.045 -0.1242  0.0440  0.3783
 2129PEP     CB81448   6.835  -1.993  16.238  0.4805  0.1489 -0.2341
 2129PEP     CB81449   6.791  -2.376  16.149 -0.2709 -0.1915 -0.3186
 2129PEP     CB81450   6.750  -2.602  15.806  0.1823 -0.2885 -0.0655
 2129PEP     CB81451   6.900  -2.809  15.480 -0.1747 -0.3114  0.1995
 2129PEP     CB81452   6.913  -2.630  15.029  0.1945  0.2163  0.0825
 2129PEP     CB81453   6.546  -2.458  14.845 -0.1578 -0.0431 -0.1133
 2129PEP     CB81454   6.185  -2.331  15.123 -0.6561  0.3822 -0.0059
 2129PEP     CB81455   5.939  -2.611  15.428  0.1166  0.1703  0.0128
 2129PEP     CB81456   5.910  -2.985  15.643  0.1034  0.1319 -0.2456
 2129PEP     CB81457   6.059  -3.111  16.093 -0.2416  0.0662 -0.2974
 2129PEP     CB81458   6.215  -3.048  16.544 -0.3107  0.0743 -0.2368
 2129PEP     CB81459   6.532  -3.140  16.885 -0.1642 -0.0052  0.0348
 2129PEP     CB81460   6.658  -3.401  17.202 -0.0045  0.0203 -0.2894
 2129PEP     CB81461   6.820  -3.645  17.461  0.0910  0.2109  0.3779
 2129PEP     CB81462   7.124  -3.694  17.786  0.2453 -0.1277 -0.0596
 2129PEP     CB81463   7.518  -3.643  18.013 -0.2470 -0.0939 -0.2204
 2129PEP     CB81464   7.718  -3.507  18.344 -0.0200 -0.1352 -0.0263
 2129PEP     CB81465   7.747  -3.078  18.575  0.2433  0.0422 -0.5375
 2129PEP     CB81466   7.934  -2.966  18.932 -0.0708  0.1328 -0.3001
 2129PEP     CB81467   8.114  -3.092  19.216 -0.0973 -0.3650 -0.0751
 2129PEP     CB81468   8.172  -3.085  19.670 -0.1487 -0.3999 -0.2571
 2129PEP     CB81469   8.480  -2.968  19.963 -0.2439  0.1970  0.0100
 2129PEP     CB81470   8.892  -2.894  19.995  0.3327  0.2478 -0.1541
 2129PEP     CB81471   9.384  -2.930  20.049 -0.4861  0.0627  0.1552
 2129PEP     CB81472   9.647  -3.288  20.130  0.2289 -0.2379 -0.1667
 2129PEP     CB81473   9.799  -3.666  19.987 -0.1483  0.2150 -0.0522
 2129PEP     CB81474  10.126  -3.971  20.048 -0.1029  0.0740  0.1760
 2129PEP     CB81475  10.513  -4.159  20.226  0.4052 -0.0404 -0.1176
 2129PEP     CB81476  10.937  -4.041  20.365 -0.3557  0.0371  0.0543
 2129PEP     CB81477  11.318  -3.741  20.101 -0.2058  0.1522  0.0282
 2129PEP     CB81478  11.234  -3.793  19.566 -0.2084 -0.0398  0.0864
 2129PEP     CB81479  11.138  -4.061  19.306 -0.3104 -0.3726  0.2006
 2129PEP     CB81480  10.974  -4.422  19.063  0.3312  0.1034 -0.0584
 2130PEP     CB81481  13.524  16.546   0.687  0.1912  0.3634 -0.0903
 2130PEP     CB81482  13.663  16.192   0.825 -0.2557  0.2757 -0.2562
 2130PEP     CB81483  13.755  15.727   0.853  0.0348 -0.0632 -0.3502
 2130PEP     CB81484  13.716  15.262   0.929  0.0313  0.0212 -0.1023
 2130PEP     CB81485  13.430  14.930   0.891  0.1560  0.0714  0.0855
 2130PEP     CB81486  13.478  14.516   0.899  0.2979 -0.0112 -0.1194
 2130PEP     CB81487  13.455  14.303   0.531 -0.2247  0.0186  0.0629
 2130PEP     CB81488  13.078  14.132   0.331  0.0319 -0.4833  0.1689
 2130PEP     CB81489  12.634  14.206   0.287 -0.1105  0.3576  0.2080
 2130PEP     CB81490  12.387  14.088  -0.032 -0.1827 -0.2414  0.1537
 2130PEP     CB81491  12.123  14.278  -0.322 -0.0351  0.3602  0.3739
 2130PEP     CB81492  12.117  14.688  -0.636 -0.0245 -0.2085 -0.1430
 2130PEP     CB81493  12.352  15.120  -0.678  0.3779  0.0841 -0.0583
 2130PEP     CB81494  12.731  15.422  -0.658 -0.2470  0.0713 -0.1479
 2130PEP     CB81495  13.000  15.837  -0.724 -0.2131 -0.0902 -0.1799
 2130PEP     CB81496  13.054  16.194  -0.948  0.4275 -0.4827 -0.0826
 2130PEP     CB81497  12.951  16.582  -1.194 -0.0067 -0.0244  0.1255
 2130PEP     CB81498  12.759  17.008  -1.300  0.1453 -0.2780 -0.2398
 2130PEP     CB81499  12.730  17.392  -1.275 -0.1331 -0.0010 -0.2816
 2130PEP     CB81500  12.696  17.697  -1.625  0.0733 -0.2443  0.0372
 2130PEP     CB81501  12.700  18.030  -1.838 -0.2146  0.1870  0.0118
 2130PEP     CB81502  12.835  18.386  -1.720  0.3108  0.1720 -0.1277
 2130PEP     CB81503  13.036  18.522  -1.348  0.5039  0.0056  0.0667
 2130PEP     CB81504  13.454  18.586  -1.046  0.1176 -0.1433 -0.2635
 2130PEP     CB81505  13.857  18.603  -1.105 -0.4374 -0.2985 -0.0586
 2130PEP     CB81506  14.112  18.732  -1.430 -0.1353 -0.0751  0.2738
 2130PEP     CB81507  14.174  19.090  -1.662 -0.1423 -0.2005 -0.0171
 2130PEP     CB81508  14.207  19.393  -2.014  0.0255 -0.4293 -0.1821
 2130PEP     CB81509  14.096  19.690  -2.419 -0.1235 -0.2057  0.3568
 2130PEP     CB81510  13.903  20.078  -2.555  0.0634 -0.1014 -0.0731
 2130PEP     CB81511  13.874  20.529  -2.740  0.0762  0.0984  0.4448
 2130PEP     CB81512  13.943  20.998  -2.837 -0.0120  0.2993 -0.1563
 2130PEP     CB81513  14.085  21.451  -2.834  0.5036 -0.0042 -0.1594
 2130PEP     CB81514  14.036  21.824  -2.722  0.0632  0.1128 -0.1233
 2130PEP     CB81515  13.670  22.104  -2.460 -0.2524  0.1306 -0.0815
 2130PEP     CB81516  13.741  22.509  -2.309  0.2252 -0.1459  0.3006
 2130PEP     CB81517  14.140  22.771  -2.225 -0.2030 -0.0941 -0.0431
 2130PEP     CB81518  14.631  22.749  -2.024  0.5254 -0.2568  0.1077
 2130PEP     CB81519  15.007  22.806  -2.124  0.3092 -0.0036 -0.2642
 2130PEP     CB81520  15.390  22.825  -2.312 -0.5897  0.0879 -0.1710
 2131PEP     CB81521   9.484   1.054   5.393 -0.3864 -0.0777 -0.1856
 2131PEP     CB81522   9.344   0.691   5.310 -0.0413 -0.1363  0.2162
 2131PEP     CB81523   9.396   0.293   5.157  0.2304 -0.5300  0.2001
 2131PEP     CB81524   9.519  -0.048   5.261 -0.1205 -0.1818 -0.0398
 2131PEP     CB81525   9.595  -0.435   5.621 -0.2662  0.0534 -0.1559
 2131PEP     CB81526   9.672  -0.534   6.006 -0.0490  0.1664  0.1934
 2131PEP     CB81527   9.416  -0.415   6.395 -0.1356 -0.0382 -0.1954
 2131PEP     CB81528   9.388  -0.326   6.789  0.0454  0.1129  0.1748
 2131PEP     CB81529   9.360  -0.589   7.120 -0.3053 -0.0767  0.1443
 2131PEP     CB81530   9.246  -0.953   7.159 -0.1139 -0.2216 -0.4480
 2131PEP     CB81531   8.851  -1.082   7.259  0.1255 -0.0864  0.1402
 2131PEP     CB81532   8.512  -0.873   7.130  0.1190  0.1266 -0.1122
 2131PEP     CB81533   8.568  -0.580   6.734  0.2735  0.0847 -0.1074
 2131PEP     CB81534   8.554  -0.207   6.601 -0.0441 -0.0211 -0.0515
 2131PEP     CB81535   8.705   0.136   6.750  0.0688 -0.0633  0.1588
 2131PEP     CB81536   8.857   0.524   6.799  0.1636 -0.3925  0.0409
 2131PEP     CB81537   8.950   0.930   7.051 -0.1281 -0.3810  0.0978
 2131PEP     CB81538   8.741   1.322   7.093  0.4017 -0.0123 -0.0389
 2131PEP     CB81539   8.927   1.778   7.001 -0.0713  0.1954  0.1923
 2131PEP     CB81540   9.295   1.880   6.793  0.3162 -0.3736 -0.1120
 2131PEP     CB81541   9.394   1.987   6.311 -0.1487  0.0530 -0.0827
 2131PEP     CB81542   9.273   2.060   5.893 -0.0902  0.0459 -0.5157
 2131PEP     CB81543   9.472   2.360   5.592  0.0704 -0.1811  0.0021
 2131PEP     CB81544   9.727   2.751   5.598  0.0190  0.2363  0.5222
 2131PEP     CB81545   9.868   2.931   5.968 -0.0305 -0.2896 -0.1517
 2131PEP     CB81546  10.047   3.160   6.301 -0.1908  0.2399  0.5129
 2131PEP     CB81547  10.154   3.650   6.301  0.5597  0.0254  0.4461
 2131PEP     CB81548   9.700   3.961   6.330 -0.0941  0.1112 -0.1197
 2131PEP     CB81549   9.377   4.108   5.988  0.1075  0.1276  0.0468
 2131PEP     CB81550   9.302   4.174   5.552  0.0696  0.1064 -0.0139
 2131PEP     CB81551   9.236   4.121   5.085 -0.0394 -0.1110  0.0262
 2131PEP     CB81552   9.137   4.165   4.638 -0.2709 -0.0645  0.0160
 2131PEP     CB81553   8.897   3.984   4.346  0.1591 -0.1300 -0.2187
 2131PEP     CB81554   8.916   3.636   4.154 -0.0636 -0.0394 -0.2407
 2131PEP     CB81555   9.258   3.411   4.119 -0.4399  0.2071 -0.2009
 2131PEP     CB81556   9.592   3.548   3.798 -0.0583 -0.3619 -0.2446
 2131PEP     CB81557   9.442   3.775   3.521 -0.0253  0.3641  0.2574
 2131PEP     CB81558   9.235   4.235   3.410  0.0335 -0.1179 -0.2919
 2131PEP     CB81559   9.358   4.631   3.221  0.0035 -0.2851  0.2733
 2131PEP     CB81560   9.447   4.923   2.883 -0.0692 -0.0178  0.2980
 2132PEP     CB81561   5.939  19.037   5.456 -0.3619 -0.0479 -0.0014
 2132PEP     CB81562   5.565  19.192   5.634  0.4724  0.1228  0.1893
 2132PEP     CB81563   5.414  19.603   5.852  0.1503 -0.0988 -0.0552
 2132PEP     CB81564   5.058  19.766   5.886 -0.3692 -0.0500  0.0533
 2132PEP     CB81565   4.643  19.563   5.757 -0.1501 -0.0565 -0.1004
 2132PEP     CB81566   4.305  19.451   5.506 -0.2057  0.2134 -0.5030
 2132PEP     CB81567   4.190  19.040   5.381  0.1275 -0.0518  0.0335
 2132PEP     CB81568   4.404  18.697   5.460 -0.1525 -0.0049  0.0878
 2132PEP     CB81569   4.750  18.628   5.697 -0.0879  0.3105  0.1888
 2132PEP     CB81570   5.165  18.680   5.602 -0.1265 -0.3461  0.1028
 2132PEP     CB81571   5.585  18.585   5.415 -0.2661  0.4027 -0.0358
 2132PEP     CB81572   5.807  18.644   5.154  0.1606  0.0432  0.2001
 2132PEP     CB81573   5.854  18.776   4.631 -0.5199 -0.2768 -0.0019
 2132PEP     CB81574   5.609  18.843   4.234 -0.3763  0.3278 -0.3065
 2132PEP     CB81575   5.524  18.845   3.801  0.1834  0.2527 -0.1481
 2132PEP     CB81576   5.466  18.791   3.395  0.1897  0.2472  0.3972
 2132PEP     CB81577   5.315  19.015   2.937  0.0847  0.2912 -0.1727
 2132PEP     CB81578   5.394  19.334   2.599  0.1889  0.2578 -0.0362
 2132PEP     CB81579   5.397  19.775   2.274 -0.3958 -0.0189 -0.2270
 2132PEP     CB81580   5.400  20.121   2.120  0.0785 -0.2384 -0.5070
 2132PEP     CB81581   5.548  20.537   2.314 -0.5875 -0.0922 -0.3246
 2132PEP     CB81582   5.546  20.580   2.833 -0.5744  0.1026 -0.1201
 2132PEP     CB81583   5.281  20.452   3.139  0.1036  0.6050  0.0631
 2132PEP     CB81584   4.963  20.143   3.391  0.4039 -0.0116 -0.0325
 2132PEP     CB81585   4.649  20.105   3.561  0.2890 -0.2945 -0.1446
 2132PEP     CB81586   4.333  20.321   3.748  0.4106 -0.1272 -0.3657
 2132PEP     CB81587   4.496  20.726   3.851 -0.1609 -0.4625 -0.2376
 2132PEP     CB81588   4.872  20.940   4.009 -0.2322 -0.1396 -0.1081
 2132PEP     CB81589   5.024  21.331   4.086  0.1303  0.1812  0.2548
 2132PEP     CB81590   5.036  21.764   3.970  0.2550  0.1795  0.0114
 2132PEP     CB81591   5.315  22.119   4.038 -0.2450 -0.4831  0.0626
 2132PEP     CB81592   5.698  22.181   3.987 -0.0890  0.0560  0.3229
 2132PEP     CB81593   6.008  21.843   3.807  0.0195  0.2167  0.1203
 2132PEP     CB81594   5.955  21.422   3.907 -0.3480  0.2093  0.0715
 2132PEP     CB81595   6.174  21.024   3.817 -0.1724 -0.1044 -0.1990
 2132PEP     CB81596   6.031  20.669   3.558  0.2134  0.0607 -0.0639
 2132PEP     CB81597   5.991  20.591   3.119 -0.4038 -0.0952 -0.2550
 2132PEP     CB81598   6.049  20.605   2.742 -0.1224 -0.1890  0.1815
 2132PEP     CB81599   6.234  20.355   2.393 -0.0214 -0.0071 -0.0878
 2132PEP     CB81600   6.527  20.028   2.328  0.2639 -0.2407 -0.1605
 2133PEP     CB81601  21.456  19.743  10.089  0.3424 -0.1672  0.0092
 2133PEP     CB81602  21.865  19.839   9.846 -0.3482 -0.3633 -0.5581
 2133PEP     CB81603  22.309  19.923   9.702  0.4910  0.0563  0.0902
 2133PEP     CB81604  22.455  19.944   9.338 -0.0699 -0.0102 -0.0187
 2133PEP     CB81605  22.136  19.794   8.991 -0.1833 -0.2606 -0.0320
 2133PEP     CB81606  21.854  20.039   8.816 -0.0614  0.1305 -0.1068
 2133PEP     CB81607  21.745  20.286   8.570  0.0926 -0.1175 -0.1801
 2133PEP     CB81608  21.431  20.367   8.191 -0.0666  0.1134 -0.0917
 2133PEP     CB81609  21.106  20.143   8.181 -0.0565 -0.1190 -0.2287
 2133PEP     CB81610  20.927  19.777   8.293 -0.1237  0.0498  0.1435
 2133PEP     CB81611  20.935  19.317   8.352  0.2738 -0.2739 -0.0510
 2133PEP     CB81612  20.988  18.902   8.437 -0.1320  0.0576 -0.1747
 2133PEP     CB81613  21.373  18.591   8.382 -0.0870 -0.1199 -0.0799
 2133PEP     CB81614  21.720  18.377   8.334  0.1122 -0.0797  0.1806
 2133PEP     CB81615  22.037  18.117   8.207  0.0645  0.3257 -0.0708
 2133PEP     CB81616  22.515  18.089   8.202 -0.0614  0.1074  0.3646
 2133PEP     CB81617  22.881  18.280   8.262 -0.0973 -0.1800  0.0469
 2133PEP     CB81618  23.138  18.599   8.404  0.3983 -0.1103  0.0941
 2133PEP     CB81619  23.336  18.628   8.839 -0.0072 -0.1928 -0.5286
 2133PEP     CB81620  23.333  18.287   9.076 -0.2720  0.2176  0.0190
 2133PEP     CB81621  23.343  17.939   9.451 -0.2186 -0.1113  0.0608
 2133PEP     CB81622  23.302  17.997   9.903 -0.2883  0.0978  0.0788
 2133PEP     CB81623  23.363  17.954  10.267 -0.2651  0.2590  0.1751
 2133PEP     CB81624  23.648  18.063  10.678 -0.0751 -0.3046  0.4760
 2133PEP     CB81625  23.729  18.378  10.921 -0.0654  0.0418  0.0796
 2133PEP     CB81626  23.936  18.662  11.201 -0.0297  0.2874  0.0252
 2133PEP     CB81627  24.257  18.981  11.298 -0.0173 -0.1438 -0.3236
 2133PEP     CB81628  24.643  19.127  11.371  0.2907  0.2007  0.0612
 2133PEP     CB81629  24.877  19.169  11.767 -0.0023  0.1324 -0.0761
 2133PEP     CB81630  24.757  19.423  12.108  0.0453  0.1200 -0.0237
 2133PEP     CB81631  24.573  19.796  12.034  0.1521 -0.0867 -0.1234
 2133PEP     CB81632  24.354  19.822  11.785 -0.1779 -0.4788 -0.0317
 2133PEP     CB81633  23.923  19.806  11.704 -0.2033 -0.0570 -0.0729
 2133PEP     CB81634  23.532  19.921  11.847 -0.2057  0.0611 -0.0672
 2133PEP     CB81635  23.090  19.886  11.647  0.1280 -0.0477  0.2466
 2133PEP     CB81636  22.813  19.904  11.368 -0.1332  0.0897 -0.3243
 2133PEP     CB81637  22.467  19.701  11.296  0.3568 -0.0216 -0.0940
 2133PEP     CB81638  21.965  19.524  11.085 -0.0246 -0.5965  0.1077
 2133PEP     CB81639  21.746  19.123  11.008  0.0254  0.0214 -0.0555
 2133PEP     CB81640  21.522  18.874  10.776  0.4786  0.4166  0.4255
 2134PEP     CB81641   6.621   5.539   2.120  0.2443 -0.2537 -0.0746
 2134PEP     CB81642   6.599   5.530   1.701 -0.3371  0.1140 -0.0678
 2134PEP     CB81643   6.575   5.458   1.229 -0.1466 -0.3168 -0.1548
 2134PEP     CB81644   6.465   5.289   0.860  0.1548  0.0653 -0.2399
 2134PEP     CB81645   6.625   4.874   0.554  0.2528  0.1118 -0.1331
 2134PEP     CB81646   7.117   4.682   0.557  0.0036 -0.0702  0.0174
 2134PEP     CB81647   7.528   4.855   0.696  0.3489 -0.1359  0.2312
 2134PEP     CB81648   7.679   5.027   1.070 -0.0073  0.0769 -0.0962
 2134PEP     CB81649   7.664   4.973   1.515  0.0335  0.1797 -0.1540
 2134PEP     CB81650   7.638   4.646   1.756  0.2360  0.0709 -0.2397
 2134PEP     CB81651   7.434   4.313   1.990 -0.2838  0.0518  0.1210
 2134PEP     CB81652   7.082   4.168   2.124 -0.0624  0.0299 -0.0813
 2134PEP     CB81653   6.723   4.194   2.351  0.3899  0.2748 -0.4940
 2134PEP     CB81654   6.755   4.429   2.661  0.1798  0.1021 -0.2360
 2134PEP     CB81655   6.790   4.360   3.155  0.1858 -0.2171  0.0082
 2134PEP     CB81656   6.730   4.077   3.531 -0.2589  0.2422  0.0441
 2134PEP     CB81657   6.682   3.701   3.802  0.2417  0.2492  0.1663
 2134PEP     CB81658   6.877   3.468   4.121  0.0064 -0.2619 -0.1096
 2134PEP     CB81659   7.012   3.417   4.549  0.1329 -0.0691 -0.4807
 2134PEP     CB81660   7.085   3.341   5.061  0.2031  0.3371  0.0442
 2134PEP     CB81661   7.165   3.214   5.450 -0.0470 -0.0364 -0.0371
 2134PEP     CB81662   7.299   3.238   5.881  0.1235 -0.3240  1.0568
 2134PEP     CB81663   7.273   2.945   6.174  0.0113  0.2650 -0.3029
 2134PEP     CB81664   6.953   2.579   6.073  0.2719  0.3698  0.0057
 2134PEP     CB81665   6.729   2.469   5.748  0.0675 -0.1093 -0.1298
 2134PEP     CB81666   6.523   2.149   5.573  0.0653 -0.1870  0.0461
 2134PEP     CB81667   6.658   1.702   5.540 -0.0681 -0.0789  0.0349
 2134PEP     CB81668   7.018   1.488   5.735  0.0882 -0.0503  0.0167
 2134PEP     CB81669   7.303   1.224   5.824  0.0485 -0.0291 -0.2133
 2134PEP     CB81670   7.336   0.813   5.872  0.2393 -0.1815  0.1014
 2134PEP     CB81671   7.481   0.414   5.619 -0.1985  0.6724  0.1504
 2134PEP     CB81672   7.799   0.188   5.446  0.0562  0.0116 -0.0925
 2134PEP     CB81673   8.146  -0.066   5.218  0.2783 -0.2120 -0.1906
 2134PEP     CB81674   8.507  -0.122   4.888 -0.1841 -0.1339 -0.1379
 2134PEP     CB81675   8.528  -0.133   4.526  0.3509  0.1430 -0.3450
 2134PEP     CB81676   8.594  -0.328   4.148 -0.0341  0.0119  0.1129
 2134PEP     CB81677   8.538  -0.183   3.720  0.0310  0.4524 -0.1064
 2134PEP     CB81678   8.203   0.046   3.555  0.3618  0.0453 -0.3443
 2134PEP     CB81679   7.905   0.257   3.820 -0.1779  0.0141 -0.0061
 2134PEP     CB81680   7.736   0.741   3.919  0.1272 -0.3027 -0.2280
 2135PEP     CB81681  17.013   4.879  19.779  0.2030  0.0733 -0.0819
 2135PEP     CB81682  17.344   5.104  19.701  0.2056 -0.2821  0.0793
 2135PEP     CB81683  17.507   5.519  19.591 -0.1646 -0.2917 -0.2942
 2135PEP     CB81684  17.585   6.020  19.722  0.1459  0.1321  0.1476
 2135PEP     CB81685  17.601   6.414  19.654 -0.1039  0.2138  0.1665
 2135PEP     CB81686  17.700   6.903  19.729  0.3362  0.2206  0.2143
 2135PEP     CB81687  17.703   7.316  19.622  0.2214 -0.2267  0.4794
 2135PEP     CB81688  17.534   7.759  19.564  0.0358  0.2060  0.1470
 2135PEP     CB81689  17.264   7.922  19.555 -0.0463  0.3873  0.1290
 2135PEP     CB81690  16.923   8.086  19.790 -0.2270 -0.0188  0.1827
 2135PEP     CB81691  17.012   8.383  20.140  0.0020 -0.1444  0.2057
 2135PEP     CB81692  17.439   8.696  20.126  0.0077  0.0836 -0.2526
 2135PEP     CB81693  17.687   8.911  19.766 -0.0268 -0.0604  0.0435
 2135PEP     CB81694  17.599   8.852  19.313 -0.1281  0.1002  0.2114
 2135PEP     CB81695  17.726   8.667  18.910 -0.2904 -0.0505 -0.2759
 2135PEP     CB81696  17.696   8.349  18.726 -0.0472 -0.4940 -0.2056
 2135PEP     CB81697  17.584   7.992  18.508 -0.3179 -0.1288  0.1209
 2135PEP     CB81698  17.406   7.594  18.333 -0.1575  0.0743  0.2422
 2135PEP     CB81699  16.954   7.401  18.368 -0.4385  0.0228  0.3295
 2135PEP     CB81700  16.609   7.251  18.335 -0.2471 -0.1493  0.2282
 2135PEP     CB81701  16.198   7.351  18.079  0.2107  0.0911 -0.1407
 2135PEP     CB81702  16.011   7.231  17.716 -0.1517 -0.1884  0.0386
 2135PEP     CB81703  16.054   6.953  17.395  0.1308  0.0425 -0.1522
 2135PEP     CB81704  16.264   6.592  17.206  0.4011  0.1857 -0.0050
 2135PEP     CB81705  16.730   6.700  16.990 -0.1078  0.0904 -0.4516
 2135PEP     CB81706  16.987   6.967  17.106 -0.1441  0.0279  0.0384
 2135PEP     CB81707  16.893   7.325  17.317 -0.1277  0.2395  0.5428
 2135PEP     CB81708  16.714   7.702  17.299  0.0242 -0.1114  0.1068
 2135PEP     CB81709  16.530   8.094  17.095  0.3045  0.1694  0.0194
 2135PEP     CB81710  16.394   8.334  16.688  0.1207  0.3417  0.1061
 2135PEP     CB81711  16.045   8.281  16.418 -0.0078  0.1699  0.0609
 2135PEP     CB81712  15.622   8.400  16.313  0.0408  0.0531  0.0918
 2135PEP     CB81713  15.209   8.483  16.407  0.0656 -0.0108  0.2246
 2135PEP     CB81714  14.710   8.284  16.510 -0.0252 -0.4155 -0.0815
 2135PEP     CB81715  14.298   8.209  16.677 -0.2540 -0.3121  0.6578
 2135PEP     CB81716  13.988   8.033  16.785  0.0210  0.2231 -0.0259
 2135PEP     CB81717  13.561   8.116  17.006 -0.1068 -0.1003 -0.3637
 2135PEP     CB81718  13.394   8.167  17.331  0.2725  0.1587  0.0813
 2135PEP     CB81719  13.110   7.987  17.540  0.0917 -0.2191  0.0175
 2135PEP     CB81720  12.767   8.012  17.908 -0.0146 -0.0542  0.1552
 2136PEP     CB81721  10.890  21.175  18.965 -0.1244  0.3532  0.2690
 2136PEP     CB81722  10.526  21.442  18.960  0.2210  0.1250 -0.0698
 2136PEP     CB81723  10.181  21.553  19.380  0.2915  0.2401 -0.0869
 2136PEP     CB81724   9.865  21.411  19.762  0.1339 -0.0880  0.1294
 2136PEP     CB81725   9.600  20.956  19.865 -0.1375  0.1489  0.0514
 2136PEP     CB81726   9.526  20.617  19.472  0.0464  0.1945  0.1134
 2136PEP     CB81727   9.756  20.505  19.036  0.1059  0.2314  0.0948
 2136PEP     CB81728   9.827  20.682  18.711 -0.3216  0.3281  0.6230
 2136PEP     CB81729   9.890  21.114  18.380 -0.2839  0.3581 -0.2992
 2136PEP     CB81730   9.619  21.363  18.254  0.0158  0.1263  0.0471
 2136PEP     CB81731   9.327  21.655  18.367 -0.1478  0.5748  0.0200
 2136PEP     CB81732   9.372  22.092  18.509 -0.1979  0.1708  0.0266
 2136PEP     CB81733   9.732  22.324  18.280 -0.3410  0.1372 -0.5581
 2136PEP     CB81734  10.088  22.387  18.112  0.0229 -0.3946 -0.3837
 2136PEP     CB81735  10.531  22.615  17.985 -0.0344 -0.1122 -0.1138
 2136PEP     CB81736  10.636  23.137  17.826 -0.3095 -0.1069 -0.1654
 2136PEP     CB81737  10.367  23.441  17.878 -0.1656  0.0153 -0.1331
 2136PEP     CB81738  10.050  23.691  17.798 -0.1730 -0.2453  0.1705
 2136PEP     CB81739   9.743  24.031  17.721 -0.2360 -0.1997 -0.1359
 2136PEP     CB81740   9.350  24.365  17.765 -0.1044  0.4048  0.2427
 2136PEP     CB81741   9.005  24.611  17.883  0.2328 -0.2166 -0.3570
 2136PEP     CB81742   8.768  24.781  18.175 -0.1782  0.1442  0.3935
 2136PEP     CB81743   8.410  24.730  18.320  0.1901 -0.6013 -0.3043
 2136PEP     CB81744   8.181  24.742  18.598  0.0363 -0.0373  0.5617
 2136PEP     CB81745   8.298  24.835  19.028 -0.1818  0.4056 -0.0863
 2136PEP     CB81746   8.242  25.053  19.354 -0.0221  0.0391  0.3494
 2136PEP     CB81747   7.971  25.409  19.618 -0.3767 -0.0061 -0.3667
 2136PEP     CB81748   7.586  25.733  19.719  0.2812 -0.2348 -0.3823
 2136PEP     CB81749   7.264  26.019  19.533 -0.0308 -0.0174  0.2407
 2136PEP     CB81750   6.858  26.072  19.483  0.1697 -0.3325 -0.0805
 2136PEP     CB81751   6.453  26.149  19.458 -0.4328  0.1183 -0.3523
 2136PEP     CB81752   6.062  26.237  19.703 -0.4572  0.0050  0.0033
 2136PEP     CB81753   5.828  26.385  20.129 -0.3705  0.7588 -0.3156
 2136PEP     CB81754   5.802  26.535  20.486 -0.2321  0.1591 -0.1704
 2136PEP     CB81755   5.996  26.840  20.672  0.0488 -0.0479  0.0984
 2136PEP     CB81756   6.351  27.039  20.487  0.0296 -0.4379  0.2213
 2136PEP     CB81757   6.651  26.730  20.280  0.0780  0.4685 -0.5172
 2136PEP     CB81758   6.898  26.375  20.474  0.0773  0.0470  0.0549
 2136PEP     CB81759   7.253  26.114  20.651 -0.1246 -0.1502  0.3669
 2136PEP     CB81760   7.647  26.032  20.837 -0.1451  0.0388  0.3905
 2137PEP     CB81761  10.676  20.268   8.154 -0.0578 -0.0204  0.0382
 2137PEP     CB81762  10.840  19.867   8.000  0.3509  0.1638  0.3642
 2137PEP     CB81763  10.865  19.442   7.904  0.3706 -0.1116 -0.0627
 2137PEP     CB81764  11.037  19.035   7.713 -0.4467  0.2097 -0.0026
 2137PEP     CB81765  11.258  18.694   7.977  0.2646 -0.0568 -0.0077
 2137PEP     CB81766  11.274  18.675   8.439  0.0903  0.1777  0.0230
 2137PEP     CB81767  10.911  18.993   8.669  0.0752  0.0394  0.1209
 2137PEP     CB81768  10.581  19.374   8.820 -0.2129 -0.0216 -0.1426
 2137PEP     CB81769  10.183  19.660   8.701 -0.3635  0.0760  0.2084
 2137PEP     CB81770  10.013  20.060   8.750 -0.0595 -0.3996  0.0411
 2137PEP     CB81771   9.967  20.562   8.750 -0.0515  0.2483  0.2502
 2137PEP     CB81772  10.067  21.002   8.758 -0.0708 -0.1093 -0.2124
 2137PEP     CB81773  10.318  21.255   8.618  0.2078 -0.0475  0.0690
 2137PEP     CB81774  10.402  21.642   8.415 -0.0481  0.0758  0.2817
 2137PEP     CB81775  10.704  21.890   8.374  0.0913 -0.2075 -0.2129
 2137PEP     CB81776  11.115  22.070   8.474 -0.2580 -0.0519  0.1110
 2137PEP     CB81777  11.443  22.397   8.423  0.3039 -0.3802 -0.0104
 2137PEP     CB81778  11.456  22.774   8.522 -0.0293  0.1119 -0.0802
 2137PEP     CB81779  11.358  23.218   8.522 -0.1854  0.3209 -0.1316
 2137PEP     CB81780  11.468  23.656   8.838 -0.3686 -0.0252  0.0636
 2137PEP     CB81781  11.884  23.650   9.115  0.3472  0.0346  0.2238
 2137PEP     CB81782  11.917  23.285   9.150 -0.3217 -0.1749 -0.1802
 2137PEP     CB81783  12.120  22.904   9.005  0.0658 -0.2796  0.1844
 2137PEP     CB81784  12.216  22.474   8.986 -0.2157  0.1493  0.0269
 2137PEP     CB81785  12.435  22.127   8.856  0.1509  0.2652 -0.2073
 2137PEP     CB81786  12.754  21.932   8.974 -0.3629  0.5772 -0.2490
 2137PEP     CB81787  12.795  21.567   9.198 -0.1432 -0.2654 -0.3374
 2137PEP     CB81788  12.670  21.170   9.239  0.1459  0.0871  0.2026
 2137PEP     CB81789  12.326  21.015   9.073 -0.1703  0.3780  0.3172
 2137PEP     CB81790  11.863  21.077   9.139  0.0218  0.0746 -0.0865
 2137PEP     CB81791  11.421  21.044   9.331 -0.0963 -0.0612  0.0376
 2137PEP     CB81792  10.980  20.719   9.312  0.3365  0.2805 -0.0952
 2137PEP     CB81793  10.929  20.323   9.239  0.3072 -0.0385 -0.1180
 2137PEP     CB81794  11.107  19.952   9.507 -0.3725  0.0023 -0.1395
 2137PEP     CB81795  10.984  19.578   9.665  0.1067  0.2300 -0.1896
 2137PEP     CB81796  10.852  19.196   9.891  0.0628  0.0928  0.0028
 2137PEP     CB81797  10.833  19.113  10.339  0.0629 -0.2027  0.3351
 2137PEP     CB81798  10.847  19.106  10.838 -0.0854 -0.1118 -0.0826
 2137PEP     CB81799  11.119  18.970  11.118 -0.1808  0.0556 -0.2989
 2137PEP     CB81800  11.219  19.017  11.504 -0.3932 -0.1732  0.2145
 2138PEP     CB81801  16.236  18.645  14.538 -0.1016  0.1964  0.3988
 2138PEP     CB81802  15.956  18.860  14.743  0.2811 -0.2106 -0.0160
 2138PEP     CB81803  15.803  18.950  15.162 -0.1876  0.0880  0.4098
 2138PEP     CB81804  15.936  19.077  15.577  0.2009  0.1445  0.1152
 2138PEP     CB81805  15.977  19.381  15.894  0.0908 -0.0060  0.1288
 2138PEP     CB81806  15.870  19.623  16.232 -0.1975 -0.2701  0.0230
 2138PEP     CB81807  16.027  19.932  16.556  0.1495  0.5973  0.1990
 2138PEP     CB81808  16.417  19.892  16.794 -0.2739 -0.5142 -0.1685
 2138PEP     CB81809  16.522  19.512  17.092 -0.0549  0.1859  0.2892
 2138PEP     CB81810  16.323  19.223  17.241  0.0377 -0.0114  0.0290
 2138PEP     CB81811  16.005  18.933  17.122 -0.2212  0.0437 -0.1875
 2138PEP     CB81812  15.605  18.950  17.027  0.0089  0.1390  0.2439
 2138PEP     CB81813  15.119  18.923  17.036  0.2348 -0.0849 -0.0486
 2138PEP     CB81814  14.751  18.729  17.270  0.2441  0.1773 -0.1786
 2138PEP     CB81815  14.364  18.782  17.433  0.3594  0.4461 -0.0965
 2138PEP     CB81816  14.143  19.112  17.639  0.2323  0.3948  0.1770
 2138PEP     CB81817  13.933  19.406  17.422 -0.0728  0.2725  0.1212
 2138PEP     CB81818  13.662  19.710  17.431  0.0308 -0.1442 -0.5752
 2138PEP     CB81819  13.349  19.988  17.400 -0.4595  0.0066 -0.0377
 2138PEP     CB81820  13.009  20.206  17.582  0.4579  0.0437 -0.2897
 2138PEP     CB81821  12.832  20.650  17.783 -0.0625 -0.0563  0.0511
 2138PEP     CB81822  12.828  21.071  17.632 -0.1946 -0.0762  0.1371
 2138PEP     CB81823  12.720  21.400  17.756 -0.3872  0.0298  0.3047
 2138PEP     CB81824  12.469  21.640  17.631  0.0592 -0.3954  0.1443
 2138PEP     CB81825  12.030  21.790  17.376  0.1179  0.3278 -0.0237
 2138PEP     CB81826  11.592  21.859  17.308  0.2539  0.6058 -0.0413
 2138PEP     CB81827  11.214  22.168  17.319 -0.1070 -0.2463  0.1278
 2138PEP     CB81828  11.204  22.635  17.265 -0.1548 -0.2212  0.0069
 2138PEP     CB81829  11.538  22.821  17.103 -0.0876  0.0845 -0.0244
 2138PEP     CB81830  12.006  22.607  16.984  0.1783  0.2929 -0.4121
 2138PEP     CB81831  12.480  22.680  16.943  0.0763 -0.0587  0.0790
 2138PEP     CB81832  12.846  22.530  17.282 -0.0285  0.0207  0.0797
 2138PEP     CB81833  12.961  22.234  17.573 -0.0994 -0.1504 -0.0234
 2138PEP     CB81834  13.042  21.895  17.881 -0.1280  0.7681 -0.1294
 2138PEP     CB81835  13.188  21.460  18.025 -0.0276 -0.0294  0.0807
 2138PEP     CB81836  13.046  20.993  18.142  0.1523  0.1576 -0.3118
 2138PEP     CB81837  13.205  20.687  18.424 -0.1845  0.3244 -0.0515
 2138PEP     CB81838  13.587  20.699  18.560 -0.1274  0.2361 -0.2333
 2138PEP     CB81839  13.681  21.020  18.801 -0.1463  0.7966 -0.2440
 2138PEP     CB81840  13.700  21.473  18.822 -0.1416 -0.3926 -0.2912
 2139PEP     CB81841   3.635  19.101  12.994  0.1617  0.1768  0.1293
 2139PEP     CB81842   3.637  19.594  12.920 -0.0328  0.4907  0.0942
 2139PEP     CB81843   3.508  19.931  13.112  0.2779  0.2249  0.1431
 2139PEP     CB81844   3.322  20.156  13.406 -0.0287 -0.2531 -0.0992
 2139PEP     CB81845   3.333  20.645  13.572 -0.0704  0.2351  0.3022
 2139PEP     CB81846   3.651  20.974  13.758 -0.5356 -0.0718 -0.0128
 2139PEP     CB81847   3.670  21.396  13.786  0.2022  0.5738 -0.1866
 2139PEP     CB81848   3.793  21.797  13.888 -0.0579  0.1904  0.2724
 2139PEP     CB81849   3.688  22.094  14.174 -0.0938  0.0620 -0.2885
 2139PEP     CB81850   3.472  22.378  14.438  0.0502  0.0342  0.1356
 2139PEP     CB81851   3.340  22.714  14.697  0.2251 -0.6789  0.0353
 2139PEP     CB81852   3.067  23.023  14.730 -0.2048  0.2313  0.4257
 2139PEP     CB81853   2.936  23.225  15.011 -0.1451  0.0921  0.2418
 2139PEP     CB81854   2.886  23.555  15.336 -0.0670  0.1142  0.0448
 2139PEP     CB81855   2.723  23.580  15.712  0.2058 -0.2122 -0.2748
 2139PEP     CB81856   2.318  23.394  15.924 -0.2746 -0.0650  0.4337
 2139PEP     CB81857   2.323  23.226  16.335 -0.2218 -0.2366 -0.0198
 2139PEP     CB81858   2.316  23.138  16.750 -0.1091  0.1268 -0.2855
 2139PEP     CB81859   2.456  22.921  17.200  0.1896  0.0240  0.0597
 2139PEP     CB81860   2.421  22.603  17.472 -0.6179  0.0700  0.0907
 2139PEP     CB81861   2.176  22.490  17.869 -0.1383  0.0996  0.0206
 2139PEP     CB81862   2.105  22.460  18.282  0.0517  0.1379  0.2362
 2139PEP     CB81863   1.905  22.598  18.693  0.2248  0.1764 -0.3973
 2139PEP     CB81864   1.631  22.836  18.890  0.0490  0.2353  0.6067
 2139PEP     CB81865   1.302  23.065  19.067 -0.2374  0.2733 -0.0009
 2139PEP     CB81866   1.008  23.343  19.224 -0.2192 -0.1513 -0.3276
 2139PEP     CB81867   0.966  23.691  19.515  0.0390 -0.0428  0.1326
 2139PEP     CB81868   1.307  23.929  19.604 -0.1741  0.4241 -0.1779
 2139PEP     CB81869   1.620  23.847  19.290 -0.2145  0.1918  0.3116
 2139PEP     CB81870   1.806  23.948  18.899  0.0957  0.4027  0.0397
 2139PEP     CB81871   1.730  24.115  18.500 -0.2581 -0.1285  0.2770
 2139PEP     CB81872   1.576  24.383  18.353 -0.1079 -0.0864  0.1858
 2139PEP     CB81873   1.205  24.660  18.340  0.1711 -0.1211  0.4745
 2139PEP     CB81874   1.083  24.781  18.652  0.0135 -0.1501 -0.2742
 2139PEP     CB81875   1.289  24.587  18.936 -0.2336 -0.1806  0.4269
 2139PEP     CB81876   1.663  24.454  18.972  0.2245 -0.0483 -0.1902
 2139PEP     CB81877   2.164  24.499  19.101  0.1355  0.1032 -0.2136
 2139PEP     CB81878   2.550  24.476  19.145  0.7222  0.0669  0.0694
 2139PEP     CB81879   2.897  24.551  19.446 -0.0578  0.1967 -0.2830
 2139PEP     CB81880   2.980  24.866  19.812 -0.1438  0.1343 -0.1428
 2140PEP     CB81881   3.268  15.010  11.017  0.1117 -0.1855  0.2878
 2140PEP     CB81882   3.124  15.370  11.185  0.1150 -0.1376 -0.0668
 2140PEP     CB81883   3.269  15.609  11.563  0.0575  0.1028 -0.0598
 2140PEP     CB81884   3.466  16.013  11.677  0.0099 -0.0318  0.3659
 2140PEP     CB81885   3.820  16.214  11.582  0.2781  0.0238 -0.0122
 2140PEP     CB81886   4.183  16.334  11.911  0.4961  0.0965 -0.2954
 2140PEP     CB81887   4.107  16.139  12.410 -0.0312  0.2241  0.1208
 2140PEP     CB81888   4.057  15.649  12.464  0.4250 -0.0026 -0.2443
 2140PEP     CB81889   4.380  15.378  12.377 -0.1781  0.1165  0.1428
 2140PEP     CB81890   4.684  15.435  12.231 -0.1580 -0.0638 -0.3621
 2140PEP     CB81891   4.883  15.737  11.883  0.0073 -0.0578 -0.4473
 2140PEP     CB81892   5.001  15.937  11.473  0.2567 -0.1152  0.1587
 2140PEP     CB81893   4.828  16.089  11.065  0.1002 -0.0069 -0.1002
 2140PEP     CB81894   4.351  16.143  10.929 -0.2997  0.1684  0.3390
 2140PEP     CB81895   3.952  16.365  11.114  0.5183 -0.2796 -0.3773
 2140PEP     CB81896   3.651  16.643  11.266 -0.1683  0.3445 -0.4223
 2140PEP     CB81897   3.474  16.790  11.682  0.4164  0.1615 -0.0850
 2140PEP     CB81898   3.392  17.021  12.018 -0.1335  0.2828 -0.5979
 2140PEP     CB81899   3.456  17.116  12.387 -0.1487  0.0715  0.0425
 2140PEP     CB81900   3.203  17.068  12.748 -0.0163  0.0091 -0.1646
 2140PEP     CB81901   2.967  16.897  13.081  0.0613  0.1180  0.1272
 2140PEP     CB81902   2.806  16.492  13.236 -0.1887 -0.0763 -0.5224
 2140PEP     CB81903   2.464  16.475  13.472 -0.1567  0.0197 -0.0639
 2140PEP     CB81904   2.357  16.662  13.866  0.2814 -0.0367 -0.3955
 2140PEP     CB81905   2.051  16.956  14.104  0.1530  0.1888  0.3779
 2140PEP     CB81906   1.681  16.977  14.337  0.2310 -0.0727 -0.4289
 2140PEP     CB81907   1.286  17.061  14.712  0.2302 -0.2603  0.0550
 2140PEP     CB81908   1.123  17.038  15.152  0.0199 -0.5680  0.5421
 2140PEP     CB81909   1.052  17.130  15.645 -0.0873 -0.0334 -0.1182
 2140PEP     CB81910   1.269  17.186  16.086  0.1799 -0.1785 -0.2368
 2140PEP     CB81911   1.364  17.307  16.508 -0.2877 -0.3592  0.0382
 2140PEP     CB81912   1.531  17.439  16.860 -0.0903  0.3265 -0.3464
 2140PEP     CB81913   1.501  17.738  17.128  0.1526 -0.2644  0.1503
 2140PEP     CB81914   1.627  17.905  17.572 -0.1493 -0.2449 -0.0289
 2140PEP     CB81915   2.027  17.775  17.819  0.2109  0.0002  0.2480
 2140PEP     CB81916   2.359  17.447  17.573 -0.0120 -0.0244  0.2161
 2140PEP     CB81917   2.260  17.070  17.346  0.3406  0.0148 -0.1038
 2140PEP     CB81918   1.905  16.829  17.367  0.2319 -0.2060 -0.3436
 2140PEP     CB81919   1.535  16.520  17.323 -0.0534 -0.1405  0.0578
 2140PEP     CB81920   1.134  16.586  17.309  0.3053  0.1772 -0.0652
 2141PEP     CB81921  20.705   6.226   0.360  0.3088  0.0387 -0.0608
 2141PEP     CB81922  20.783   5.840   0.470 -0.2342  0.0314  0.0124
 2141PEP     CB81923  21.143   5.633   0.622 -0.5402  0.2447 -0.1160
 2141PEP     CB81924  21.339   5.325   0.956  0.0870 -0.1999 -0.0199
 2141PEP     CB81925  21.113   5.316   1.386 -0.1028  0.0941 -0.0477
 2141PEP     CB81926  20.693   5.580   1.427 -0.3309  0.4324  0.1527
 2141PEP     CB81927  20.413   5.601   1.032  0.3656  0.0011 -0.1872
 2141PEP     CB81928  20.065   5.476   0.959 -0.1220 -0.3152 -0.2110
 2141PEP     CB81929  19.713   5.373   0.808  0.7092 -0.0620 -0.1970
 2141PEP     CB81930  19.498   5.060   0.770 -0.0991 -0.0367  0.2441
 2141PEP     CB81931  19.150   4.773   0.530  0.0513 -0.3814 -0.1356
 2141PEP     CB81932  18.937   4.444   0.401  0.2346  0.2915  0.0690
 2141PEP     CB81933  18.807   4.004   0.602  0.0071 -0.2812  0.1439
 2141PEP     CB81934  18.751   3.601   0.773  0.1168 -0.0771 -0.3536
 2141PEP     CB81935  18.970   3.214   0.813 -0.0237  0.4692 -0.2581
 2141PEP     CB81936  19.297   2.949   0.858 -0.1837  0.0451  0.4676
 2141PEP     CB81937  19.776   2.796   0.686 -0.0264 -0.6000  0.0240
 2141PEP     CB81938  20.262   2.908   0.525  0.2988 -0.2627  0.2028
 2141PEP     CB81939  20.676   2.976   0.398  0.1743 -0.0086  0.1558
 2141PEP     CB81940  21.068   3.164   0.261  0.2725  0.0649  0.0482
 2141PEP     CB81941  21.482   3.143   0.182 -0.3012 -0.2326 -0.0859
 2141PEP     CB81942  21.806   3.046  -0.152 -0.1978  0.2882  0.1645
 2141PEP     CB81943  21.977   2.627  -0.250 -0.3670  0.0625 -0.1351
 2141PEP     CB81944  21.835   2.242  -0.195  0.0559 -0.1393 -0.0012
 2141PEP     CB81945  21.378   2.075  -0.169 -0.4099  0.1404 -0.4222
 2141PEP     CB81946  21.103   2.421   0.068  0.1210  0.2288  0.4950
 2141PEP     CB81947  20.708   2.580  -0.009  0.0513  0.0450 -0.1711
 2141PEP     CB81948  20.277   2.503   0.038 -0.5353 -0.0701  0.1330
 2141PEP     CB81949  20.089   2.399   0.375 -0.1876 -0.1749 -0.0551
 2141PEP     CB81950  20.249   2.428   0.795  0.2102  0.2250 -0.4802
 2141PEP     CB81951  20.676   2.404   0.885  0.0549 -0.0679 -0.3416
 2141PEP     CB81952  21.154   2.313   0.597 -0.2330  0.0255  0.1952
 2141PEP     CB81953  21.208   1.994   0.352 -0.0142  0.0926  0.2215
 2141PEP     CB81954  20.950   1.704   0.230  0.1193 -0.1047 -0.1410
 2141PEP     CB81955  20.578   1.563   0.305  0.0493 -0.0030  0.2144
 2141PEP     CB81956  20.254   1.824   0.340  0.0643  0.0192  0.0571
 2141PEP     CB81957  20.023   1.995  -0.070 -0.1416 -0.1523  0.3624
 2141PEP     CB81958  19.964   1.760  -0.475 -0.0588 -0.3509  0.2989
 2141PEP     CB81959  19.754   1.415  -0.532  0.4171  0.3626 -0.1310
 2141PEP     CB81960  19.865   0.967  -0.586  0.3496 -0.0895 -0.1055
 2142PEP     CB81961   1.265   2.230   1.957 -0.0168 -0.1806  0.1763
 2142PEP     CB81962   1.480   2.551   2.259 -0.0375 -0.2100 -0.1841
 2142PEP     CB81963   1.702   2.862   2.572  0.2584  0.0585 -0.1310
 2142PEP     CB81964   1.869   2.656   3.009 -0.0931 -0.1892  0.2684
 2142PEP     CB81965   1.884   2.259   3.021  0.1767  0.1646  0.0058
 2142PEP     CB81966   1.696   2.003   2.741 -0.0658  0.3524 -0.2866
 2142PEP     CB81967   1.372   2.039   2.391 -0.2590  0.1325 -0.2380
 2142PEP     CB81968   0.860   2.081   2.403 -0.3228 -0.0740 -0.3184
 2142PEP     CB81969   0.457   2.351   2.468 -0.2778 -0.0785  0.3174
 2142PEP     CB81970   0.423   2.793   2.669  0.1745 -0.2056  0.0288
 2142PEP     CB81971   0.718   3.171   2.730 -0.0142  0.3418  0.4921
 2142PEP     CB81972   1.157   3.308   2.622 -0.0708 -0.1030  0.0794
 2142PEP     CB81973   1.450   3.252   2.329  0.2835 -0.0353  0.2030
 2142PEP     CB81974   1.754   3.005   2.120 -0.2874 -0.1042  0.5814
 2142PEP     CB81975   1.998   3.025   1.713  0.1034 -0.0433  0.0405
 2142PEP     CB81976   2.238   3.066   1.298 -0.1761 -0.1688  0.0238
 2142PEP     CB81977   2.548   3.072   0.845 -0.3005 -0.2156 -0.1347
 2142PEP     CB81978   2.826   3.336   0.857 -0.1616 -0.2742 -0.0210
 2142PEP     CB81979   3.150   3.178   1.161  0.2613 -0.0643  0.0551
 2142PEP     CB81980   3.143   2.769   1.122  0.3015  0.0969 -0.1185
 2142PEP     CB81981   2.905   2.566   0.838  0.0390 -0.0704  0.0853
 2142PEP     CB81982   2.881   2.687   0.428  0.4924  0.3574  0.0783
 2142PEP     CB81983   2.769   3.112   0.271 -0.1936  0.4987  0.1570
 2142PEP     CB81984   2.661   3.463   0.148  0.1352  0.1395 -0.1475
 2142PEP     CB81985   2.827   3.545  -0.200 -0.0372 -0.0664  0.2779
 2142PEP     CB81986   3.058   3.334  -0.503 -0.2702  0.0068 -0.0435
 2142PEP     CB81987   3.117   2.998  -0.726 -0.1100  0.1330 -0.2479
 2142PEP     CB81988   3.340   2.832  -1.114 -0.4121  0.4848 -0.0055
 2142PEP     CB81989   3.592   2.524  -1.374 -0.3152 -0.2067  0.2523
 2142PEP     CB81990   3.743   2.146  -1.596 -0.1646 -0.1773 -0.1255
 2142PEP     CB81991   3.701   1.907  -1.961 -0.1506 -0.1333 -0.1661
 2142PEP     CB81992   3.857   1.721  -2.370 -0.0814  0.0114  0.0614
 2142PEP     CB81993   3.799   1.883  -2.775 -0.2676 -0.1948  0.2130
 2142PEP     CB81994   3.604   2.214  -2.973  0.1156 -0.3131  0.0172
 2142PEP     CB81995   3.450   2.538  -2.823 -0.0829  0.5035  0.1082
 2142PEP     CB81996   3.557   2.824  -2.428 -0.2504  0.1449  0.2440
 2142PEP     CB81997   3.769   2.601  -2.036 -0.2064 -0.0134  0.0746
 2142PEP     CB81998   4.104   2.354  -1.882  0.1723 -0.0820  0.0910
 2142PEP     CB81999   4.311   1.838  -1.783  0.3060  0.1311 -0.2948
 2142PEP     CB82000   4.588   1.692  -1.419 -0.0708  0.1608 -0.2292
 2143PEP     CB82001  19.883   1.413   2.909 -0.2461  0.3677 -0.0977
 2143PEP     CB82002  19.711   1.184   3.129  0.2400 -0.0649  0.3285
 2143PEP     CB82003  19.489   0.820   3.105  0.2297  0.3337 -0.2244
 2143PEP     CB82004  19.088   0.594   3.082 -0.0939  0.2084 -0.1506
 2143PEP     CB82005  18.783   0.526   3.405 -0.3078  0.1677  0.2876
 2143PEP     CB82006  18.819   0.234   3.757 -0.1085  0.4428  0.0538
 2143PEP     CB82007  18.747  -0.002   4.054  0.4254  0.1973 -0.2511
 2143PEP     CB82008  18.751  -0.507   3.975 -0.2246  0.1400  0.0508
 2143PEP     CB82009  18.551  -0.856   4.065 -0.1172  0.1244  0.1002
 2143PEP     CB82010  18.347  -1.108   3.750  0.0422  0.1216  0.3292
 2143PEP     CB82011  18.492  -1.495   3.619  0.2968  0.0602  0.4934
 2143PEP     CB82012  18.679  -1.850   3.854  0.1904 -0.2588 -0.1034
 2143PEP     CB82013  19.028  -2.108   3.982 -0.1637 -0.3237  0.2154
 2143PEP     CB82014  19.202  -2.220   4.405 -0.1761  0.4360 -0.1016
 2143PEP     CB82015  19.028  -2.290   4.763  0.1070  0.0901  0.1344
 2143PEP     CB82016  18.735  -2.653   4.927 -0.1084 -0.0681  0.0167
 2143PEP     CB82017  18.551  -2.668   5.261  0.0187 -0.0129  0.4077
 2143PEP     CB82018  18.436  -2.864   5.635 -0.3562  0.1971 -0.2685
 2143PEP     CB82019  18.583  -3.166   5.698  0.1671  0.2104 -0.0795
 2143PEP     CB82020  18.737  -3.433   5.338 -0.1891 -0.0157 -0.0266
 2143PEP     CB82021  18.987  -3.291   5.007 -0.0207  0.0345  0.1972
 2143PEP     CB82022  19.108  -3.183   4.634  0.0713  0.2557  0.6133
 2143PEP     CB82023  19.196  -3.328   4.183 -0.0709  0.0253 -0.2024
 2143PEP     CB82024  19.137  -3.657   3.898  0.3536  0.1679  0.2033
 2143PEP     CB82025  19.379  -4.027   3.672 -0.0264  0.0361  0.1388
 2143PEP     CB82026  19.558  -4.348   3.383  0.2404  0.0145  0.0268
 2143PEP     CB82027  19.563  -4.373   3.027  0.2998  0.2497  0.0837
 2143PEP     CB82028  19.827  -4.548   2.627 -0.0540  0.0472  0.1929
 2143PEP     CB82029  20.003  -4.606   2.250  0.0053 -0.1182  0.0332
 2143PEP     CB82030  20.143  -4.954   1.981 -0.0689  0.0119 -0.2715
 2143PEP     CB82031  20.189  -5.426   2.120  0.1174  0.0180 -0.1649
 2143PEP     CB82032  20.286  -5.766   2.408  0.2789 -0.1511 -0.2883
 2143PEP     CB82033  20.651  -5.915   2.631  0.0206  0.0751  0.1445
 2143PEP     CB82034  21.010  -6.001   2.745 -0.2344  0.2065 -0.2968
 2143PEP     CB82035  21.216  -5.985   3.165  0.0752 -0.0398 -0.1089
 2143PEP     CB82036  21.095  -5.876   3.589 -0.3413 -0.0758  0.3089
 2143PEP     CB82037  20.795  -5.634   3.861  0.0837  0.0764 -0.0378
 2143PEP     CB82038  20.360  -5.509   3.756  0.1632  0.2671  0.0130
 2143PEP     CB82039  19.935  -5.612   3.527 -0.0630 -0.0414 -0.0847
 2143PEP     CB82040  19.560  -5.703   3.222 -0.1074 -0.0043 -0.0029
 2144PEP     CB82041   9.451   4.252  17.760  0.2159  0.0380  0.2377
 2144PEP     CB82042   9.836   4.060  17.833 -0.1467  0.1302  0.3599
 2144PEP     CB82043  10.197   3.912  18.048  0.1248 -0.0724 -0.1419
 2144PEP     CB82044  10.631   3.778  18.159 -0.0160 -0.2383 -0.0123
 2144PEP     CB82045  11.057   3.856  18.099  0.0595 -0.0162 -0.3729
 2144PEP     CB82046  11.382   4.108  18.239 -0.3957 -0.1531  0.0035
 2144PEP     CB82047  11.771   4.137  18.326  0.1014  0.2183 -0.2410
 2144PEP     CB82048  12.024   4.436  18.512  0.1726 -0.0165 -0.2591
 2144PEP     CB82049  11.860   4.658  18.864  0.2051  0.2940 -0.0742
 2144PEP     CB82050  11.697   5.101  18.908 -0.0799  0.0044  0.1966
 2144PEP     CB82051  11.776   5.444  18.811 -0.1124 -0.6491 -0.4804
 2144PEP     CB82052  12.228   5.548  18.676  0.0341  0.3452  0.3305
 2144PEP     CB82053  12.601   5.316  18.758  0.0655 -0.4065  0.1369
 2144PEP     CB82054  12.659   4.951  18.916  0.2923 -0.1066  0.1051
 2144PEP     CB82055  12.409   4.600  19.094  0.2320 -0.2608 -0.2476
 2144PEP     CB82056  12.317   4.221  18.883 -0.1097 -0.0174 -0.0071
 2144PEP     CB82057  12.392   3.843  18.727 -0.0593 -0.0661  0.3739
 2144PEP     CB82058  12.580   3.357  18.626  0.0820 -0.2409 -0.0780
 2144PEP     CB82059  12.841   3.128  18.361 -0.2423 -0.2616 -0.1825
 2144PEP     CB82060  12.832   2.732  18.184 -0.3746  0.1615  0.3407
 2144PEP     CB82061  12.483   2.410  17.923 -0.1036  0.1989  0.3231
 2144PEP     CB82062  12.342   2.443  17.492 -0.1710 -0.2556  0.0242
 2144PEP     CB82063  12.508   2.792  17.237  0.1065 -0.2816 -0.0483
 2144PEP     CB82064  12.830   3.007  16.981 -0.1510 -0.4043 -0.0605
 2144PEP     CB82065  13.025   3.281  16.875  0.3244 -0.3485 -0.3319
 2144PEP     CB82066  13.515   3.497  16.557  0.0994  0.2380 -0.2723
 2144PEP     CB82067  13.861   3.714  16.394  0.2051 -0.0789  0.1013
 2144PEP     CB82068  14.127   3.854  16.241 -0.2714  0.1341 -0.0401
 2144PEP     CB82069  14.212   4.012  15.796  0.2181 -0.5062 -0.0860
 2144PEP     CB82070  13.986   3.910  15.395 -0.2469 -0.2095 -0.2717
 2144PEP     CB82071  13.696   4.062  15.203 -0.1325 -0.1668  0.3335
 2144PEP     CB82072  13.622   4.509  15.003  0.0739  0.3244 -0.0973
 2144PEP     CB82073  13.451   4.929  15.223  0.0129  0.0368  0.2444
 2144PEP     CB82074  13.152   5.136  15.588  0.0419 -0.3097  0.1359
 2144PEP     CB82075  12.768   5.063  15.626  0.0730 -0.1547  0.2142
 2144PEP     CB82076  12.339   5.078  15.331  0.1192  0.2555 -0.2554
 2144PEP     CB82077  12.180   5.400  15.087  0.1087  0.1946  0.0880
 2144PEP     CB82078  12.328   5.811  15.238  0.2161  0.1552  0.0705
 2144PEP     CB82079  12.704   5.946  15.512  0.4057 -0.1549  0.0178
 2144PEP     CB82080  12.941   6.188  15.679 -0.0499 -0.2347 -0.0377
 2145PEP     CB82081  14.006   4.135   4.923 -0.5735 -0.1907 -0.1031
 2145PEP     CB82082  14.440   4.364   5.029 -0.4734 -0.1937 -0.0322
 2145PEP     CB82083  14.870   4.433   5.256  0.4304 -0.2858  0.4388
 2145PEP     CB82084  15.082   4.268   5.599 -0.3485  0.0104  0.1529
 2145PEP     CB82085  15.027   4.271   6.013 -0.0342 -0.1727 -0.0668
 2145PEP     CB82086  14.990   4.500   6.406 -0.3183 -0.3227 -0.1406
 2145PEP     CB82087  14.834   4.907   6.457 -0.1273 -0.0189  0.0083
 2145PEP     CB82088  14.911   5.292   6.193  0.0556 -0.0972  0.2867
 2145PEP     CB82089  15.301   5.282   5.876  0.1612 -0.3838 -0.2755
 2145PEP     CB82090  15.790   5.464   6.006 -0.2276  0.1513  0.2712
 2145PEP     CB82091  15.988   5.566   6.359 -0.3753  0.0737  0.5709
 2145PEP     CB82092  15.954   5.717   6.797 -0.4264 -0.0631  0.4227
 2145PEP     CB82093  16.164   5.911   7.090  0.0666 -0.2075 -0.3200
 2145PEP     CB82094  16.657   5.959   7.165 -0.4533 -0.2649 -0.0513
 2145PEP     CB82095  16.961   6.216   6.924 -0.1731 -0.0515  0.0078
 2145PEP     CB82096  16.866   6.411   6.527 -0.3037  0.2386  0.4016
 2145PEP     CB82097  16.510   6.258   6.272  0.1268 -0.3736 -0.2844
 2145PEP     CB82098  16.066   6.128   6.401  0.3187 -0.1209 -0.2179
 2145PEP     CB82099  15.619   5.947   6.483  0.1337  0.3735 -0.3902
 2145PEP     CB82100  15.326   5.661   6.483  0.0797  0.0766 -0.0907
 2145PEP     CB82101  14.897   5.816   6.627  0.2177 -0.3189  0.1600
 2145PEP     CB82102  14.972   6.197   6.810  0.1343  0.0150  0.1603
 2145PEP     CB82103  15.046   6.548   7.122 -0.1160 -0.1663 -0.1969
 2145PEP     CB82104  15.237   6.759   7.502 -0.1076  0.2966  0.2098
 2145PEP     CB82105  15.615   6.675   7.780 -0.2035  0.3121  0.1208
 2145PEP     CB82106  15.618   6.271   7.854  0.0834  0.0261 -0.1056
 2145PEP     CB82107  15.719   5.931   7.578  0.2153 -0.1667 -0.0266
 2145PEP     CB82108  15.833   5.501   7.403 -0.2172 -0.2558 -0.1848
 2145PEP     CB82109  15.939   5.123   7.532  0.0213 -0.0040 -0.0111
 2145PEP     CB82110  15.570   4.808   7.784 -0.2336  0.1182  0.4425
 2145PEP     CB82111  15.245   4.986   8.057 -0.0135 -0.2858 -0.0299
 2145PEP     CB82112  15.203   5.249   8.413  0.0041 -0.3270  0.0677
 2145PEP     CB82113  15.589   5.534   8.494 -0.2848  0.1378  0.3807
 2145PEP     CB82114  15.950   5.420   8.460 -0.3037  0.1881  0.4341
 2145PEP     CB82115  16.256   5.068   8.308 -0.2336 -0.0380 -0.3808
 2145PEP     CB82116  16.054   4.724   8.214  0.1803  0.2632  0.1254
 2145PEP     CB82117  15.708   4.563   8.366 -0.2757  0.2185  0.2329
 2145PEP     CB82118  15.622   4.112   8.541  0.2648  0.1483 -0.2262
 2145PEP     CB82119  15.701   3.800   8.811  0.1174  0.3723  0.0265
 2145PEP     CB82120  15.741   3.562   9.218 -0.0418 -0.2694 -0.0614
 2146PEP     CB82121   4.947   6.060   4.114  0.2994 -0.0631 -0.3697
 2146PEP     CB82122   4.607   6.386   3.940  0.4905 -0.0274 -0.1252
 2146PEP     CB82123   4.496   6.754   4.184 -0.0809  0.0926 -0.2266
 2146PEP     CB82124   4.642   6.876   4.542 -0.0031 -0.0008  0.0043
 2146PEP     CB82125   4.889   6.857   4.874 -0.0202 -0.1728  0.0744
 2146PEP     CB82126   5.059   6.626   5.199  0.1596  0.0288  0.0079
 2146PEP     CB82127   4.939   6.348   5.538  0.2208 -0.0156 -0.2150
 2146PEP     CB82128   5.073   6.083   5.907 -0.2124  0.2077  0.0958
 2146PEP     CB82129   4.816   5.721   6.089  0.0690  0.5054 -0.1987
 2146PEP     CB82130   4.647   5.614   6.502 -0.0088  0.0351 -0.1721
 2146PEP     CB82131   4.552   5.281   6.664  0.2067  0.1913  0.2626
 2146PEP     CB82132   4.733   4.914   6.579 -0.0267 -0.1402  0.0903
 2146PEP     CB82133   4.754   4.447   6.584  0.2296 -0.3138 -0.1826
 2146PEP     CB82134   4.877   4.108   6.726  0.3114  0.0687 -0.4180
 2146PEP     CB82135   5.240   3.928   6.784  0.1035 -0.0159  0.0742
 2146PEP     CB82136   5.693   4.096   6.575 -0.2284  0.0217 -0.1378
 2146PEP     CB82137   6.088   4.140   6.338  0.2113 -0.1056 -0.3438
 2146PEP     CB82138   6.399   4.436   6.059  0.0436 -0.0161  0.0254
 2146PEP     CB82139   6.782   4.475   5.805  0.0369  0.0370  0.3449
 2146PEP     CB82140   7.082   4.635   5.554  0.3560  0.0074  0.2757
 2146PEP     CB82141   7.232   4.647   5.123  0.1915  0.2463  0.0520
 2146PEP     CB82142   7.372   4.329   4.798  0.5214 -0.1018  0.1731
 2146PEP     CB82143   7.681   4.012   4.668  0.1411  0.1805 -0.1048
 2146PEP     CB82144   8.112   4.104   4.572 -0.3841  0.0721 -0.0051
 2146PEP     CB82145   8.281   4.453   4.781 -0.4500  0.0832 -0.1343
 2146PEP     CB82146   8.117   4.773   5.042  0.0058 -0.4937 -0.0820
 2146PEP     CB82147   8.086   5.056   5.351  0.1308  0.0098  0.1987
 2146PEP     CB82148   7.866   5.273   5.637  0.2039 -0.1046  0.0659
 2146PEP     CB82149   7.813   5.439   6.026  0.1892 -0.2903 -0.3903
 2146PEP     CB82150   8.097   5.407   6.342  0.1095  0.0745 -0.1047
 2146PEP     CB82151   8.590   5.334   6.250  0.0513 -0.2268 -0.3151
 2146PEP     CB82152   8.875   5.233   5.947 -0.0411  0.0999 -0.0577
 2146PEP     CB82153   9.195   5.010   5.884 -0.0498  0.2846  0.1416
 2146PEP     CB82154   9.192   4.685   5.611  0.1380  0.4267 -0.0967
 2146PEP     CB82155   8.909   4.402   5.401  0.0704 -0.1806  0.2574
 2146PEP     CB82156   8.761   4.027   5.317 -0.0797  0.0764  0.1906
 2146PEP     CB82157   8.749   3.624   5.251  0.0691  0.0436 -0.0670
 2146PEP     CB82158   8.449   3.395   5.126 -0.1591 -0.1385  0.0987
 2146PEP     CB82159   8.089   3.530   4.791 -0.1498 -0.1018 -0.1457
 2146PEP     CB82160   7.907   3.625   4.400 -0.0796 -0.2810 -0.0310
 2147PEP     CB82161   2.711  18.538  15.341 -0.1519 -0.4052  0.5253
 2147PEP     CB82162   2.504  18.193  15.582 -0.0468 -0.3290 -0.3361
 2147PEP     CB82163   2.428  17.779  15.703 -0.3290  0.1718 -0.2916
 2147PEP     CB82164   2.296  17.357  15.996 -0.0063 -0.1492  0.2885
 2147PEP     CB82165   2.429  16.988  16.337  0.2235  0.0373  0.4239
 2147PEP     CB82166   2.844  16.803  16.485 -0.0704  0.1771  0.0495
 2147PEP     CB82167   3.151  16.531  16.393  0.1916  0.2840 -0.2779
 2147PEP     CB82168   3.265  16.266  16.022  0.0247 -0.0706  0.1198
 2147PEP     CB82169   3.508  15.950  15.762 -0.1842 -0.0738  0.1053
 2147PEP     CB82170   3.645  15.723  15.343 -0.0304 -0.1135  0.2779
 2147PEP     CB82171   3.899  15.459  15.071 -0.0098 -0.8519 -0.1344
 2147PEP     CB82172   4.217  15.561  14.790 -0.1856  0.1426  0.0085
 2147PEP     CB82173   4.565  15.745  14.577  0.2833  0.2823  0.1773
 2147PEP     CB82174   4.948  15.545  14.418 -0.0245 -0.4246  0.2048
 2147PEP     CB82175   4.955  15.245  14.139  0.3941  0.0256  0.3338
 2147PEP     CB82176   4.705  14.822  14.178 -0.0455 -0.0799  0.3052
 2147PEP     CB82177   4.385  14.771  14.517 -0.3898 -0.0420  0.1155
 2147PEP     CB82178   4.244  14.288  14.736  0.0110  0.0350  0.2440
 2147PEP     CB82179   4.541  13.787  14.806 -0.2161  0.2728  0.0051
 2147PEP     CB82180   4.953  13.696  14.642  0.0281 -0.1579 -0.3061
 2147PEP     CB82181   5.443  13.619  14.436  0.3673 -0.0042 -0.3549
 2147PEP     CB82182   5.702  13.322  14.278  0.1272  0.3334  0.0025
 2147PEP     CB82183   6.013  13.304  13.947  0.2855 -0.0734 -0.0329
 2147PEP     CB82184   6.456  13.059  13.871 -0.2280  0.5445 -0.1101
 2147PEP     CB82185   6.676  12.812  13.588  0.0618  0.1130 -0.2968
 2147PEP     CB82186   6.854  12.425  13.595 -0.0789  0.1444  0.0723
 2147PEP     CB82187   6.918  11.951  13.777  0.1821  0.4334  0.3458
 2147PEP     CB82188   6.905  11.534  13.929 -0.2385 -0.0563 -0.0892
 2147PEP     CB82189   6.763  11.318  14.290  0.0229 -0.1694 -0.1127
 2147PEP     CB82190   6.386  11.268  14.518  0.2922  0.0260 -0.6209
 2147PEP     CB82191   5.975  11.273  14.736  0.1011 -0.0053 -0.2719
 2147PEP     CB82192   5.696  10.965  14.946 -0.0152 -0.0944  0.1686
 2147PEP     CB82193   5.642  10.577  15.144  0.2050 -0.1334 -0.4176
 2147PEP     CB82194   5.277  10.205  15.200 -0.0438  0.1257  0.0692
 2147PEP     CB82195   5.233   9.698  15.256 -0.1018  0.1147  0.2002
 2147PEP     CB82196   5.352   9.260  15.345  0.0531 -0.4572 -0.0694
 2147PEP     CB82197   5.727   9.030  15.516 -0.0702  0.0482 -0.0933
 2147PEP     CB82198   6.113   8.961  15.642 -0.1982 -0.5129  0.1472
 2147PEP     CB82199   6.362   8.786  15.992  0.1266  0.2074  0.1192
 2147PEP     CB82200   6.209   8.460  16.212 -0.0298  0.0411  0.2765
 2148PEP     CB82201   6.455  20.631   9.140 -0.2159 -0.3648 -0.3063
 2148PEP     CB82202   6.238  20.957   8.998  0.1231  0.0257 -0.3179
 2148PEP     CB82203   6.282  21.337   9.102  0.3345  0.3592  0.2475
 2148PEP     CB82204   6.278  21.757   8.847  0.1117 -0.2310  0.2346
 2148PEP     CB82205   6.254  21.828   8.368 -0.2634  0.2268 -0.0760
 2148PEP     CB82206   6.277  21.513   8.045 -0.2861  0.1994  0.0151
 2148PEP     CB82207   6.310  20.968   8.035 -0.2216 -0.1309 -0.2839
 2148PEP     CB82208   5.933  20.679   8.159  0.2660 -0.1882  0.2277
 2148PEP     CB82209   5.499  20.681   8.343 -0.1721  0.1491 -0.4200
 2148PEP     CB82210   5.101  21.080   8.269 -0.3384 -0.0707  0.0469
 2148PEP     CB82211   5.037  21.485   8.026  0.1114  0.0442 -0.0572
 2148PEP     CB82212   5.099  21.555   7.514  0.0661 -0.3881 -0.2818
 2148PEP     CB82213   5.226  21.170   7.359  0.4193  0.1856  0.2121
 2148PEP     CB82214   5.400  20.854   7.641  0.3010 -0.1543 -0.0639
 2148PEP     CB82215   5.513  20.441   7.753  0.0849 -0.0894 -0.4716
 2148PEP     CB82216   5.658  20.120   8.052  0.0151 -0.5152  0.1720
 2148PEP     CB82217   5.625  19.755   8.295 -0.0447 -0.2776  0.2974
 2148PEP     CB82218   5.359  19.401   8.370 -0.3110 -0.0568  0.3190
 2148PEP     CB82219   5.057  19.086   8.432  0.0703 -0.1098  0.0226
 2148PEP     CB82220   4.874  18.609   8.370  0.0771  0.3185 -0.2853
 2148PEP     CB82221   4.731  18.239   8.213  0.1834  0.1380  0.0097
 2148PEP     CB82222   4.722  17.948   7.834 -0.2404 -0.2718  0.2941
 2148PEP     CB82223   4.576  17.824   7.456 -0.0915  0.3418  0.3303
 2148PEP     CB82224   4.795  17.802   7.163  0.3203  0.3683 -0.0325
 2148PEP     CB82225   5.085  17.821   6.735 -0.0030 -0.1643 -0.0669
 2148PEP     CB82226   5.124  17.799   6.253 -0.4797  0.2319 -0.5318
 2148PEP     CB82227   5.127  17.686   5.799 -0.0527  0.0082 -0.1511
 2148PEP     CB82228   5.554  17.574   5.591  0.0092  0.0720 -0.1284
 2148PEP     CB82229   6.017  17.362   5.649  0.1396  0.0296  0.1012
 2148PEP     CB82230   6.099  16.970   5.674  0.2790  0.1799 -0.0921
 2148PEP     CB82231   5.827  16.578   5.571 -0.1771 -0.2573 -0.4121
 2148PEP     CB82232   5.630  16.287   5.365 -0.0196 -0.0525  0.2203
 2148PEP     CB82233   5.266  16.027   5.345  0.4876 -0.2230  0.2830
 2148PEP     CB82234   4.895  15.977   5.177 -0.1953 -0.0556 -0.0082
 2148PEP     CB82235   4.442  16.149   5.192  0.1352 -0.1160 -0.0893
 2148PEP     CB82236   4.133  16.281   5.476  0.3225  0.2483  0.1376
 2148PEP     CB82237   3.825  16.673   5.582  0.2118 -0.1584 -0.0453
 2148PEP     CB82238   3.612  17.014   5.643  0.1435  0.1699 -0.1031
 2148PEP     CB82239   3.358  17.274   5.867  0.0165 -0.3242 -0.1765
 2148PEP     CB82240   3.420  17.586   6.225 -0.0557 -0.0511  0.4504
 2149PEP     CB82241  10.063   7.299  14.879 -0.1873 -0.4107  0.0105
 2149PEP     CB82242  10.476   7.255  15.077 -0.2342  0.1824 -0.0963
 2149PEP     CB82243  10.744   7.201  15.310  0.0865 -0.5783 -0.2194
 2149PEP     CB82244  10.904   6.988  15.714 -0.1362 -0.3494  0.6037
 2149PEP     CB82245  10.863   6.967  16.141 -0.2524 -0.1320 -0.1087
 2149PEP     CB82246  10.510   6.992  16.300 -0.8434  0.0955  0.3643
 2149PEP     CB82247  10.114   7.192  16.187 -0.0962 -0.1238 -0.1790
 2149PEP     CB82248  10.062   7.619  15.946  0.0574 -0.0335  0.1308
 2149PEP     CB82249  10.329   7.941  15.727  0.3743 -0.0125 -0.0086
 2149PEP     CB82250  10.715   7.991  15.701  0.2321  0.2049  0.1298
 2149PEP     CB82251  11.098   7.804  15.965 -0.2156 -0.2631  0.0905
 2149PEP     CB82252  11.022   7.575  16.410  0.2620  0.0717  0.0075
 2149PEP     CB82253  10.875   7.640  16.856 -0.6234 -0.0230  0.0388
 2149PEP     CB82254  10.498   7.877  17.135  0.1352 -0.0474  0.1350
 2149PEP     CB82255  10.228   7.689  17.512  0.1030  0.2677 -0.0103
 2149PEP     CB82256  10.242   7.411  17.808  0.1922 -0.0351  0.1308
 2149PEP     CB82257  10.098   7.292  18.169  0.0603 -0.1503  0.2700
 2149PEP     CB82258  10.092   7.377  18.674 -0.0607 -0.4078  0.2317
 2149PEP     CB82259  10.380   7.666  18.895 -0.0529 -0.0536  0.4137
 2149PEP     CB82260  10.585   8.011  19.117 -0.4477 -0.0822 -0.0062
 2149PEP     CB82261  10.679   8.335  19.450 -0.1692  0.0796  0.1300
 2149PEP     CB82262  10.722   8.710  19.596  0.2223 -0.0707  0.0791
 2149PEP     CB82263  10.668   8.913  19.947  0.0278  0.0183 -0.3952
 2149PEP     CB82264  10.737   8.738  20.347 -0.2559  0.7360  0.4801
 2149PEP     CB82265  10.858   8.507  20.658  0.7243 -0.1443  0.2257
 2149PEP     CB82266  10.977   8.138  20.837  0.0919 -0.0577  0.3832
 2149PEP     CB82267  11.103   7.941  21.189  0.0653 -0.2316  0.1654
 2149PEP     CB82268  11.294   8.026  21.508 -0.1477 -0.3118  0.1374
 2149PEP     CB82269  11.506   8.492  21.577 -0.0400  0.0331  0.0605
 2149PEP     CB82270  11.386   8.852  21.350  0.1301 -0.1938  0.2929
 2149PEP     CB82271  11.018   9.168  21.435  0.1209 -0.1156 -0.3665
 2149PEP     CB82272  10.665   9.241  21.205 -0.3423 -0.1136  0.0733
 2149PEP     CB82273  10.429   9.047  20.933  0.0671  0.0947 -0.2333
 2149PEP     CB82274  10.371   9.101  20.484 -0.1357  0.1385  0.3725
 2149PEP     CB82275  10.552   9.491  20.247 -0.5209  0.3851 -0.2230
 2149PEP     CB82276  10.508   9.928  20.290  0.2116  0.0286  0.4742
 2149PEP     CB82277  10.164  10.223  20.440  0.0555 -0.1038  0.0780
 2149PEP     CB82278   9.841  10.010  20.641 -0.1019 -0.1099  0.0780
 2149PEP     CB82279   9.713   9.626  20.671 -0.0082  0.0739 -0.0361
 2149PEP     CB82280   9.961   9.250  20.814  0.0957 -0.0725 -0.2089
 2150PEP     CB82281  15.947  14.659   1.389 -0.0307 -0.0049 -0.3134
 2150PEP     CB82282  16.204  14.587   1.788 -0.3126 -0.1025  0.1858
 2150PEP     CB82283  16.361  14.362   2.163 -0.0359 -0.0903 -0.2252
 2150PEP     CB82284  16.534  14.251   2.467  0.0589 -0.2600 -0.1952
 2150PEP     CB82285  16.667  14.224   2.770  0.1182 -0.1496 -0.3765
 2150PEP     CB82286  16.899  13.965   3.034 -0.2905 -0.1543 -0.2387
 2150PEP     CB82287  17.018  13.920   3.488  0.0770 -0.0841 -0.2167
 2150PEP     CB82288  17.158  14.094   3.768 -0.0172  0.1127  0.0367
 2150PEP     CB82289  17.422  14.058   4.065  0.2743  0.0769 -0.3424
 2150PEP     CB82290  17.798  13.806   4.281  0.2474  0.4146  0.0488
 2150PEP     CB82291  18.001  13.438   4.454 -0.2185  0.0676 -0.1909
 2150PEP     CB82292  17.960  13.041   4.345  0.2860 -0.2210 -0.0113
 2150PEP     CB82293  17.816  12.792   3.978 -0.0635 -0.2065 -0.4614
 2150PEP     CB82294  17.516  12.467   3.994  0.4938 -0.2798 -0.0336
 2150PEP     CB82295  17.354  12.169   3.811 -0.0089 -0.1238 -0.0365
 2150PEP     CB82296  17.476  11.776   3.612  0.0069  0.1206  0.5207
 2150PEP     CB82297  17.533  11.714   3.144  0.0532 -0.4611 -0.0620
 2150PEP     CB82298  17.444  12.022   2.819 -0.2849  0.0460  0.0066
 2150PEP     CB82299  17.400  12.464   2.884  0.1423 -0.0942  0.0287
 2150PEP     CB82300  17.178  12.894   2.797 -0.0830 -0.2591 -0.3009
 2150PEP     CB82301  16.798  12.888   2.566  0.0265 -0.5458  0.0929
 2150PEP     CB82302  16.768  12.600   2.181 -0.3382 -0.1425 -0.4324
 2150PEP     CB82303  17.141  12.473   2.001  0.1342  0.1382 -0.1743
 2150PEP     CB82304  17.446  12.145   2.151  0.0145  0.0367 -0.1626
 2150PEP     CB82305  17.808  11.987   2.314 -0.6076 -0.0880 -0.2939
 2150PEP     CB82306  18.015  12.052   2.684  0.3260 -0.3355 -0.0595
 2150PEP     CB82307  17.914  12.211   3.086  0.2816 -0.2759  0.3542
 2150PEP     CB82308  17.539  12.213   3.309 -0.0078 -0.1875 -0.2826
 2150PEP     CB82309  17.106  12.116   3.169 -0.1521  0.1657 -0.0366
 2150PEP     CB82310  16.893  11.952   2.765  0.5314 -0.3317  0.2309
 2150PEP     CB82311  17.015  11.662   2.480 -0.1197 -0.3257  0.2141
 2150PEP     CB82312  17.374  11.620   2.284 -0.0065 -0.0209  0.1616
 2150PEP     CB82313  17.676  11.668   1.978  0.1061 -0.2463  0.2349
 2150PEP     CB82314  18.102  11.831   1.858  0.0603 -0.1266  0.2856
 2150PEP     CB82315  18.551  11.928   1.792  0.1020  0.0185  0.0085
 2150PEP     CB82316  18.931  12.277   1.818  0.2436  0.3759 -0.0694
 2150PEP     CB82317  19.232  12.639   1.822  0.4523 -0.0728 -0.1235
 2150PEP     CB82318  19.518  13.011   1.683  0.2452  0.0247 -0.1972
 2150PEP     CB82319  19.886  13.227   1.653 -0.2573  0.1422  0.0003
 2150PEP     CB82320  20.376  13.338   1.687  0.1148 -0.0063 -0.1399
 2151PEP     CB82321  16.841  17.416  18.851 -0.1515  0.2047  0.2265
 2151PEP     CB82322  16.908  17.082  19.017  0.2020 -0.0177  0.0308
 2151PEP     CB82323  16.663  16.823  19.309 -0.1386  0.2249 -0.1527
 2151PEP     CB82324  16.210  16.660  19.331 -0.0919 -0.3163  0.3922
 2151PEP     CB82325  15.835  16.617  19.539 -0.1707  0.0365 -0.1753
 2151PEP     CB82326  15.542  16.584  19.816  0.1903  0.1245  0.0180
 2151PEP     CB82327  15.144  16.642  20.042  0.2791  0.0091  0.0600
 2151PEP     CB82328  14.684  16.693  20.224 -0.1657 -0.4102 -0.0107
 2151PEP     CB82329  14.430  16.462  20.652  0.0866  0.1287  0.0641
 2151PEP     CB82330  14.084  16.048  20.774 -0.0188  0.0529 -0.0320
 2151PEP     CB82331  14.064  15.620  20.993 -0.1424 -0.1758  0.0368
 2151PEP     CB82332  13.790  15.359  21.049  0.2292 -0.2492 -0.2200
 2151PEP     CB82333  13.568  14.960  21.122 -0.2682 -0.0050 -0.0779
 2151PEP     CB82334  13.176  14.754  21.307  0.1218 -0.3991  0.3600
 2151PEP     CB82335  13.021  14.335  21.377 -0.0237 -0.2062 -0.1822
 2151PEP     CB82336  13.082  13.989  21.572 -0.0100 -0.1786  0.0743
 2151PEP     CB82337  13.477  13.789  21.935  0.1962  0.0522 -0.1499
 2151PEP     CB82338  13.813  13.973  22.039  0.0349 -0.2934 -0.0954
 2151PEP     CB82339  14.127  14.154  22.418 -0.0923  0.0339  0.0820
 2151PEP     CB82340  14.483  14.308  22.787 -0.0321 -0.0342  0.2414
 2151PEP     CB82341  14.565  14.267  23.190 -0.2221  0.2176  0.2563
 2151PEP     CB82342  14.692  14.017  23.542  0.5696  0.1444 -0.2581
 2151PEP     CB82343  14.505  13.621  23.697  0.2997  0.1059  0.0720
 2151PEP     CB82344  14.587  13.211  23.772  0.3053  0.0454  0.1236
 2151PEP     CB82345  14.530  12.939  24.182  0.0594  0.3481 -0.3305
 2151PEP     CB82346  14.654  13.139  24.511 -0.0749  0.2057  0.3600
 2151PEP     CB82347  14.731  13.580  24.386  0.0647 -0.0017 -0.0149
 2151PEP     CB82348  14.942  13.672  23.916  0.3665  0.0754  0.0560
 2151PEP     CB82349  15.007  13.463  23.624 -0.1487 -0.0777  0.5110
 2151PEP     CB82350  14.695  13.394  23.261  0.2536 -0.0693  0.2022
 2151PEP     CB82351  14.299  13.647  23.268  0.0220  0.1815 -0.3333
 2151PEP     CB82352  13.942  13.665  23.551 -0.0218 -0.0438  0.0333
 2151PEP     CB82353  13.748  13.973  23.749  0.1991  0.0367  0.1879
 2151PEP     CB82354  13.895  14.242  24.023 -0.1457 -0.0249  0.3034
 2151PEP     CB82355  13.844  14.608  24.224 -0.1143 -0.1706 -0.1919
 2151PEP     CB82356  14.059  14.862  24.478 -0.0434 -0.3482  0.1728
 2151PEP     CB82357  14.419  15.015  24.672 -0.0746  0.2750  0.1858
 2151PEP     CB82358  14.598  15.452  24.870 -0.2866 -0.3141  0.1987
 2151PEP     CB82359  15.021  15.749  24.943  0.0768  0.0299 -0.3144
 2151PEP     CB82360  15.404  15.904  24.677 -0.4993  0.0398  0.1012
 2152PEP     CB82361   1.960  11.337   7.548  0.1106  0.0281  0.2569
 2152PEP     CB82362   2.188  11.765   7.554 -0.0550  0.2116  0.0533
 2152PEP     CB82363   2.457  11.982   7.375 -0.0235  0.1280  0.1058
 2152PEP     CB82364   2.744  12.221   7.053 -0.0815  0.0724  0.0563
 2152PEP     CB82365   2.754  12.474   6.660  0.3223  0.3110 -0.1337
 2152PEP     CB82366   2.776  12.936   6.391  0.2424  0.2073  0.0091
 2152PEP     CB82367   3.002  13.202   6.153  0.1195 -0.1466  0.0128
 2152PEP     CB82368   2.862  13.519   5.893  0.0091  0.0296  0.2928
 2152PEP     CB82369   2.550  13.822   5.917  0.1151  0.2059 -0.2916
 2152PEP     CB82370   2.244  14.073   5.817  0.4939  0.1499  0.2775
 2152PEP     CB82371   1.994  14.282   5.544  0.1230  0.3013  0.1114
 2152PEP     CB82372   2.041  14.351   5.099 -0.0040 -0.0696  0.1163
 2152PEP     CB82373   2.039  14.597   4.773  0.2410 -0.1543  0.3171
 2152PEP     CB82374   2.165  14.673   4.361  0.3079 -0.1692 -0.1195
 2152PEP     CB82375   2.446  14.414   4.192  0.0186  0.1424  0.1200
 2152PEP     CB82376   2.428  13.947   4.180  0.2087  0.0154 -0.2369
 2152PEP     CB82377   2.074  13.720   4.313 -0.0750 -0.0310 -0.1628
 2152PEP     CB82378   1.722  13.498   4.221 -0.4307 -0.1150 -0.1698
 2152PEP     CB82379   1.340  13.279   4.090 -0.4285 -0.4654 -0.2403
 2152PEP     CB82380   0.984  13.122   4.228 -0.0702 -0.2884  0.1549
 2152PEP     CB82381   0.650  12.882   4.375  0.0373 -0.0354 -0.0936
 2152PEP     CB82382   0.222  12.715   4.377 -0.4966  0.1561 -0.3661
 2152PEP     CB82383  -0.100  12.662   4.058 -0.2265  0.0067  0.1723
 2152PEP     CB82384  -0.394  12.473   3.745 -0.0497 -0.0059  0.0423
 2152PEP     CB82385  -0.778  12.266   3.565  0.1463  0.2122  0.0515
 2152PEP     CB82386  -1.094  12.263   3.389  0.0969 -0.2473 -0.0231
 2152PEP     CB82387  -1.342  12.192   2.963  0.2160 -0.2772 -0.3447
 2152PEP     CB82388  -1.433  11.871   2.683  0.3413 -0.2875 -0.1438
 2152PEP     CB82389  -1.400  11.480   2.866  0.2335 -0.4609  0.2912
 2152PEP     CB82390  -1.510  11.439   3.364 -0.0064  0.1122 -0.2897
 2152PEP     CB82391  -1.672  11.764   3.574  0.6168 -0.0041 -0.2913
 2152PEP     CB82392  -1.451  12.183   3.713  0.4160 -0.1015 -0.1695
 2152PEP     CB82393  -1.298  12.494   3.893  0.3490  0.3507  0.2710
 2152PEP     CB82394  -1.212  12.633   4.371  0.0611  0.0563  0.3165
 2152PEP     CB82395  -1.422  12.461   4.764  0.1872 -0.2908 -0.0617
 2152PEP     CB82396  -1.467  11.943   4.837 -0.1419  0.0105 -0.1954
 2152PEP     CB82397  -1.211  11.618   4.597  0.1972 -0.2985 -0.1315
 2152PEP     CB82398  -1.251  11.248   4.357  0.0448 -0.1999  0.3976
 2152PEP     CB82399  -1.038  11.037   3.986 -0.1509 -0.1364 -0.2953
 2152PEP     CB82400  -0.592  10.889   3.904 -0.0518 -0.4520 -0.0736
 2153PEP     CB82401  13.481   0.331  20.754  0.6263 -0.1684 -0.0707
 2153PEP     CB82402  13.789   0.072  20.778 -0.2390 -0.0638  0.0299
 2153PEP     CB82403  14.066  -0.045  20.496 -0.1861 -0.3513 -0.0892
 2153PEP     CB82404  14.255  -0.462  20.185 -0.3217  0.3555  0.2825
 2153PEP     CB82405  14.334  -0.758  19.833  0.0491 -0.2392 -0.1057
 2153PEP     CB82406  14.526  -1.107  19.587  0.5280  0.2584 -0.1530
 2153PEP     CB82407  14.850  -1.457  19.573  0.0148 -0.2145  0.1116
 2153PEP     CB82408  15.273  -1.591  19.633 -0.0491 -0.3592 -0.4672
 2153PEP     CB82409  15.545  -1.841  19.868 -0.1610  0.1104  0.5044
 2153PEP     CB82410  15.605  -1.852  20.357 -0.1064  0.0111 -0.0078
 2153PEP     CB82411  15.806  -2.078  20.675 -0.2328  0.0880  0.1173
 2153PEP     CB82412  16.204  -2.161  20.818 -0.0085  0.1588 -0.0585
 2153PEP     CB82413  16.225  -2.519  20.974  0.0569 -0.1229 -0.1245
 2153PEP     CB82414  16.086  -2.972  20.918 -0.0852  0.1343 -0.0625
 2153PEP     CB82415  16.078  -3.522  20.855  0.1455  0.1454  0.0392
 2153PEP     CB82416  15.705  -3.687  20.737  0.1646  0.0451 -0.3293
 2153PEP     CB82417  15.314  -3.503  20.644 -0.1158 -0.1672  0.1559
 2153PEP     CB82418  15.136  -3.222  20.354 -0.4109  0.3346 -0.2615
 2153PEP     CB82419  14.992  -3.341  19.939  0.3673 -0.0064 -0.0571
 2153PEP     CB82420  15.266  -3.304  19.546 -0.1019 -0.3044  0.0762
 2153PEP     CB82421  15.648  -3.372  19.284  0.1462 -0.2289  0.3234
 2153PEP     CB82422  15.803  -3.486  18.888 -0.0922 -0.1965  0.2088
 2153PEP     CB82423  15.543  -3.855  18.676  0.0491 -0.1059  0.1240
 2153PEP     CB82424  15.484  -3.984  18.318  0.1953 -0.2982 -0.1517
 2153PEP     CB82425  15.097  -4.158  18.026 -0.0894 -0.2334  0.1414
 2153PEP     CB82426  14.825  -4.466  17.784 -0.0704  0.2147 -0.1551
 2153PEP     CB82427  14.833  -4.737  17.419 -0.3469  0.2587 -0.2292
 2153PEP     CB82428  14.818  -4.683  16.937  0.2166 -0.4144 -0.3918
 2153PEP     CB82429  14.540  -4.638  16.502  0.1708  0.0312 -0.1857
 2153PEP     CB82430  14.103  -4.747  16.270 -0.3703  0.2051  0.1318
 2153PEP     CB82431  13.648  -4.751  16.314  0.0784 -0.0002  0.2756
 2153PEP     CB82432  13.196  -4.809  16.475 -0.0637  0.1305 -0.5384
 2153PEP     CB82433  13.029  -4.917  16.760  0.2035  0.3685  0.0619
 2153PEP     CB82434  12.963  -5.255  17.094  0.0992 -0.2635 -0.1476
 2153PEP     CB82435  13.166  -5.551  17.326 -0.2628  0.2480  0.3773
 2153PEP     CB82436  13.405  -5.662  17.545 -0.2841 -0.1575 -0.0708
 2153PEP     CB82437  13.783  -5.640  17.531 -0.1927 -0.4535  0.0743
 2153PEP     CB82438  14.042  -5.342  17.402  0.0903 -0.1082 -0.0210
 2153PEP     CB82439  13.969  -4.902  17.214 -0.1964 -0.3312 -0.2929
 2153PEP     CB82440  13.740  -4.597  17.232 -0.0057  0.1487 -0.1363
 2154PEP     CB82441  13.350  15.232   8.961  0.0710 -0.4796  0.0742
 2154PEP     CB82442  13.589  15.435   8.664  0.3541 -0.0480  0.0067
 2154PEP     CB82443  14.009  15.468   8.598  0.1738 -0.1368 -0.4149
 2154PEP     CB82444  14.514  15.592   8.610  0.0464 -0.0005 -0.0569
 2154PEP     CB82445  14.846  15.397   8.427  0.1050 -0.0156 -0.1324
 2154PEP     CB82446  14.810  15.114   8.086  0.1575  0.0153  0.2447
 2154PEP     CB82447  14.470  14.827   7.978 -0.0001  0.3682  0.2507
 2154PEP     CB82448  14.228  14.701   7.693  0.4118  0.5832  0.0486
 2154PEP     CB82449  13.966  14.370   7.451 -0.2871 -0.1346  0.3196
 2154PEP     CB82450  13.917  14.039   7.207 -0.0806  0.0326 -0.0191
 2154PEP     CB82451  13.647  13.827   6.922 -0.0067  0.0863  0.0524
 2154PEP     CB82452  13.441  13.402   6.876  0.1723 -0.4283 -0.1145
 2154PEP     CB82453  13.060  13.181   7.078 -0.1504  0.2585 -0.2194
 2154PEP     CB82454  12.700  13.242   7.346  0.4372  0.0111 -0.2668
 2154PEP     CB82455  12.673  13.586   7.699 -0.1141 -0.1138 -0.1232
 2154PEP     CB82456  12.884  13.942   7.709  0.0848 -0.4609  0.3005
 2154PEP     CB82457  12.876  14.221   7.451  0.0690  0.1310  0.5564
 2154PEP     CB82458  12.784  14.591   7.173 -0.2024  0.0505 -0.2715
 2154PEP     CB82459  12.578  14.889   6.934 -0.1182 -0.1131 -0.0090
 2154PEP     CB82460  12.564  15.202   6.695 -0.0792  0.1794  0.3348
 2154PEP     CB82461  12.676  15.468   6.314  0.3506 -0.0123  0.1060
 2154PEP     CB82462  12.848  15.632   5.888  0.1320  0.3690  0.3419
 2154PEP     CB82463  12.910  15.819   5.423 -0.3735  0.0143 -0.0843
 2154PEP     CB82464  12.914  15.730   4.928  0.1804  0.1148  0.1323
 2154PEP     CB82465  12.648  15.631   4.521  0.0804  0.0943 -0.2699
 2154PEP     CB82466  12.497  15.296   4.233 -0.2683  0.0109 -0.2276
 2154PEP     CB82467  12.433  15.043   3.836  0.1450 -0.2960  0.0519
 2154PEP     CB82468  12.376  14.614   3.763 -0.0374 -0.0536  0.0959
 2154PEP     CB82469  12.566  14.278   4.070 -0.7394  0.4385 -0.1372
 2154PEP     CB82470  12.747  14.351   4.536  0.3194  0.2751  0.0442
 2154PEP     CB82471  12.704  14.546   4.906  0.3830 -0.0652  0.1348
 2154PEP     CB82472  12.395  14.748   5.160 -0.1081  0.2395  0.2679
 2154PEP     CB82473  12.198  15.162   5.255 -0.0194  0.0410 -0.0282
 2154PEP     CB82474  12.002  15.420   5.448  0.4373  0.0272  0.0467
 2154PEP     CB82475  11.904  15.719   5.736 -0.5270 -0.0067  0.2382
 2154PEP     CB82476  11.752  15.847   6.167  0.2527 -0.2140 -0.2203
 2154PEP     CB82477  11.463  15.797   6.483  0.3324  0.4717 -0.4327
 2154PEP     CB82478  11.043  15.653   6.549  0.1451 -0.3291 -0.2350
 2154PEP     CB82479  10.752  15.353   6.486  0.1266 -0.4115 -0.0342
 2154PEP     CB82480  10.393  15.210   6.248  0.0253 -0.0876  0.1579
 2155PEP     CB82481  18.530   1.606   2.594  0.0134  0.1041 -0.3412
 2155PEP     CB82482  18.793   1.343   2.358 -0.0603  0.5223 -0.0946
 2155PEP     CB82483  19.215   1.217   2.136  0.1983  0.0874 -0.1631
 2155PEP     CB82484  19.520   1.076   1.847 -0.1004 -0.0326  0.1870
 2155PEP     CB82485  19.580   1.087   1.389 -0.3257 -0.0057 -0.0877
 2155PEP     CB82486  19.619   1.314   1.042  0.0260  0.0788 -0.0837
 2155PEP     CB82487  19.507   1.649   0.692  0.2717 -0.0012 -0.1302
 2155PEP     CB82488  19.218   1.927   0.496  0.1902  0.0100  0.3793
 2155PEP     CB82489  18.883   1.886   0.623  0.0152  0.0959  0.0694
 2155PEP     CB82490  18.672   1.547   0.555  0.1815 -0.2334 -0.2656
 2155PEP     CB82491  18.270   1.252   0.523  0.2155  0.0149  0.0011
 2155PEP     CB82492  18.080   1.061   0.058 -0.3145 -0.0086 -0.1359
 2155PEP     CB82493  18.239   1.105  -0.363  0.1404 -0.0354  0.0183
 2155PEP     CB82494  18.677   1.148  -0.459  0.1802  0.4810  0.4045
 2155PEP     CB82495  18.942   1.568  -0.434 -0.1728  0.0493 -0.0932
 2155PEP     CB82496  18.737   1.883  -0.367  0.0796 -0.0814 -0.1822
 2155PEP     CB82497  18.549   2.214  -0.186 -0.1562  0.2349  0.1652
 2155PEP     CB82498  18.116   2.295   0.030 -0.3840  0.3261 -0.0530
 2155PEP     CB82499  17.894   1.953   0.180  0.2707  0.2424  0.2863
 2155PEP     CB82500  18.052   1.862   0.614  0.0382  0.1796 -0.1786
 2155PEP     CB82501  18.378   2.054   0.875  0.0992 -0.2546  0.2938
 2155PEP     CB82502  18.212   2.399   1.143 -0.1818  0.0385  0.0966
 2155PEP     CB82503  17.777   2.418   1.236 -0.0918  0.0411  0.1919
 2155PEP     CB82504  17.365   2.137   1.322 -0.0745 -0.1863 -0.1365
 2155PEP     CB82505  17.116   1.970   1.564  0.1006  0.3411  0.0941
 2155PEP     CB82506  16.940   1.851   1.967  0.1411  0.0035 -0.0831
 2155PEP     CB82507  16.686   2.075   2.257  0.2015 -0.1564  0.4632
 2155PEP     CB82508  16.711   2.524   2.468  0.1784 -0.6688  0.2499
 2155PEP     CB82509  16.662   2.879   2.803 -0.0237  0.2048 -0.3196
 2155PEP     CB82510  16.602   3.258   2.952 -0.6469  0.0517  0.0893
 2155PEP     CB82511  16.302   3.352   3.162  0.2284  0.1501 -0.1279
 2155PEP     CB82512  16.020   3.103   3.445  0.1747  0.4169 -0.0518
 2155PEP     CB82513  15.748   2.924   3.765  0.3376  0.3285  0.3834
 2155PEP     CB82514  15.592   2.964   4.171 -0.1346  0.1725  0.1718
 2155PEP     CB82515  15.441   2.932   4.679  0.1779  0.2678  0.3774
 2155PEP     CB82516  15.289   3.120   5.097 -0.2139  0.0429  0.3174
 2155PEP     CB82517  15.265   3.489   5.307  0.4541 -0.1582 -0.0856
 2155PEP     CB82518  15.368   3.861   5.242 -0.0015 -0.1616  0.2950
 2155PEP     CB82519  15.629   4.041   4.938  0.1889  0.0756  0.2636
 2155PEP     CB82520  15.723   3.876   4.551 -0.1029 -0.0213 -0.0315
 2156PEP     CB82521  12.718   0.877   9.584 -0.1089  0.1013 -0.1323
 2156PEP     CB82522  12.927   0.518   9.232  0.0970  0.3398 -0.1456
 2156PEP     CB82523  13.339   0.419   8.981 -0.1061 -0.1799 -0.1781
 2156PEP     CB82524  13.745   0.539   9.159 -0.3256  0.1703 -0.3012
 2156PEP     CB82525  14.077   0.577   9.120  0.2005  0.3113 -0.4293
 2156PEP     CB82526  14.434   0.400   8.858  0.2596 -0.4513  0.0852
 2156PEP     CB82527  14.784   0.236   8.607  0.1684 -0.0369 -0.3852
 2156PEP     CB82528  15.132  -0.036   8.641  0.4587 -0.0113 -0.2864
 2156PEP     CB82529  15.490  -0.248   8.710  0.2541 -0.2095  0.0884
 2156PEP     CB82530  15.931  -0.297   8.522  0.1875 -0.0804  0.2545
 2156PEP     CB82531  16.395  -0.445   8.532 -0.1197 -0.0507  0.1456
 2156PEP     CB82532  16.862  -0.433   8.640 -0.2838 -0.1130 -0.0574
 2156PEP     CB82533  17.327  -0.326   8.807 -0.0898 -0.2048  0.3714
 2156PEP     CB82534  17.710  -0.072   8.723 -0.4627 -0.2299  0.2088
 2156PEP     CB82535  17.819   0.250   8.526 -0.1400  0.1295  0.4448
 2156PEP     CB82536  17.989   0.738   8.546 -0.3228 -0.2439  0.0629
 2156PEP     CB82537  18.137   1.197   8.681 -0.2368  0.4918 -0.0829
 2156PEP     CB82538  18.496   1.293   8.775  0.0720 -0.2296  0.1118
 2156PEP     CB82539  18.889   1.202   9.002  0.1099 -0.2225  0.1211
 2156PEP     CB82540  19.202   0.923   9.262 -0.1841 -0.1980  0.2370
 2156PEP     CB82541  19.495   0.482   9.078  0.0484 -0.2532  0.0604
 2156PEP     CB82542  19.876   0.300   8.799 -0.6166  0.3038  0.2124
 2156PEP     CB82543  20.051   0.351   8.350 -0.0220  0.0253  0.0303
 2156PEP     CB82544  20.123   0.300   7.891  0.1326  0.1169  0.2104
 2156PEP     CB82545  20.340   0.086   7.621 -0.3394 -0.0665  0.0242
 2156PEP     CB82546  20.388  -0.372   7.508 -0.2502  0.4213  0.3075
 2156PEP     CB82547  20.662  -0.787   7.476 -0.1620 -0.3289  0.1123
 2156PEP     CB82548  21.002  -1.078   7.464 -0.0450 -0.4869 -0.1580
 2156PEP     CB82549  21.323  -1.307   7.265  0.1261 -0.2093 -0.1379
 2156PEP     CB82550  21.703  -1.381   7.259 -0.3262 -0.5970 -0.2047
 2156PEP     CB82551  22.111  -1.483   6.941 -0.0076 -0.0137  0.0009
 2156PEP     CB82552  22.366  -1.340   6.630 -0.4658  0.2588  0.1182
 2156PEP     CB82553  22.481  -1.442   6.186  0.0828  0.1228  0.2191
 2156PEP     CB82554  22.342  -1.661   5.797 -0.2435  0.0541  0.0926
 2156PEP     CB82555  22.313  -1.820   5.436 -0.4532 -0.0989  0.4159
 2156PEP     CB82556  22.296  -1.826   4.991 -0.0037 -0.3240  0.0510
 2156PEP     CB82557  22.283  -1.499   4.677 -0.0897 -0.1000  0.2607
 2156PEP     CB82558  22.120  -1.418   4.235  0.1359 -0.1503  0.0958
 2156PEP     CB82559  21.774  -1.775   4.088  0.3421  0.2304  0.1489
 2156PEP     CB82560  21.411  -1.966   3.874 -0.1850 -0.0927  0.1313
 2157PEP     CB82561   0.021  16.246  20.486  0.1408 -0.2227 -0.3686
 2157PEP     CB82562   0.431  16.066  20.203  0.2080  0.0056  0.1107
 2157PEP     CB82563   0.806  15.891  20.373 -0.2206  0.2783  0.3637
 2157PEP     CB82564   0.839  15.596  20.630 -0.1241  0.1016  0.0157
 2157PEP     CB82565   1.142  15.489  20.944  0.4133  0.2420  0.1719
 2157PEP     CB82566   1.594  15.523  21.160 -0.3986 -0.2171 -0.0884
 2157PEP     CB82567   1.736  15.620  21.521  0.3759 -0.0098  0.2446
 2157PEP     CB82568   1.984  15.470  21.752 -0.2374  0.0452 -0.2232
 2157PEP     CB82569   2.016  15.042  21.902 -0.2235  0.1484 -0.1718
 2157PEP     CB82570   1.879  14.756  21.657 -0.0486  0.0700  0.1592
 2157PEP     CB82571   1.750  14.577  21.198 -0.0055  0.3343  0.0919
 2157PEP     CB82572   2.037  14.312  20.895 -0.2924 -0.0450  0.0574
 2157PEP     CB82573   2.209  14.521  20.580  0.1304  0.0165  0.1058
 2157PEP     CB82574   2.251  14.952  20.468 -0.1602 -0.4861  0.1272
 2157PEP     CB82575   2.509  15.265  20.352  0.1104 -0.0677  0.3715
 2157PEP     CB82576   2.633  15.639  20.065  0.1801  0.0183 -0.1490
 2157PEP     CB82577   2.480  15.990  19.854 -0.1295  0.1157 -0.0209
 2157PEP     CB82578   2.264  16.386  19.961  0.0629 -0.3192 -0.1552
 2157PEP     CB82579   2.086  16.309  20.354 -0.2905  0.0959 -0.1367
 2157PEP     CB82580   1.798  16.268  20.648 -0.3238 -0.0132 -0.2581
 2157PEP     CB82581   1.595  16.189  20.937  0.3205  0.2322  0.0123
 2157PEP     CB82582   1.389  15.981  21.149 -0.4200  0.2943 -0.2872
 2157PEP     CB82583   1.277  15.807  21.505  0.1415 -0.1739  0.1442
 2157PEP     CB82584   1.049  15.796  21.833  0.2442  0.1640 -0.0819
 2157PEP     CB82585   1.036  15.797  22.352  0.2216  0.0024 -0.1692
 2157PEP     CB82586   0.889  16.147  22.539  0.4094  0.1539 -0.1386
 2157PEP     CB82587   0.602  16.538  22.439 -0.2209 -0.0060 -0.3549
 2157PEP     CB82588   0.687  16.712  22.105 -0.1331 -0.2412  0.1264
 2157PEP     CB82589   0.901  16.649  21.758 -0.5075  0.4403 -0.4011
 2157PEP     CB82590   1.118  16.807  21.348 -0.2529 -0.3431  0.2029
 2157PEP     CB82591   1.409  16.925  21.011  0.2027  0.1139 -0.0746
 2157PEP     CB82592   1.329  17.166  20.570 -0.3547 -0.0255 -0.2323
 2157PEP     CB82593   1.192  17.479  20.244 -0.0664 -0.2694  0.2768
 2157PEP     CB82594   1.330  17.481  19.849  0.0768  0.3844 -0.2416
 2157PEP     CB82595   1.202  17.271  19.446 -0.0397  0.2261 -0.1455
 2157PEP     CB82596   1.069  17.251  19.052 -0.2637 -0.2589 -0.1073
 2157PEP     CB82597   1.124  17.173  18.714  0.2777 -0.2963 -0.1405
 2157PEP     CB82598   0.896  17.052  18.249  0.1900  0.3571 -0.4683
 2157PEP     CB82599   0.952  16.777  17.885 -0.0329  0.2271 -0.2104
 2157PEP     CB82600   0.724  16.572  17.551 -0.3815  0.1946  0.0942
 2158PEP     CB82601  17.066  14.614   4.951  0.0906 -0.2735 -0.1717
 2158PEP     CB82602  16.793  14.265   4.922  0.0003  0.0680 -0.0471
 2158PEP     CB82603  16.835  13.947   4.649 -0.1220  0.2893 -0.0236
 2158PEP     CB82604  17.252  14.043   4.531  0.1560 -0.1566  0.4367
 2158PEP     CB82605  17.342  14.423   4.532 -0.1964 -0.2634  0.3467
 2158PEP     CB82606  17.319  14.861   4.572 -0.0872 -0.3116  0.1077
 2158PEP     CB82607  17.598  15.250   4.558 -0.0267 -0.0345  0.0342
 2158PEP     CB82608  17.892  15.596   4.305 -0.2406  0.1051  0.1379
 2158PEP     CB82609  18.051  15.694   3.832 -0.1169 -0.3300 -0.1838
 2158PEP     CB82610  18.125  15.462   3.449  0.0193  0.3185  0.3618
 2158PEP     CB82611  17.976  15.109   3.169 -0.1904  0.1088  0.3146
 2158PEP     CB82612  17.864  14.938   2.756  0.1602  0.4905 -0.0849
 2158PEP     CB82613  17.942  15.289   2.306 -0.0416  0.0679  0.0154
 2158PEP     CB82614  17.926  15.581   1.940  0.0621 -0.0240  0.1814
 2158PEP     CB82615  17.785  15.957   1.753 -0.1081  0.2965 -0.2751
 2158PEP     CB82616  17.619  16.032   1.382 -0.3846 -0.0990  0.2849
 2158PEP     CB82617  17.363  15.893   1.244  0.1819 -0.0383 -0.1929
 2158PEP     CB82618  17.080  15.485   1.273 -0.0431  0.0638  0.0775
 2158PEP     CB82619  16.782  15.248   1.362  0.4822  0.0453 -0.2086
 2158PEP     CB82620  16.315  15.075   1.387 -0.1771  0.0313 -0.0538
 2158PEP     CB82621  15.950  15.208   1.304  0.1995 -0.0872  0.2086
 2158PEP     CB82622  15.794  15.561   1.397  0.0497 -0.4763  0.0105
 2158PEP     CB82623  15.515  15.914   1.453  0.2018 -0.1327  0.1118
 2158PEP     CB82624  15.212  16.106   1.492 -0.2262  0.3548  0.1268
 2158PEP     CB82625  14.877  16.416   1.524 -0.3550  0.3589 -0.0004
 2158PEP     CB82626  14.450  16.503   1.578  0.0170  0.1317 -0.0355
 2158PEP     CB82627  14.180  16.579   1.867 -0.6249 -0.1351  0.1308
 2158PEP     CB82628  13.805  16.758   1.933  0.1158  0.0022  0.0740
 2158PEP     CB82629  13.434  16.908   2.208 -0.2209 -0.1928 -0.1834
 2158PEP     CB82630  13.069  17.252   2.211  0.1594  0.3336 -0.0313
 2158PEP     CB82631  12.684  17.479   2.052  0.0910 -0.3669  0.6002
 2158PEP     CB82632  12.352  17.721   1.876 -0.4078  0.0770  0.1356
 2158PEP     CB82633  12.368  17.943   1.447  0.0337 -0.2944 -0.3738
 2158PEP     CB82634  12.728  17.850   1.127 -0.0355  0.0583 -0.0455
 2158PEP     CB82635  12.920  17.738   0.773  0.2819 -0.2122  0.3125
 2158PEP     CB82636  13.231  17.656   0.649 -0.1273  0.5533  0.2097
 2158PEP     CB82637  13.647  17.564   0.801  0.1456  0.1510 -0.0037
 2158PEP     CB82638  13.827  17.135   0.863  0.4702 -0.1792 -0.4449
 2158PEP     CB82639  13.727  16.731   1.108  0.3193  0.0308  0.1167
 2158PEP     CB82640  13.610  16.468   1.340  0.2158 -0.1270  0.0586
 2159PEP     CB82641   1.267  20.222  19.412 -0.2620  0.1953 -0.1885
 2159PEP     CB82642   1.042  20.044  19.122  0.1761  0.2082 -0.0673
 2159PEP     CB82643   0.953  19.905  18.681  0.1127  0.0588 -0.1054
 2159PEP     CB82644   0.800  20.011  18.250  0.3106 -0.0985 -0.1023
 2159PEP     CB82645   0.452  20.062  17.927  0.1638 -0.0371  0.0238
 2159PEP     CB82646   0.432  20.189  17.581  0.2113  0.2649 -0.0436
 2159PEP     CB82647   0.216  20.554  17.539 -0.0378  0.0042  0.2177
 2159PEP     CB82648  -0.118  20.805  17.827  0.2940  0.3922 -0.1538
 2159PEP     CB82649  -0.256  21.062  18.071 -0.1506  0.0342  0.4511
 2159PEP     CB82650  -0.695  21.227  18.201 -0.3538 -0.0198  0.1866
 2159PEP     CB82651  -0.986  21.519  17.908 -0.3598  0.2454  0.1776
 2159PEP     CB82652  -1.139  21.931  17.987 -0.1748 -0.1020  0.2270
 2159PEP     CB82653  -1.606  22.039  18.239 -0.1531 -0.6055 -0.2232
 2159PEP     CB82654  -1.834  22.351  18.501  0.3048 -0.0819  0.4953
 2159PEP     CB82655  -1.712  22.793  18.545  0.2010  0.0702  0.1847
 2159PEP     CB82656  -1.820  23.135  18.407 -0.0131  0.3026 -0.0989
 2159PEP     CB82657  -2.266  23.149  18.131 -0.0860  0.4584 -0.2619
 2159PEP     CB82658  -2.642  23.110  18.387 -0.2219  0.0511  0.0183
 2159PEP     CB82659  -2.619  23.052  18.788  0.0048 -0.4446 -0.4258
 2159PEP     CB82660  -2.362  23.136  19.190  0.1513  0.1617 -0.3185
 2159PEP     CB82661  -2.112  23.232  19.640  0.1360 -0.4531 -0.0859
 2159PEP     CB82662  -1.823  23.086  20.017  0.0853 -0.4011  0.3344
 2159PEP     CB82663  -1.818  22.620  20.089 -0.4018 -0.5459 -0.0526
 2159PEP     CB82664  -2.145  22.310  20.022  0.4870 -0.1619  0.3054
 2159PEP     CB82665  -2.265  22.035  19.697  0.3197 -0.0803 -0.1016
 2159PEP     CB82666  -2.285  22.083  19.225  0.0090 -0.1815  0.0471
 2159PEP     CB82667  -1.912  22.227  18.922  0.1035 -0.1579 -0.3531
 2159PEP     CB82668  -1.741  22.643  19.026 -0.2709  0.4178  0.1187
 2159PEP     CB82669  -1.979  22.799  19.507  0.1945  0.0216  0.2412
 2159PEP     CB82670  -2.361  22.577  19.655 -0.4173  0.1938 -0.3342
 2159PEP     CB82671  -2.646  22.248  19.439 -0.5990 -0.3286 -0.1114
 2159PEP     CB82672  -2.697  21.735  19.553  0.3258  0.5657 -0.0452
 2159PEP     CB82673  -2.433  21.578  19.924  0.0978 -0.0972  0.1543
 2159PEP     CB82674  -2.060  21.811  20.155  0.1853  0.1051 -0.3826
 2159PEP     CB82675  -1.837  22.119  20.408  0.1813 -0.1744  0.2027
 2159PEP     CB82676  -1.804  22.580  20.641 -0.4391  0.2205  0.0837
 2159PEP     CB82677  -2.064  22.907  20.721  0.1700  0.1431  0.0903
 2159PEP     CB82678  -2.145  23.410  20.636  0.0666 -0.2182 -0.1285
 2159PEP     CB82679  -1.947  23.764  20.776 -0.0003  0.0828 -0.2187
 2159PEP     CB82680  -1.436  23.831  20.855 -0.5236  0.2696 -0.2444
 2160PEP     CB82681   8.772  18.322   0.734 -0.0610 -0.2701 -0.2142
 2160PEP     CB82682   8.735  17.999   0.330  0.2598 -0.3649  0.6825
 2160PEP     CB82683   8.848  17.760  -0.066  0.0179  0.0484  0.1980
 2160PEP     CB82684   9.127  17.756  -0.430 -0.1942 -0.0357  0.0533
 2160PEP     CB82685   9.374  17.665  -0.819 -0.0092 -0.0078 -0.3365
 2160PEP     CB82686   9.311  17.409  -1.187  0.0131 -0.2842  0.3307
 2160PEP     CB82687   9.052  17.181  -1.615  0.1246  0.1805  0.3798
 2160PEP     CB82688   8.919  16.712  -1.822 -0.0249 -0.2036 -0.0828
 2160PEP     CB82689   8.453  16.519  -1.698  0.1308  0.2243  0.2176
 2160PEP     CB82690   8.259  16.643  -1.301 -0.1617 -0.1577 -0.1258
 2160PEP     CB82691   8.148  17.004  -1.147  0.0597  0.1729  0.3347
 2160PEP     CB82692   8.344  17.205  -0.867 -0.2131 -0.3142  0.1306
 2160PEP     CB82693   8.775  17.029  -0.622  0.2608  0.2853  0.4578
 2160PEP     CB82694   9.117  16.785  -0.325  0.1558  0.2132  0.3515
 2160PEP     CB82695   9.327  16.438  -0.018  0.1869  0.1406  0.2201
 2160PEP     CB82696   9.378  16.039  -0.105  0.2965  0.1237  0.3145
 2160PEP     CB82697   9.692  15.782  -0.112 -0.4097 -0.0115 -0.0828
 2160PEP     CB82698   9.969  15.463  -0.263 -0.0924  0.1168 -0.1741
 2160PEP     CB82699  10.236  15.119  -0.155  0.3816  0.0139 -0.2614
 2160PEP     CB82700  10.533  14.891   0.003  0.1117 -0.0517  0.3598
 2160PEP     CB82701  10.922  14.716   0.004  0.2863  0.2734 -0.0884
 2160PEP     CB82702  11.204  14.450   0.191 -0.3004  0.3063 -0.0509
 2160PEP     CB82703  11.282  14.075   0.390  0.4141 -0.2404  0.0837
 2160PEP     CB82704  11.565  13.906   0.644  0.0475 -0.2918  0.1687
 2160PEP     CB82705  11.735  13.686   0.945 -0.2508  0.0480  0.1078
 2160PEP     CB82706  11.981  13.503   1.251 -0.4125 -0.1285  0.1034
 2160PEP     CB82707  12.314  13.386   1.391 -0.0206 -0.4377  0.6136
 2160PEP     CB82708  12.370  13.291   1.783  0.5240 -0.1372  0.1719
 2160PEP     CB82709  11.999  13.469   1.988 -0.0722  0.2417 -0.0800
 2160PEP     CB82710  11.647  13.560   1.713 -0.2773 -0.0137 -0.0287
 2160PEP     CB82711  11.454  13.788   1.319 -0.1151  0.1036 -0.2254
 2160PEP     CB82712  11.286  14.220   1.138 -0.3619 -0.2194  0.2084
 2160PEP     CB82713  10.915  14.466   1.204 -0.1130  0.3102  0.5104
 2160PEP     CB82714  10.786  14.430   1.637 -0.5532  0.0421 -0.2763
 2160PEP     CB82715  10.937  14.065   1.859  0.3804 -0.4356 -0.1904
 2160PEP     CB82716  10.800  13.697   2.194  0.0567 -0.0476  0.3402
 2160PEP     CB82717  10.597  13.333   2.382 -0.2675  0.0397 -0.1030
 2160PEP     CB82718  10.751  12.939   2.356 -0.6069 -0.0843  0.1973
 2160PEP     CB82719  11.225  12.834   1.977 -0.6361 -0.0568 -0.0781
 2160PEP     CB82720  11.378  13.115   1.626  0.1776  0.3534  0.0015
 2161PEP     CB82721  21.906  20.131  16.206  0.1134 -0.2741 -0.3098
 2161PEP     CB82722  21.938  20.461  16.551 -0.3982  0.5631 -0.0650
 2161PEP     CB82723  21.612  20.570  16.905  0.0658  0.4884 -0.1934
 2161PEP     CB82724  21.422  20.973  16.987 -0.3115  0.1135  0.0955
 2161PEP     CB82725  21.527  21.330  17.089 -0.2050 -0.0547 -0.3858
 2161PEP     CB82726  21.711  21.661  16.771 -0.1452 -0.2251 -0.2994
 2161PEP     CB82727  22.099  21.850  16.652 -0.0670 -0.1044 -0.5615
 2161PEP     CB82728  22.227  21.859  16.277 -0.2728  0.5131 -0.1371
 2161PEP     CB82729  22.133  21.976  15.752  0.0551 -0.0388  0.2096
 2161PEP     CB82730  21.744  22.132  15.515  0.0288 -0.3307 -0.4495
 2161PEP     CB82731  21.393  22.193  15.374 -0.4452  0.1695  0.0599
 2161PEP     CB82732  20.964  22.378  15.417  0.0811 -0.0376  0.2036
 2161PEP     CB82733  20.654  22.583  15.178 -0.1350  0.1201 -0.0312
 2161PEP     CB82734  20.527  23.047  15.143 -0.0737 -0.0273  0.1538
 2161PEP     CB82735  20.641  23.397  15.006  0.1069  0.3609  0.3497
 2161PEP     CB82736  20.605  23.757  14.756  0.2899  0.2924  0.1175
 2161PEP     CB82737  20.365  24.147  14.779 -0.3709  0.2663 -0.2816
 2161PEP     CB82738  20.486  24.475  14.833  0.0879 -0.0745 -0.0632
 2161PEP     CB82739  20.582  24.850  14.625  0.3779 -0.1561  0.1514
 2161PEP     CB82740  20.970  25.076  14.457 -0.0628  0.0907 -0.2427
 2161PEP     CB82741  21.383  25.065  14.269 -0.0267 -0.2666  0.3673
 2161PEP     CB82742  21.783  24.900  14.246  0.0007  0.0046  0.2760
 2161PEP     CB82743  21.971  24.640  14.564  0.1053 -0.0053 -0.0364
 2161PEP     CB82744  21.869  24.150  14.658  0.0895 -0.5384 -0.2348
 2161PEP     CB82745  21.939  23.852  14.376  0.1654 -0.3475 -0.1085
 2161PEP     CB82746  22.342  23.575  14.267 -0.1333  0.7495  0.1767
 2161PEP     CB82747  22.714  23.478  14.543  0.3808  0.1944  0.1949
 2161PEP     CB82748  23.022  23.544  14.920 -0.0481  0.4690  0.1078
 2161PEP     CB82749  23.205  23.742  15.248 -0.0455  0.2561 -0.0609
 2161PEP     CB82750  23.313  24.023  15.565 -0.0257 -0.0688  0.0757
 2161PEP     CB82751  23.172  24.028  15.953  0.1139  0.1923  0.0687
 2161PEP     CB82752  22.943  24.422  16.249  0.0402 -0.2397  0.1395
 2161PEP     CB82753  22.969  24.751  16.388 -0.0806 -0.0064 -0.1540
 2161PEP     CB82754  23.074  25.106  16.106  0.0366  0.1272 -0.3123
 2161PEP     CB82755  23.100  25.063  15.680  0.0467 -0.0039  0.0035
 2161PEP     CB82756  22.956  24.934  15.352 -0.1200  0.1953 -0.2212
 2161PEP     CB82757  22.946  24.662  14.996 -0.5899  0.2770 -0.0950
 2161PEP     CB82758  23.172  24.416  14.656  0.1703 -0.2700 -0.1534
 2161PEP     CB82759  23.445  24.406  14.285  0.5500 -0.0551 -0.0532
 2161PEP     CB82760  23.573  24.780  14.012  0.1220  0.0161 -0.2600
 2162PEP     CB82761   3.097  15.658   0.311  0.0283  0.3639  0.1403
 2162PEP     CB82762   2.772  15.319   0.129  0.0781 -0.0357 -0.2802
 2162PEP     CB82763   2.550  15.295  -0.206 -0.1807 -0.2026 -0.6058
 2162PEP     CB82764   2.258  15.127  -0.547 -0.2311 -0.1011  0.0424
 2162PEP     CB82765   1.869  15.170  -0.673 -0.0360  0.1197 -0.1884
 2162PEP     CB82766   1.573  15.175  -0.409  0.1193  0.3271 -0.0296
 2162PEP     CB82767   1.553  14.968  -0.013 -0.2110  0.0446 -0.0850
 2162PEP     CB82768   1.776  14.897   0.348 -0.1657 -0.1058 -0.0739
 2162PEP     CB82769   2.130  14.723   0.638 -0.2624 -0.2992 -0.5122
 2162PEP     CB82770   2.231  14.801   1.125 -0.1610  0.3214  0.0144
 2162PEP     CB82771   2.349  15.094   1.360 -0.0878 -0.1921  0.2029
 2162PEP     CB82772   2.417  15.456   1.318 -0.1422 -0.3931 -0.0970
 2162PEP     CB82773   2.470  15.806   0.994 -0.0263 -0.1469  0.0232
 2162PEP     CB82774   2.527  16.138   0.699 -0.3048 -0.1024  0.0785
 2162PEP     CB82775   2.511  16.227   0.231 -0.2828  0.0178 -0.5846
 2162PEP     CB82776   2.267  16.267  -0.183 -0.5911  0.0734  0.1566
 2162PEP     CB82777   2.160  16.098  -0.590 -0.6648  0.1714 -0.0744
 2162PEP     CB82778   2.068  15.930  -0.949 -0.1745 -0.2756 -0.0444
 2162PEP     CB82779   1.801  15.729  -1.245  0.3590 -0.3052 -0.1069
 2162PEP     CB82780   1.590  15.886  -1.575 -0.1061 -0.2878  0.5138
 2162PEP     CB82781   1.257  16.159  -1.647 -0.1436  0.1600  0.0090
 2162PEP     CB82782   0.888  16.423  -1.636 -0.0549 -0.4434  0.2366
 2162PEP     CB82783   0.506  16.595  -1.692  0.0911 -0.2039  0.1694
 2162PEP     CB82784   0.214  16.830  -1.741 -0.0462  0.0899 -0.2012
 2162PEP     CB82785  -0.114  16.971  -1.994  0.2567  0.1885 -0.2618
 2162PEP     CB82786  -0.564  17.089  -1.877  0.0582 -0.2322 -0.1799
 2162PEP     CB82787  -0.776  16.873  -1.485 -0.0881 -0.0653  0.1727
 2162PEP     CB82788  -0.592  16.746  -1.061 -0.0668 -0.2127  0.4047
 2162PEP     CB82789  -0.180  16.839  -0.876  0.2675 -0.1090 -0.2846
 2162PEP     CB82790   0.150  16.881  -0.705  0.1078 -0.0284 -0.1250
 2162PEP     CB82791   0.414  17.025  -0.339  0.0112 -0.0860  0.0081
 2162PEP     CB82792   0.873  17.134  -0.155 -0.1073  0.1241  0.1398
 2162PEP     CB82793   1.135  17.528  -0.143 -0.0150 -0.0325 -0.1474
 2162PEP     CB82794   0.988  17.966   0.122 -0.1827  0.8493  0.1429
 2162PEP     CB82795   0.734  18.136   0.318  0.1384  0.2075 -0.0130
 2162PEP     CB82796   0.379  18.316   0.542 -0.0877  0.0417 -0.2729
 2162PEP     CB82797   0.059  18.688   0.464  0.0023  0.2582  0.2813
 2162PEP     CB82798  -0.371  18.768   0.456  0.1534  0.4475  0.0315
 2162PEP     CB82799  -0.737  18.667   0.314  0.2153 -0.0213  0.0728
 2162PEP     CB82800  -1.050  18.458   0.100  0.1695 -0.2606  0.2340
 2163PEP     CB82801  17.940  11.227   5.711  0.2116  0.0837  0.0364
 2163PEP     CB82802  18.002  11.280   6.128 -0.3528  0.2863 -0.1109
 2163PEP     CB82803  18.094  11.738   6.294 -0.3762  0.2257 -0.0565
 2163PEP     CB82804  18.445  12.008   6.302 -0.2591 -0.6224 -0.0968
 2163PEP     CB82805  18.846  12.061   6.083 -0.2141 -0.2664 -0.2870
 2163PEP     CB82806  19.278  12.291   5.919  0.1016  0.1360  0.0998
 2163PEP     CB82807  19.644  12.475   6.008  0.5822 -0.0863 -0.1724
 2163PEP     CB82808  19.946  12.757   6.106  0.1102 -0.0852 -0.2641
 2163PEP     CB82809  20.239  12.968   6.416  0.0632 -0.0526  0.1509
 2163PEP     CB82810  20.659  13.079   6.346  0.0558  0.1886 -0.2872
 2163PEP     CB82811  20.713  13.077   5.928 -0.1528 -0.0321  0.0907
 2163PEP     CB82812  20.373  13.124   5.658  0.0334 -0.0890 -0.0939
 2163PEP     CB82813  20.030  12.888   5.597 -0.1907  0.4881  0.4291
 2163PEP     CB82814  20.052  12.466   5.419  0.0847 -0.2520  0.1340
 2163PEP     CB82815  20.455  12.280   5.220 -0.0463  0.4072 -0.0183
 2163PEP     CB82816  20.872  12.161   5.354  0.1617  0.2318  0.2343
 2163PEP     CB82817  21.267  12.013   5.239  0.1814  0.2497  0.1182
 2163PEP     CB82818  21.749  11.872   5.272  0.3016 -0.2485 -0.1419
 2163PEP     CB82819  21.803  11.473   5.348 -0.1741  0.3170  0.1395
 2163PEP     CB82820  21.594  11.022   5.474 -0.0090  0.1613 -0.1688
 2163PEP     CB82821  21.438  10.622   5.351  0.0511 -0.3246 -0.1660
 2163PEP     CB82822  21.480  10.361   5.037 -0.1020  0.1115  0.1001
 2163PEP     CB82823  21.429   9.922   4.927  0.1667  0.0671 -0.3567
 2163PEP     CB82824  21.604   9.464   4.748  0.3514  0.2729  0.1445
 2163PEP     CB82825  21.756   9.075   4.935 -0.2868  0.2000 -0.1078
 2163PEP     CB82826  21.988   8.662   4.841 -0.3570 -0.3387  0.0675
 2163PEP     CB82827  22.223   8.529   4.518  0.1437 -0.3090  0.3716
 2163PEP     CB82828  22.295   8.135   4.421  0.0169  0.0156 -0.1312
 2163PEP     CB82829  22.082   7.767   4.610  0.1343 -0.2542  0.1251
 2163PEP     CB82830  22.111   7.879   5.021 -0.0887  0.0591  0.1103
 2163PEP     CB82831  22.287   8.249   4.915 -0.0968 -0.2439 -0.0423
 2163PEP     CB82832  22.641   8.555   4.744 -0.1378 -0.0887  0.1975
 2163PEP     CB82833  22.967   8.790   4.792 -0.0968 -0.0390  0.0468
 2163PEP     CB82834  23.220   9.147   4.607 -0.2267 -0.0185 -0.1760
 2163PEP     CB82835  23.413   9.437   4.336  0.0216  0.1329 -0.3894
 2163PEP     CB82836  23.880   9.538   4.249 -0.3717  0.0884 -0.0987
 2163PEP     CB82837  24.166   9.249   4.366 -0.1399 -0.1514  0.0447
 2163PEP     CB82838  24.269   9.123   4.813  0.3471 -0.0648 -0.3191
 2163PEP     CB82839  23.975   9.298   5.221 -0.0013  0.1279  0.0375
 2163PEP     CB82840  23.810   9.779   5.312  0.2789 -0.3802  0.3963
 2164PEP     CB82841  21.956   8.905  13.743 -0.0987 -0.0025 -0.3418
 2164PEP     CB82842  22.335   8.762  13.596 -0.4285 -0.0549  0.1038
 2164PEP     CB82843  22.685   8.932  13.435  0.2716  0.2896 -0.0464
 2164PEP     CB82844  22.708   9.160  13.091  0.1749 -0.1309  0.1028
 2164PEP     CB82845  22.360   9.445  12.937  0.0322  0.0796  0.4591
 2164PEP     CB82846  21.987   9.318  12.682 -0.5624 -0.0935  0.0509
 2164PEP     CB82847  21.811   9.291  12.284 -0.1564  0.4885 -0.0780
 2164PEP     CB82848  21.437   9.408  12.069 -0.3890  0.0020 -0.1626
 2164PEP     CB82849  21.032   9.538  12.005  0.1396 -0.1303  0.2621
 2164PEP     CB82850  20.577   9.381  11.882 -0.0864  0.1690  0.0115
 2164PEP     CB82851  20.430   8.934  11.806  0.4888 -0.0450  0.1187
 2164PEP     CB82852  20.294   8.576  11.570 -0.1743  0.0222  0.3063
 2164PEP     CB82853  20.303   8.266  11.258  0.0021  0.0592 -0.2258
 2164PEP     CB82854  20.499   8.103  10.823 -0.0112  0.3064  0.0249
 2164PEP     CB82855  20.846   7.915  10.591 -0.2395  0.0020  0.0464
 2164PEP     CB82856  21.175   7.829  10.285  0.0639 -0.4045 -0.0643
 2164PEP     CB82857  21.447   7.758   9.803 -0.3850  0.2123  0.2933
 2164PEP     CB82858  21.533   7.656   9.438 -0.1541 -0.2243 -0.0361
 2164PEP     CB82859  21.557   7.476   9.090 -0.2372  0.2685 -0.2562
 2164PEP     CB82860  21.543   7.490   8.669  0.1367 -0.4399  0.2422
 2164PEP     CB82861  21.731   7.487   8.245 -0.3853 -0.3521 -0.1970
 2164PEP     CB82862  22.193   7.632   8.113 -0.0767  0.1029  0.0195
 2164PEP     CB82863  22.642   7.572   8.360 -0.0199 -0.0798  0.1025
 2164PEP     CB82864  22.711   7.331   8.653 -0.2175  0.1540 -0.4380
 2164PEP     CB82865  22.360   7.120   8.895  0.1530  0.0388 -0.2091
 2164PEP     CB82866  21.962   7.028   8.823  0.1098  0.0210 -0.0686
 2164PEP     CB82867  21.757   6.663   8.644  0.0033  0.3705  0.3326
 2164PEP     CB82868  21.544   6.534   8.328  0.1052 -0.1382  0.2293
 2164PEP     CB82869  21.221   6.459   8.119 -0.0419  0.0522 -0.3197
 2164PEP     CB82870  20.843   6.281   7.850 -0.0869  0.1375 -0.2642
 2164PEP     CB82871  20.577   5.964   7.654 -0.1594 -0.2816 -0.0781
 2164PEP     CB82872  20.601   5.436   7.672  0.2513 -0.1078 -0.0739
 2164PEP     CB82873  20.532   4.963   7.547  0.0840  0.1185  0.1353
 2164PEP     CB82874  20.538   4.603   7.452  0.1371  0.2119 -0.4002
 2164PEP     CB82875  20.320   4.214   7.330 -0.2903 -0.1656 -0.1162
 2164PEP     CB82876  20.151   3.794   7.364  0.3354  0.2120 -0.0247
 2164PEP     CB82877  20.002   3.352   7.403  0.0004 -0.3382 -0.2205
 2164PEP     CB82878  19.981   2.944   7.279  0.0541 -0.0473  0.2282
 2164PEP     CB82879  19.763   2.596   7.204  0.1701 -0.0623  0.1931
 2164PEP     CB82880  19.510   2.193   7.154  0.2794  0.3836  0.4207
 2165PEP     CB82881  20.769  17.824   9.341  0.1573  0.0538 -0.0630
 2165PEP     CB82882  20.330  17.983   9.391 -0.0751  0.2053 -0.0663
 2165PEP     CB82883  19.958  18.115   9.085 -0.1147  0.1436 -0.0297
 2165PEP     CB82884  19.648  18.184   8.715  0.2220  0.3411 -0.2080
 2165PEP     CB82885  19.466  18.517   8.383 -0.4335  0.0141 -0.1261
 2165PEP     CB82886  19.066  18.783   8.260 -0.1960  0.1158 -0.4012
 2165PEP     CB82887  18.720  18.865   8.575  0.1616 -0.1118 -0.6287
 2165PEP     CB82888  18.571  18.494   8.867 -0.2484 -0.0889 -0.1365
 2165PEP     CB82889  18.499  18.030   8.998 -0.1029  0.4827 -0.0309
 2165PEP     CB82890  18.355  17.593   9.177 -0.0715 -0.1130  0.1945
 2165PEP     CB82891  17.945  17.389   9.225 -0.0692 -0.2606 -0.0173
 2165PEP     CB82892  17.786  17.012   9.426  0.1113  0.4776  0.0140
 2165PEP     CB82893  17.968  16.808   9.708  0.2520  0.0676 -0.1600
 2165PEP     CB82894  18.266  16.922   9.978  0.1210  0.3390 -0.3700
 2165PEP     CB82895  18.695  16.766  10.165  0.1818 -0.3293  0.0401
 2165PEP     CB82896  19.108  16.890  10.138 -0.2440 -0.2515 -0.0587
 2165PEP     CB82897  19.268  17.287   9.974 -0.1369  0.3032 -0.0054
 2165PEP     CB82898  19.476  17.587   9.835 -0.2097  0.2239  0.0021
 2165PEP     CB82899  19.548  18.035   9.710  0.2584  0.0243  0.4163
 2165PEP     CB82900  19.717  18.383   9.395  0.1823 -0.0963  0.2103
 2165PEP     CB82901  20.138  18.561   9.120  0.1481 -0.0652 -0.1383
 2165PEP     CB82902  20.589  18.461   9.125  0.1686  0.1481  0.0935
 2165PEP     CB82903  20.902  18.284   9.357  0.5985 -0.0149 -0.0504
 2165PEP     CB82904  21.273  18.109   9.386  0.4207 -0.0701 -0.2154
 2165PEP     CB82905  21.559  17.835   9.362 -0.0509  0.1813  0.4800
 2165PEP     CB82906  21.911  17.746   9.091  0.1045 -0.0368  0.2220
 2165PEP     CB82907  22.334  17.857   9.006 -0.1775  0.1821  0.0060
 2165PEP     CB82908  22.754  17.828   8.902 -0.2831  0.0344 -0.5331
 2165PEP     CB82909  23.151  17.866   8.949 -0.1506 -0.2515 -0.3680
 2165PEP     CB82910  23.394  17.549   9.060 -0.1582  0.0598  0.2306
 2165PEP     CB82911  23.241  17.117   9.219 -0.0482 -0.1658 -0.0542
 2165PEP     CB82912  23.212  16.662   9.156 -0.3842  0.0389  0.2413
 2165PEP     CB82913  23.154  16.237   9.041  0.0768 -0.0044  0.2622
 2165PEP     CB82914  23.381  15.907   9.084  0.3824 -0.1447  0.2588
 2165PEP     CB82915  23.468  15.500   9.089  0.2405 -0.0990 -0.2701
 2165PEP     CB82916  23.769  15.259   9.150  0.3522  0.0908  0.0003
 2165PEP     CB82917  24.133  14.934   9.135  0.0034 -0.0713  0.0792
 2165PEP     CB82918  24.468  14.827   9.052 -0.1080  0.1105  0.3258
 2165PEP     CB82919  24.634  14.667   8.796 -0.3150 -0.4338 -0.0291
 2165PEP     CB82920  24.603  14.298   8.520 -0.1277  0.2937  0.0118
 2166PEP     CB82921   0.083  14.036   4.940  0.3596 -0.0529 -0.1561
 2166PEP     CB82922   0.573  13.837   4.980  0.0084  0.0372  0.5689
 2166PEP     CB82923   0.830  13.676   4.622 -0.0630 -0.0179  0.2151
 2166PEP     CB82924   0.667  13.525   4.171 -0.1274  0.2775 -0.0681
 2166PEP     CB82925   0.469  13.214   3.977  0.3348 -0.0292  0.2497
 2166PEP     CB82926   0.324  12.751   3.893 -0.3512  0.2881 -0.3279
 2166PEP     CB82927   0.194  12.232   3.856 -0.1719  0.0987 -0.1474
 2166PEP     CB82928   0.520  11.975   3.671 -0.0409 -0.0802 -0.0584
 2166PEP     CB82929   1.003  12.052   3.716 -0.1870  0.1623 -0.4588
 2166PEP     CB82930   1.217  12.409   3.804 -0.0636  0.5401  0.2707
 2166PEP     CB82931   1.189  12.831   3.778  0.1264 -0.4258 -0.2081
 2166PEP     CB82932   0.921  13.204   3.632  0.1292  0.0129 -0.1495
 2166PEP     CB82933   0.963  13.593   3.382  0.0353 -0.1560  0.1913
 2166PEP     CB82934   1.214  13.788   3.098 -0.1793  0.2542  0.3014
 2166PEP     CB82935   1.534  13.948   2.877 -0.0894  0.1028  0.1569
 2166PEP     CB82936   1.689  14.372   2.611 -0.3726  0.4792 -0.5514
 2166PEP     CB82937   1.723  14.781   2.506 -0.2786  0.1141 -0.1903
 2166PEP     CB82938   1.741  15.200   2.673 -0.2078 -0.1493  0.2550
 2166PEP     CB82939   1.768  15.371   3.077  0.0264  0.3574  0.0564
 2166PEP     CB82940   2.063  15.421   3.442 -0.2763  0.3620 -0.1195
 2166PEP     CB82941   2.434  15.456   3.750 -0.0157 -0.0117 -0.1333
 2166PEP     CB82942   2.848  15.509   3.968 -0.2052 -0.3789 -0.0534
 2166PEP     CB82943   3.119  15.213   4.263  0.2336  0.0919 -0.6361
 2166PEP     CB82944   3.430  14.956   4.070  0.0828 -0.0991 -0.1017
 2166PEP     CB82945   3.551  14.778   3.654 -0.1039 -0.2031  0.0789
 2166PEP     CB82946   3.677  14.901   3.269  0.2343 -0.0184  0.2808
 2166PEP     CB82947   3.825  15.334   3.077  0.1863  0.0813 -0.0523
 2166PEP     CB82948   3.731  15.745   3.024 -0.2816 -0.2041 -0.1960
 2166PEP     CB82949   3.526  16.094   2.780  0.1057 -0.3373 -0.2541
 2166PEP     CB82950   3.164  16.292   2.710 -0.0718 -0.1415  0.0978
 2166PEP     CB82951   2.772  16.251   2.394  0.2303  0.0283 -0.2404
 2166PEP     CB82952   2.461  16.324   2.100 -0.2012 -0.2846 -0.1011
 2166PEP     CB82953   2.342  16.631   1.861  0.0851  0.1806 -0.5500
 2166PEP     CB82954   2.270  17.036   2.006 -0.2360 -0.2588  0.2147
 2166PEP     CB82955   2.301  17.146   2.438  0.0523 -0.0822  0.0654
 2166PEP     CB82956   2.000  17.083   2.744 -0.4004  0.0379 -0.0334
 2166PEP     CB82957   1.580  17.195   2.806 -0.0032 -0.4450  0.0151
 2166PEP     CB82958   1.291  17.262   3.213  0.1977  0.2342 -0.0257
 2166PEP     CB82959   1.153  17.606   3.436  0.2090 -0.0550  0.0423
 2166PEP     CB82960   0.901  17.989   3.568  0.5978 -0.1222 -0.1359
 2167PEP     CB82961   4.647   2.322   3.787 -0.0021  0.2218 -0.4572
 2167PEP     CB82962   5.104   2.237   3.637 -0.1536 -0.4231 -0.1858
 2167PEP     CB82963   5.518   2.292   3.759  0.3835 -0.1241  0.0730
 2167PEP     CB82964   5.663   2.137   4.146  0.2238  0.1873 -0.1353
 2167PEP     CB82965   5.331   1.882   4.567  0.3088 -0.0398  0.2253
 2167PEP     CB82966   4.934   2.089   4.680 -0.2422 -0.0491 -0.0783
 2167PEP     CB82967   4.805   2.503   4.548  0.1063  0.2917  0.2085
 2167PEP     CB82968   4.897   2.934   4.484  0.0628  0.0844 -0.0815
 2167PEP     CB82969   4.942   3.376   4.304 -0.0793  0.2909 -0.3583
 2167PEP     CB82970   4.759   3.703   4.040 -0.6839 -0.0058 -0.0154
 2167PEP     CB82971   4.566   3.716   3.579 -0.2363 -0.5176  0.0876
 2167PEP     CB82972   4.509   3.385   3.349 -0.0661 -0.1862  0.0413
 2167PEP     CB82973   4.521   2.986   3.530  0.2192 -0.2314 -0.2184
 2167PEP     CB82974   4.329   2.655   3.618  0.0071  0.0574 -0.4752
 2167PEP     CB82975   4.056   2.517   3.881 -0.3149  0.1735  0.1648
 2167PEP     CB82976   3.918   2.365   4.202 -0.0374 -0.1155  0.2382
 2167PEP     CB82977   3.942   1.977   4.417  0.0047 -0.2362 -0.0571
 2167PEP     CB82978   4.167   1.609   4.399  0.1225 -0.1374 -0.2848
 2167PEP     CB82979   4.399   1.228   4.527  0.0798 -0.1757  0.2342
 2167PEP     CB82980   4.536   0.739   4.548 -0.1856  0.0449  0.3621
 2167PEP     CB82981   4.474   0.303   4.570  0.1087  0.1272 -0.2423
 2167PEP     CB82982   4.416  -0.155   4.420  0.1548  0.3513  0.1652
 2167PEP     CB82983   4.244  -0.498   4.387 -0.3679  0.1387  0.0583
 2167PEP     CB82984   3.991  -0.710   4.183  0.0150  0.1367  0.1417
 2167PEP     CB82985   3.558  -0.786   3.947  0.1830  0.1542  0.0551
 2167PEP     CB82986   3.392  -1.021   3.525 -0.3338  0.2568 -0.2534
 2167PEP     CB82987   3.230  -1.335   3.206 -0.0036 -0.2611 -0.0094
 2167PEP     CB82988   3.060  -1.707   3.048  0.1302  0.1525 -0.0575
 2167PEP     CB82989   3.069  -2.138   3.020 -0.3592 -0.1622 -0.1329
 2167PEP     CB82990   3.264  -2.481   3.265 -0.0094 -0.0866 -0.5119
 2167PEP     CB82991   3.200  -2.717   3.571 -0.2848  0.0967 -0.0824
 2167PEP     CB82992   3.272  -3.099   3.776  0.3319  0.2130 -0.1617
 2167PEP     CB82993   3.191  -3.514   3.987 -0.4052 -0.0436 -0.1173
 2167PEP     CB82994   2.833  -3.870   3.858  0.1981 -0.3654 -0.1949
 2167PEP     CB82995   2.407  -4.053   3.797 -0.1367 -0.0736 -0.4294
 2167PEP     CB82996   2.083  -4.113   3.571 -0.1098 -0.1825 -0.1938
 2167PEP     CB82997   2.097  -4.445   3.239 -0.1806  0.0197 -0.2664
 2167PEP     CB82998   2.361  -4.631   3.102 -0.0115  0.0063 -0.0097
 2167PEP     CB82999   2.541  -5.066   2.995  0.1730  0.2896 -0.2179
 2167PEP     CB83000   2.713  -5.406   2.830  0.0164 -0.1316 -0.0666
 2168PEP     CB83001  10.876  16.328   8.798  0.0693 -0.1974  0.7157
 2168PEP     CB83002  10.975  16.688   8.594 -0.0416 -0.2842  0.1957
 2168PEP     CB83003  11.063  17.126   8.401 -0.0956  0.0521  0.0695
 2168PEP     CB83004  11.110  17.602   8.482 -0.3298 -0.1318  0.1307
 2168PEP     CB83005  11.217  17.947   8.620  0.2691 -0.1396  0.1973
 2168PEP     CB83006  11.273  18.245   8.900 -0.2326 -0.0237  0.0238
 2168PEP     CB83007  11.405  18.655   8.964  0.1582 -0.0312  0.0858
 2168PEP     CB83008  11.550  18.972   8.704  0.4591 -0.2584  0.0983
 2168PEP     CB83009  11.469  19.139   8.317  0.2275 -0.1814 -0.1146
 2168PEP     CB83010  11.581  19.118   7.900  0.0202  0.4639 -0.0729
 2168PEP     CB83011  11.874  19.405   7.660 -0.1915 -0.2211  0.1436
 2168PEP     CB83012  12.104  19.724   7.496 -0.1153  0.1705  0.4303
 2168PEP     CB83013  12.377  19.994   7.363 -0.3028 -0.1416 -0.0081
 2168PEP     CB83014  12.831  19.898   7.226  0.3961  0.2363 -0.1856
 2168PEP     CB83015  12.970  19.407   7.425  0.1354 -0.0547  0.1476
 2168PEP     CB83016  12.644  19.150   7.466  0.1492  0.0099 -0.3295
 2168PEP     CB83017  12.289  19.300   7.382 -0.1926 -0.2163  0.3359
 2168PEP     CB83018  11.954  19.358   7.059  0.2820  0.2411 -0.0772
 2168PEP     CB83019  11.991  19.418   6.612 -0.0889  0.1133 -0.1919
 2168PEP     CB83020  12.095  19.552   6.159  0.5969  0.1631 -0.0723
 2168PEP     CB83021  12.377  19.652   5.770  0.0078  0.0470 -0.2213
 2168PEP     CB83022  12.674  19.584   5.482  0.1246 -0.3486 -0.5804
 2168PEP     CB83023  12.686  19.966   5.149  0.0255  0.2879 -0.3416
 2168PEP     CB83024  12.238  20.205   5.074 -0.0883 -0.1915 -0.1762
 2168PEP     CB83025  11.988  20.444   4.754  0.1986  0.3411 -0.2398
 2168PEP     CB83026  11.952  20.800   4.823 -0.0823  0.0536 -0.0905
 2168PEP     CB83027  12.378  20.988   4.914  0.2624 -0.0940 -0.2438
 2168PEP     CB83028  12.566  21.165   4.609  0.1529  0.1784  0.1660
 2168PEP     CB83029  12.896  21.344   4.294  0.2179 -0.0784  0.1292
 2168PEP     CB83030  13.103  21.556   3.961  0.0388  0.1929 -0.0537
 2168PEP     CB83031  13.384  21.938   3.765  0.4955  0.4984 -0.0793
 2168PEP     CB83032  13.368  22.365   3.654 -0.3374 -0.5171  0.2721
 2168PEP     CB83033  13.028  22.645   3.863  0.2178 -0.2268 -0.1620
 2168PEP     CB83034  12.574  22.596   3.881  0.2875 -0.0300  0.0242
 2168PEP     CB83035  12.384  22.264   4.017  0.2234  0.0967 -0.0417
 2168PEP     CB83036  12.676  21.835   4.187 -0.3966  0.2749 -0.2729
 2168PEP     CB83037  13.068  21.827   4.534 -0.0258  0.1041  0.0750
 2168PEP     CB83038  13.078  22.126   4.828 -0.0595 -0.4403  0.1097
 2168PEP     CB83039  12.909  22.533   4.778  0.4583  0.0835 -0.1673
 2168PEP     CB83040  12.984  22.940   4.698 -0.2641  0.2339  0.2546
 2169PEP     CB83041  17.873   5.658   9.094 -0.0706  0.3971 -0.5165
 2169PEP     CB83042  17.865   5.402   8.767 -0.3042  0.0241  0.3862
 2169PEP     CB83043  18.073   4.928   8.874 -0.1623 -0.2173  0.0009
 2169PEP     CB83044  18.035   4.610   9.206  0.3105  0.1620  0.0785
 2169PEP     CB83045  17.707   4.730   9.429 -0.1467  0.1744  0.0980
 2169PEP     CB83046  17.322   4.752   9.308 -0.1756 -0.0908  0.0358
 2169PEP     CB83047  17.146   4.416   9.168 -0.2870 -0.0240  0.1720
 2169PEP     CB83048  17.114   4.022   8.808  0.3538  0.0704 -0.1110
 2169PEP     CB83049  16.905   3.816   8.370  0.2424 -0.3230 -0.3152
 2169PEP     CB83050  17.002   3.523   7.982 -0.0290  0.1770 -0.2890
 2169PEP     CB83051  17.359   3.425   7.733  0.1728 -0.1651  0.3199
 2169PEP     CB83052  17.624   3.128   7.989 -0.1463 -0.0715  0.0241
 2169PEP     CB83053  17.775   3.342   8.474  0.0427 -0.2936 -0.0643
 2169PEP     CB83054  17.457   3.588   8.728  0.0257  0.0969 -0.1793
 2169PEP     CB83055  16.972   3.472   8.760  0.2011  0.1079  0.0232
 2169PEP     CB83056  16.753   3.143   8.991 -0.0261  0.2094  0.3238
 2169PEP     CB83057  16.300   2.873   9.053 -0.0533 -0.0881  0.3380
 2169PEP     CB83058  16.342   2.453   9.015  0.0113 -0.2934  0.0219
 2169PEP     CB83059  16.658   2.157   9.190 -0.1419 -0.0364  0.1714
 2169PEP     CB83060  16.754   2.200   9.588  0.2568  0.0183  0.0073
 2169PEP     CB83061  16.644   2.495   9.933 -0.2717  0.4671 -0.1704
 2169PEP     CB83062  16.586   2.783  10.219  0.5225  0.1689  0.2999
 2169PEP     CB83063  16.560   2.889  10.697 -0.2850  0.2902  0.0145
 2169PEP     CB83064  16.708   3.245  10.954 -0.1318 -0.4930  0.4591
 2169PEP     CB83065  17.086   3.427  10.920  0.1975 -0.0943 -0.5187
 2169PEP     CB83066  17.306   3.474  10.522  0.0969 -0.1550  0.0653
 2169PEP     CB83067  17.041   3.706  10.210  0.2712  0.0766 -0.2345
 2169PEP     CB83068  16.716   3.910  10.268 -0.1391 -0.2213 -0.1959
 2169PEP     CB83069  16.295   3.717  10.169 -0.3445 -0.0926 -0.5742
 2169PEP     CB83070  15.863   3.809  10.030 -0.1342 -0.1038 -0.0941
 2169PEP     CB83071  15.636   4.112  10.271 -0.2915  0.0405  0.0887
 2169PEP     CB83072  15.639   4.284  10.654  0.3601  0.1024 -0.3050
 2169PEP     CB83073  15.954   4.352  11.014 -0.2299  0.1613  0.0638
 2169PEP     CB83074  16.315   4.229  11.072 -0.2826 -0.3346  0.0787
 2169PEP     CB83075  16.619   4.099  10.799  0.2021  0.0422  0.1326
 2169PEP     CB83076  16.983   3.904  10.758 -0.1880 -0.0127 -0.0173
 2169PEP     CB83077  17.229   3.803  11.177  0.1779 -0.1161  0.0764
 2169PEP     CB83078  17.217   4.122  11.511 -0.3060  0.2341  0.0666
 2169PEP     CB83079  17.150   4.546  11.444  0.1166 -0.0813 -0.0167
 2169PEP     CB83080  17.326   4.963  11.434  0.0391 -0.3004  0.1050
 2170PEP     CB83081  18.369  18.066  14.486 -0.3504 -0.0040  0.0791
 2170PEP     CB83082  17.983  18.018  14.204  0.0472 -0.1498 -0.1380
 2170PEP     CB83083  17.705  18.251  13.979 -0.0246  0.2390 -0.2386
 2170PEP     CB83084  17.424  18.306  13.627 -0.4356  0.2742 -0.0010
 2170PEP     CB83085  17.046  18.566  13.385  0.1571 -0.0022  0.4142
 2170PEP     CB83086  16.790  18.521  13.050 -0.1856  0.0302  0.2358
 2170PEP     CB83087  16.823  18.227  12.789 -0.2945 -0.2643  0.5200
 2170PEP     CB83088  16.834  18.201  12.314 -0.0774  0.3358 -0.3791
 2170PEP     CB83089  17.018  18.352  11.922  0.3233  0.3597 -0.3159
 2170PEP     CB83090  17.127  18.592  11.484  0.0134  0.1501  0.0735
 2170PEP     CB83091  17.162  18.334  11.137 -0.1308 -0.0201 -0.2625
 2170PEP     CB83092  17.052  17.890  11.165 -0.3386  0.3196 -0.0554
 2170PEP     CB83093  16.988  17.646  11.630 -0.0241  0.1152  0.2481
 2170PEP     CB83094  17.054  17.922  11.991 -0.0681 -0.0072  0.3291
 2170PEP     CB83095  17.454  18.027  11.995  0.2274 -0.3183 -0.2249
 2170PEP     CB83096  17.840  17.909  11.858 -0.1466 -0.0573 -0.0696
 2170PEP     CB83097  18.187  17.735  11.767  0.1288  0.0716 -0.2715
 2170PEP     CB83098  18.651  17.505  11.868 -0.3543  0.0641  0.1076
 2170PEP     CB83099  18.909  17.455  12.282  0.0352  0.6579  0.1194
 2170PEP     CB83100  18.875  17.242  12.715 -0.1507 -0.1103  0.1008
 2170PEP     CB83101  18.844  17.037  13.121  0.3170 -0.1469  0.0308
 2170PEP     CB83102  18.664  16.952  13.496 -0.2082 -0.0847  0.1259
 2170PEP     CB83103  18.626  16.996  13.945 -0.0360  0.1787 -0.3064
 2170PEP     CB83104  18.592  17.012  14.378  0.1880 -0.3768  0.0426
 2170PEP     CB83105  18.522  17.236  14.762 -0.0041 -0.0286 -0.0512
 2170PEP     CB83106  18.640  17.534  15.033 -0.1549 -0.0132 -0.2088
 2170PEP     CB83107  18.582  17.710  15.364 -0.1544 -0.3536 -0.0874
 2170PEP     CB83108  18.642  17.769  15.747  0.2592 -0.1626  0.3390
 2170PEP     CB83109  19.023  17.690  16.002 -0.3130  0.0630  0.1003
 2170PEP     CB83110  19.372  17.361  15.863 -0.1413 -0.3530  0.2825
 2170PEP     CB83111  19.306  17.122  15.472 -0.1294  0.3359  0.3851
 2170PEP     CB83112  19.092  17.316  15.143  0.0465  0.0353 -0.0856
 2170PEP     CB83113  19.217  17.697  15.146  0.2181  0.1607 -0.3179
 2170PEP     CB83114  19.586  17.846  15.328 -0.1969  0.3259 -0.1060
 2170PEP     CB83115  19.938  18.086  15.129 -0.2256 -0.0907  0.1815
 2170PEP     CB83116  20.200  18.092  14.810 -0.4073 -0.1953 -0.1211
 2170PEP     CB83117  20.454  18.334  14.516 -0.3658 -0.3110 -0.1012
 2170PEP     CB83118  20.765  18.673  14.398 -0.0927  0.3910  0.1749
 2170PEP     CB83119  21.084  18.967  14.350 -0.2256  0.2685  0.4104
 2170PEP     CB83120  21.267  19.181  14.001 -0.0820 -0.3652  0.1432
 2171PEP     CB83121  15.951  16.760  22.004 -0.1203 -0.2599 -0.2604
 2171PEP     CB83122  15.589  16.995  22.129  0.0282  0.0815  0.1159
 2171PEP     CB83123  15.138  16.867  22.053  0.0171 -0.3371 -0.0501
 2171PEP     CB83124  14.903  16.648  21.754  0.0404 -0.5553 -0.3587
 2171PEP     CB83125  15.046  16.296  21.492 -0.1795 -0.1514 -0.3139
 2171PEP     CB83126  15.392  16.369  21.213  0.1839 -0.0521  0.4560
 2171PEP     CB83127  15.484  16.727  20.976 -0.4082 -0.6073 -0.0500
 2171PEP     CB83128  15.225  17.172  20.948  0.4895 -0.0668  0.2168
 2171PEP     CB83129  14.981  17.632  20.945 -0.0306  0.2505  0.1462
 2171PEP     CB83130  14.678  17.826  21.034  0.2562 -0.2432 -0.1886
 2171PEP     CB83131  14.400  17.889  21.262  0.1693 -0.2737  0.0177
 2171PEP     CB83132  14.212  17.740  21.650  0.0283 -0.2171 -0.0890
 2171PEP     CB83133  14.252  17.485  22.081  0.0821 -0.1290  0.3529
 2171PEP     CB83134  14.420  17.157  22.262 -0.1839  0.1911  0.1933
 2171PEP     CB83135  14.767  16.826  22.376 -0.0747  0.2314 -0.2085
 2171PEP     CB83136  15.005  16.652  22.641 -0.2862 -0.4196 -0.2110
 2171PEP     CB83137  15.103  16.343  23.033  0.0815  0.0230 -0.1926
 2171PEP     CB83138  15.280  15.959  23.039  0.0764 -0.2745  0.3303
 2171PEP     CB83139  15.727  15.832  22.953 -0.2765  0.3287 -0.1564
 2171PEP     CB83140  16.080  15.551  23.011  0.2765 -0.2591 -0.0954
 2171PEP     CB83141  16.296  15.568  23.391 -0.1133  0.1164 -0.4946
 2171PEP     CB83142  16.151  15.785  23.743 -0.0276  0.0238  0.3060
 2171PEP     CB83143  15.880  16.124  23.757  0.2291  0.3126  0.0791
 2171PEP     CB83144  15.918  16.525  23.500  0.1025 -0.3215  0.3024
 2171PEP     CB83145  15.972  16.953  23.546 -0.7361  0.1266 -0.3571
 2171PEP     CB83146  15.936  17.267  23.879  0.2770 -0.0080 -0.2273
 2171PEP     CB83147  15.913  17.662  24.045 -0.2784  0.1429  0.1234
 2171PEP     CB83148  16.294  17.916  24.165 -0.0331  0.0582  0.0091
 2171PEP     CB83149  16.501  18.259  24.152  0.0352  0.0035  0.1002
 2171PEP     CB83150  16.523  18.636  23.940 -0.0963  0.0986 -0.0234
 2171PEP     CB83151  16.661  19.064  23.806  0.3180  0.1590  0.2381
 2171PEP     CB83152  16.613  19.505  23.777  0.1616 -0.0333  0.1344
 2171PEP     CB83153  16.294  19.894  23.705 -0.2081  0.3275  0.2449
 2171PEP     CB83154  16.104  20.249  23.682 -0.2065 -0.0966 -0.0589
 2171PEP     CB83155  16.117  20.759  23.868  0.0212 -0.0117  0.1723
 2171PEP     CB83156  16.212  21.138  24.107  0.4032 -0.0768 -0.1642
 2171PEP     CB83157  16.442  21.468  24.289 -0.1621 -0.0794 -0.3440
 2171PEP     CB83158  16.260  21.737  24.591 -0.1450  0.1622  0.0138
 2171PEP     CB83159  15.853  21.719  24.743  0.0490  0.0856 -0.0805
 2171PEP     CB83160  15.473  21.707  24.860  0.0655  0.0395  0.0740
 2172PEP     CB83161  12.260  20.916  17.276 -0.3525 -0.3135  0.0584
 2172PEP     CB83162  12.070  20.717  16.973 -0.0551  0.2377 -0.0539
 2172PEP     CB83163  11.883  20.421  16.777  0.1570  0.0193 -0.0609
 2172PEP     CB83164  11.813  20.188  16.352  0.1664  0.2718 -0.2755
 2172PEP     CB83165  11.875  20.078  15.872  0.0081  0.0449 -0.0306
 2172PEP     CB83166  11.944  19.792  15.541 -0.5445 -0.0954  0.0937
 2172PEP     CB83167  11.833  19.503  15.205 -0.3099  0.0912  0.3379
 2172PEP     CB83168  11.586  19.250  14.849  0.0619 -0.1679  0.0360
 2172PEP     CB83169  11.172  19.098  14.675 -0.4289  0.0477 -0.0259
 2172PEP     CB83170  10.987  18.817  14.531  0.3131  0.0662  0.3166
 2172PEP     CB83171  10.867  18.659  14.159 -0.3075  0.0508 -0.1005
 2172PEP     CB83172  11.009  18.888  13.793  0.1033  0.1910 -0.0099
 2172PEP     CB83173  11.171  18.761  13.464 -0.4181  0.0238  0.3504
 2172PEP     CB83174  11.414  18.456  13.213  0.0376  0.1926  0.1115
 2172PEP     CB83175  11.651  18.396  12.888  0.0145  0.1467 -0.2544
 2172PEP     CB83176  12.065  18.400  12.774  0.1899 -0.0956  0.0534
 2172PEP     CB83177  12.371  18.618  12.535  0.1015  0.1167 -0.2747
 2172PEP     CB83178  12.749  18.906  12.670  0.1271 -0.2681 -0.1022
 2172PEP     CB83179  12.977  18.735  12.982  0.1766 -0.0849 -0.1091
 2172PEP     CB83180  12.856  18.615  13.410  0.4027  0.0566  0.0145
 2172PEP     CB83181  12.866  18.524  13.805  0.0606  0.2518  0.0375
 2172PEP     CB83182  12.551  18.457  14.186  0.1857 -0.4513  0.1251
 2172PEP     CB83183  12.399  18.703  14.419 -0.3523 -0.2333 -0.6430
 2172PEP     CB83184  12.547  19.136  14.499  0.1497  0.1876 -0.0598
 2172PEP     CB83185  13.001  19.197  14.489 -0.0690  0.0008  0.0529
 2172PEP     CB83186  13.313  18.919  14.430  0.3136 -0.0508  0.1484
 2172PEP     CB83187  13.262  18.629  14.791 -0.2574 -0.2880  0.2745
 2172PEP     CB83188  13.387  18.796  15.279  0.4488  0.1533 -0.1435
 2172PEP     CB83189  13.503  18.807  15.679 -0.4165 -0.1619  0.1655
 2172PEP     CB83190  13.253  18.983  16.046 -0.1156  0.2341 -0.1112
 2172PEP     CB83191  12.922  19.178  16.311  0.0532  0.0174 -0.1912
 2172PEP     CB83192  12.494  19.346  16.202  0.2748 -0.4031 -0.3446
 2172PEP     CB83193  12.218  19.625  15.932 -0.2153  0.0093 -0.4070
 2172PEP     CB83194  11.706  19.672  15.992  0.1217  0.2724 -0.3354
 2172PEP     CB83195  11.464  19.297  16.103 -0.0735 -0.0516  0.0649
 2172PEP     CB83196  11.684  18.940  16.287 -0.2815  0.2022 -0.0717
 2172PEP     CB83197  12.045  18.750  16.456 -0.3885 -0.0746  0.0983
 2172PEP     CB83198  12.330  18.448  16.566 -0.2489  0.3959 -0.0764
 2172PEP     CB83199  12.627  18.084  16.380 -0.4943 -0.3035  0.0195
 2172PEP     CB83200  12.552  17.686  16.470 -0.0489  0.3713  0.1276
 2173PEP     CB83201   0.906  10.064  14.084 -0.0766  0.1229  0.1147
 2173PEP     CB83202   1.298  10.039  14.179  0.3750  0.0566 -0.1996
 2173PEP     CB83203   1.696   9.824  14.243  0.0413  0.0667 -0.1105
 2173PEP     CB83204   2.187   9.895  14.213  0.1468 -0.2698  0.2232
 2173PEP     CB83205   2.555  10.203  14.244  0.0457  0.3289  0.2079
 2173PEP     CB83206   2.686  10.605  14.024  0.2391  0.2337  0.4204
 2173PEP     CB83207   3.012  10.952  14.017 -0.0589 -0.0872  0.0847
 2173PEP     CB83208   3.516  10.973  13.910  0.0221 -0.2370 -0.3449
 2173PEP     CB83209   3.896  10.890  13.796  0.0138  0.0920 -0.1719
 2173PEP     CB83210   4.124  10.751  13.388 -0.0513 -0.3679 -0.0635
 2173PEP     CB83211   4.220  10.651  12.909 -0.1594  0.2459  0.0133
 2173PEP     CB83212   3.982  10.669  12.532 -0.0424  0.0526  0.3656
 2173PEP     CB83213   3.549  10.659  12.464 -0.0046 -0.0599  0.1026
 2173PEP     CB83214   3.237  10.322  12.700  0.0366 -0.1083  0.2715
 2173PEP     CB83215   3.186  10.100  12.910  0.2492  0.2257 -0.0555
 2173PEP     CB83216   2.906   9.717  12.872  0.0969  0.0237  0.2039
 2173PEP     CB83217   2.769   9.498  12.552 -0.1435 -0.1211 -0.1610
 2173PEP     CB83218   2.827   9.212  12.166  0.0218  0.1322 -0.2051
 2173PEP     CB83219   3.081   9.198  11.928  0.4679  0.3281  0.0236
 2173PEP     CB83220   3.494   9.331  11.629 -0.1600 -0.2954  0.2651
 2173PEP     CB83221   3.607   9.542  11.209 -0.3330  0.0007 -0.2738
 2173PEP     CB83222   3.443   9.732  10.837 -0.0926 -0.0755  0.1446
 2173PEP     CB83223   3.339   9.806  10.321  0.0887 -0.0734  0.0637
 2173PEP     CB83224   2.939   9.781  10.005  0.0955  0.1446 -0.1207
 2173PEP     CB83225   2.657   9.564   9.793  0.0710  0.0391  0.1990
 2173PEP     CB83226   2.771   9.234   9.511 -0.1472  0.0436  0.1281
 2173PEP     CB83227   3.085   8.912   9.489  0.0505 -0.2351  0.0692
 2173PEP     CB83228   3.526   8.925   9.701 -0.3051  0.1374  0.0601
 2173PEP     CB83229   3.757   9.264   9.741 -0.2686 -0.0596  0.0597
 2173PEP     CB83230   3.804   9.680   9.550  0.1656 -0.5208 -0.0200
 2173PEP     CB83231   3.618  10.032   9.332 -0.3158  0.2073 -0.2388
 2173PEP     CB83232   3.661  10.326   9.054  0.2391 -0.0093  0.1900
 2173PEP     CB83233   3.452  10.647   8.933 -0.0472 -0.2980  0.0929
 2173PEP     CB83234   3.378  11.135   8.840 -0.1008 -0.0780  0.3002
 2173PEP     CB83235   3.018  11.509   8.807 -0.0838 -0.3194  0.3042
 2173PEP     CB83236   2.619  11.715   8.843 -0.1675  0.0510  0.0157
 2173PEP     CB83237   2.286  12.009   8.843  0.0133 -0.0997 -0.3117
 2173PEP     CB83238   2.076  12.318   9.003  0.3020  0.3053  0.0088
 2173PEP     CB83239   2.223  12.770   8.968  0.0796 -0.1267 -0.1004
 2173PEP     CB83240   2.527  13.064   9.099 -0.0982 -0.3844  0.0731
 2174PEP     CB83241   8.581  17.980  11.865 -0.0178 -0.1429  0.1087
 2174PEP     CB83242   8.396  17.791  11.458 -0.2842  0.2654  0.2957
 2174PEP     CB83243   8.221  17.534  11.101 -0.0919  0.3545 -0.0458
 2174PEP     CB83244   7.956  17.681  10.766 -0.1665  0.3128  0.4517
 2174PEP     CB83245   7.619  17.921  10.573  0.0602 -0.0872 -0.2567
 2174PEP     CB83246   7.579  18.131  10.244  0.1083  0.2273  0.0594
 2174PEP     CB83247   7.876  18.337  10.182 -0.1591  0.1028 -0.0438
 2174PEP     CB83248   8.258  18.066  10.251  0.3114 -0.1389 -0.0169
 2174PEP     CB83249   8.539  17.664  10.403  0.3339  0.0612 -0.0140
 2174PEP     CB83250   8.473  17.302  10.640  0.0809 -0.4250  0.4336
 2174PEP     CB83251   8.084  17.128  10.846  0.4179 -0.1324 -0.0731
 2174PEP     CB83252   7.688  17.279  10.700 -0.2522 -0.0161  0.1821
 2174PEP     CB83253   7.724  17.436  10.277  0.2223  0.1536  0.1282
 2174PEP     CB83254   8.099  17.552  10.133  0.0991 -0.2710 -0.1172
 2174PEP     CB83255   8.460  17.674   9.833  0.0943  0.0795 -0.1840
 2174PEP     CB83256   8.762  17.401   9.561 -0.0675  0.1789  0.0725
 2174PEP     CB83257   8.630  16.925   9.534 -0.2828 -0.1322 -0.2650
 2174PEP     CB83258   8.307  16.883   9.805  0.0394  0.1383  0.1906
 2174PEP     CB83259   8.367  17.093  10.194 -0.0631 -0.0112  0.6563
 2174PEP     CB83260   8.844  17.343  10.262 -0.0068  0.1007  0.2081
 2174PEP     CB83261   9.125  17.713  10.148  0.2012  0.1016 -0.1453
 2174PEP     CB83262   9.269  17.930   9.826  0.3249  0.0246 -0.2220
 2174PEP     CB83263   9.671  18.125   9.809 -0.2358 -0.2702 -0.5039
 2174PEP     CB83264   9.828  18.399  10.114  0.2217  0.1578  0.2528
 2174PEP     CB83265   9.528  18.760  10.166 -0.1287 -0.0460 -0.1431
 2174PEP     CB83266   9.402  19.239  10.000 -0.0222 -0.0316  0.1082
 2174PEP     CB83267   9.298  19.602  10.183 -0.0577  0.1875  0.0907
 2174PEP     CB83268   9.255  19.891  10.481 -0.2731 -0.1074 -0.5207
 2174PEP     CB83269   8.986  20.021  10.893  0.3048  0.0695 -0.4552
 2174PEP     CB83270   8.963  19.871  11.390  0.1087 -0.0858 -0.0563
 2174PEP     CB83271   9.121  19.762  11.739 -0.3480 -0.2260 -0.2017
 2174PEP     CB83272   9.465  19.446  11.933  0.1111 -0.2642  0.0913
 2174PEP     CB83273   9.402  18.992  11.957 -0.3211  0.0343  0.2218
 2174PEP     CB83274   9.089  18.817  11.724 -0.2013 -0.2990 -0.2611
 2174PEP     CB83275   8.863  18.907  11.269 -0.1144  0.2597  0.0458
 2174PEP     CB83276   8.978  19.056  10.780  0.0886  0.6140 -0.4715
 2174PEP     CB83277   9.368  19.096  10.557  0.2373  0.0216 -0.0408
 2174PEP     CB83278   9.792  19.209  10.328  0.2523 -0.0444  0.1922
 2174PEP     CB83279   9.952  19.452  10.024 -0.1657  0.3019 -0.3176
 2174PEP     CB83280  10.141  19.402   9.617 -0.1108  0.3821 -0.3238
 2175PEP     CB83281  11.771   0.299   3.614 -0.5414 -0.1902  0.5092
 2175PEP     CB83282  11.669  -0.199   3.829 -0.1211  0.1792  0.1051
 2175PEP     CB83283  11.563  -0.653   3.791 -0.0228 -0.1418 -0.4354
 2175PEP     CB83284  11.650  -0.985   3.448 -0.4578 -0.2374 -0.0011
 2175PEP     CB83285  11.478  -1.311   3.221 -0.2179  0.3327 -0.3640
 2175PEP     CB83286  11.088  -1.413   3.290  0.1238  0.3209  0.0113
 2175PEP     CB83287  10.997  -1.731   3.622 -0.2759  0.3381 -0.0937
 2175PEP     CB83288  11.326  -2.000   3.835  0.0933  0.1047  0.1499
 2175PEP     CB83289  11.564  -1.887   4.202 -0.0872  0.2124  0.2574
 2175PEP     CB83290  11.700  -1.533   4.358 -0.1329  0.1222  0.0442
 2175PEP     CB83291  11.589  -1.035   4.229  0.2218 -0.0171  0.2891
 2175PEP     CB83292  11.117  -1.034   4.267 -0.4035  0.0863  0.2897
 2175PEP     CB83293  10.953  -1.510   4.182  0.0174 -0.1514 -0.6829
 2175PEP     CB83294  11.089  -1.885   4.256  0.4667  0.1414 -0.1123
 2175PEP     CB83295  11.152  -2.266   4.237  0.0373  0.1441  0.0070
 2175PEP     CB83296  11.085  -2.693   4.183 -0.5931 -0.2327 -0.1338
 2175PEP     CB83297  11.204  -3.137   4.119  0.0368  0.0373 -0.3743
 2175PEP     CB83298  11.272  -3.581   4.164 -0.0014  0.0378  0.0249
 2175PEP     CB83299  11.203  -3.974   4.137  0.1802  0.1977  0.0506
 2175PEP     CB83300  11.135  -4.325   4.079  0.1965  0.2997 -0.6194
 2175PEP     CB83301  11.283  -4.837   4.109 -0.3253 -0.0631 -0.1542
 2175PEP     CB83302  11.625  -5.007   4.331 -0.1810  0.1107  0.0271
 2175PEP     CB83303  11.570  -4.860   4.756  0.0341 -0.1563  0.0346
 2175PEP     CB83304  11.251  -4.510   4.846  0.5482 -0.0772 -0.2172
 2175PEP     CB83305  11.243  -4.065   4.666  0.2617  0.3788 -0.2605
 2175PEP     CB83306  11.580  -3.974   4.463 -0.2278 -0.1126 -0.2696
 2175PEP     CB83307  12.012  -3.878   4.358 -0.1863  0.1928 -0.0116
 2175PEP     CB83308  12.380  -3.804   4.346  0.3623 -0.0582  0.1890
 2175PEP     CB83309  12.835  -3.956   4.494 -0.2218 -0.3409 -0.0589
 2175PEP     CB83310  13.211  -3.643   4.619  0.0972 -0.0864 -0.1528
 2175PEP     CB83311  13.537  -3.380   4.444  0.1842 -0.0710 -0.2118
 2175PEP     CB83312  13.815  -3.425   4.012 -0.1347 -0.0252 -0.1606
 2175PEP     CB83313  14.039  -3.699   3.754  0.0819 -0.2007 -0.0159
 2175PEP     CB83314  14.449  -3.773   3.620  0.1536 -0.0519  0.0162
 2175PEP     CB83315  14.857  -3.552   3.554  0.1105 -0.1903  0.0489
 2175PEP     CB83316  14.895  -3.172   3.410 -0.0910 -0.1561  0.4522
 2175PEP     CB83317  14.787  -2.720   3.369  0.1681 -0.1358  0.1428
 2175PEP     CB83318  14.730  -2.284   3.625 -0.0956 -0.0209 -0.4653
 2175PEP     CB83319  14.818  -1.856   3.761 -0.2442  0.1074  0.1554
 2175PEP     CB83320  14.991  -1.518   3.847 -0.1803 -0.2512 -0.0098
 2176PEP     CB83321  19.556   0.599   8.417  0.0310  0.0878 -0.1864
 2176PEP     CB83322  19.874   0.901   8.274 -0.0827  0.0832 -0.6620
 2176PEP     CB83323  20.279   1.026   8.063 -0.1771  0.0578  0.3137
 2176PEP     CB83324  20.718   0.931   7.726  0.0035 -0.2486  0.2017
 2176PEP     CB83325  20.632   0.567   7.478  0.0719 -0.3206 -0.0356
 2176PEP     CB83326  20.185   0.529   7.294  0.4565  0.0109 -0.1243
 2176PEP     CB83327  19.901   0.354   7.011 -0.1693 -0.1618 -0.0987
 2176PEP     CB83328  19.651  -0.092   6.932  0.0746 -0.1055  0.5486
 2176PEP     CB83329  19.274  -0.306   7.009 -0.1173  0.2699 -0.1176
 2176PEP     CB83330  18.785  -0.383   6.899 -0.0139  0.0688 -0.2921
 2176PEP     CB83331  18.415  -0.576   6.875  0.0797  0.2865 -0.2373
 2176PEP     CB83332  18.210  -0.987   6.894 -0.4741 -0.0240 -0.3687
 2176PEP     CB83333  18.308  -1.427   6.810 -0.0553  0.0890 -0.0257
 2176PEP     CB83334  18.386  -1.820   6.643 -0.0377 -0.1153  0.2369
 2176PEP     CB83335  18.627  -2.128   6.678 -0.0367 -0.3617  0.4688
 2176PEP     CB83336  18.922  -2.376   6.592 -0.2925  0.4113 -0.0666
 2176PEP     CB83337  19.151  -2.769   6.609 -0.1597  0.1183 -0.3952
 2176PEP     CB83338  19.439  -3.101   6.628 -0.3366 -0.1923  0.3384
 2176PEP     CB83339  19.806  -3.331   6.682  0.1772  0.1133  0.0341
 2176PEP     CB83340  20.129  -3.620   6.870  0.2024 -0.1519  0.0394
 2176PEP     CB83341  20.271  -3.945   6.870 -0.3316 -0.1058 -0.2615
 2176PEP     CB83342  20.118  -4.350   6.976 -0.5511 -0.1372  0.3481
 2176PEP     CB83343  19.843  -4.358   7.188  0.1576  0.4374 -0.0870
 2176PEP     CB83344  19.847  -4.177   7.600  0.2860  0.0238  0.3273
 2176PEP     CB83345  19.913  -4.341   8.044  0.2273 -0.1739  0.1654
 2176PEP     CB83346  19.758  -4.766   8.290 -0.3134 -0.1868 -0.1524
 2176PEP     CB83347  19.724  -5.219   8.289  0.4576 -0.0871 -0.4745
 2176PEP     CB83348  19.934  -5.631   8.348 -0.2085 -0.0531 -0.2338
 2176PEP     CB83349  19.959  -5.956   8.309 -0.0008  0.1851  0.2122
 2176PEP     CB83350  19.636  -6.254   8.279 -0.1478 -0.2492 -0.1468
 2176PEP     CB83351  19.231  -6.125   8.392 -0.2775 -0.2811  0.1327
 2176PEP     CB83352  18.988  -5.878   8.220  0.2361  0.5868 -0.0410
 2176PEP     CB83353  19.054  -5.646   7.914  0.1702  0.1287  0.1821
 2176PEP     CB83354  19.258  -5.273   7.997 -0.0708  0.2286 -0.0467
 2176PEP     CB83355  19.260  -4.995   8.478 -0.0873  0.1987 -0.1931
 2176PEP     CB83356  19.220  -5.223   8.909  0.1510 -0.0209  0.1760
 2176PEP     CB83357  19.488  -5.609   9.091  0.0991 -0.2860  0.0171
 2176PEP     CB83358  19.720  -6.034   9.254  0.0714 -0.1828 -0.0667
 2176PEP     CB83359  19.706  -6.459   9.168 -0.0912 -0.0843 -0.4013
 2176PEP     CB83360  19.831  -6.793   9.412 -0.0573 -0.1246  0.0077
 2177PEP     CB83361   6.502  20.489  19.448  0.3539 -0.0848 -0.0535
 2177PEP     CB83362   6.859  20.210  19.509  0.0150  0.2077 -0.3583
 2177PEP     CB83363   7.243  20.300  19.519 -0.1112 -0.3848  0.4672
 2177PEP     CB83364   7.672  20.577  19.611 -0.2874 -0.1384  0.0081
 2177PEP     CB83365   7.990  20.739  19.523  0.1309  0.1837 -0.5615
 2177PEP     CB83366   8.123  21.202  19.458  0.3103  0.0589  0.1721
 2177PEP     CB83367   8.409  21.541  19.598 -0.1974  0.0721  0.2937
 2177PEP     CB83368   8.665  21.717  19.949  0.1250  0.2123 -0.0151
 2177PEP     CB83369   8.892  21.971  20.274 -0.6208 -0.3536 -0.0213
 2177PEP     CB83370   9.244  22.063  20.509  0.1663  0.1616 -0.0177
 2177PEP     CB83371   9.598  22.343  20.819  0.2329  0.0213  0.1783
 2177PEP     CB83372   9.863  22.234  21.113  0.0198  0.3087  0.2398
 2177PEP     CB83373   9.868  21.814  21.181  0.2133  0.3500  0.1807
 2177PEP     CB83374   9.936  21.460  20.904 -0.0273  0.0774 -0.1713
 2177PEP     CB83375  10.245  21.257  20.799  0.0328 -0.2283 -0.4463
 2177PEP     CB83376  10.489  20.907  20.832 -0.4303  0.5161  0.2281
 2177PEP     CB83377  10.854  20.585  20.760  0.0507 -0.1420 -0.4776
 2177PEP     CB83378  11.013  20.063  20.830  0.2365 -0.0380 -0.0702
 2177PEP     CB83379  11.246  19.624  20.608 -0.2031 -0.1777 -0.1290
 2177PEP     CB83380  11.459  19.240  20.667  0.0475 -0.4225 -0.1185
 2177PEP     CB83381  11.498  18.887  20.895  0.3705 -0.0157 -0.2314
 2177PEP     CB83382  11.683  18.617  21.145  0.0519  0.3668  0.0064
 2177PEP     CB83383  12.153  18.747  21.228  0.4280  0.3478 -0.2932
 2177PEP     CB83384  12.473  19.056  21.138 -0.1007  0.0189  0.0738
 2177PEP     CB83385  12.708  19.381  21.073 -0.2732  0.0358  0.0504
 2177PEP     CB83386  12.599  19.731  21.026 -0.1852  0.0475  0.0378
 2177PEP     CB83387  12.721  20.163  21.012 -0.5510 -0.3176 -0.0338
 2177PEP     CB83388  13.100  20.404  21.103  0.0957 -0.1089 -0.2276
 2177PEP     CB83389  13.496  20.296  20.862  0.2223  0.3872  0.0535
 2177PEP     CB83390  13.548  19.891  20.564  0.2469  0.0914 -0.1433
 2177PEP     CB83391  13.508  19.522  20.376 -0.1663 -0.0475  0.2366
 2177PEP     CB83392  13.718  19.131  20.542  0.1792  0.0658 -0.3324
 2177PEP     CB83393  14.099  19.129  20.871  0.2634  0.1691 -0.0403
 2177PEP     CB83394  14.178  19.382  21.199 -0.0150  0.0735 -0.5071
 2177PEP     CB83395  13.956  19.341  21.583  0.0056 -0.1280 -0.2536
 2177PEP     CB83396  13.608  19.107  21.722  0.0176  0.3327  0.2115
 2177PEP     CB83397  13.422  18.667  21.693  0.0228  0.1313 -0.1870
 2177PEP     CB83398  13.415  18.272  21.447 -0.1680 -0.2087 -0.1304
 2177PEP     CB83399  13.616  17.995  21.167  0.0968  0.3028 -0.4780
 2177PEP     CB83400  13.934  17.712  21.033  0.0344 -0.0077 -0.1470
 2178PEP     CB83401  10.722   3.744  14.005  0.4289 -0.3727  0.0056
 2178PEP     CB83402  10.765   4.100  14.384  0.1785  0.0045  0.1713
 2178PEP     CB83403  10.790   4.139  14.773  0.1493  0.7280  0.0984
 2178PEP     CB83404  10.719   4.408  15.064 -0.3141 -0.2401 -0.0625
 2178PEP     CB83405  10.715   4.796  15.305  0.1457 -0.1519  0.0167
 2178PEP     CB83406  10.931   4.937  15.696  0.0797 -0.3175  0.0354
 2178PEP     CB83407  11.275   4.709  16.025  0.3067 -0.0630 -0.4161
 2178PEP     CB83408  11.511   4.310  16.195 -0.1516 -0.0908 -0.1494
 2178PEP     CB83409  11.788   4.119  16.361 -0.1740  0.2520  0.4089
 2178PEP     CB83410  11.903   3.851  16.729  0.1372 -0.1676  0.1919
 2178PEP     CB83411  11.937   3.670  17.191  0.0175  0.0180  0.1038
 2178PEP     CB83412  12.205   3.584  17.558  0.3624  0.1950 -0.0348
 2178PEP     CB83413  12.409   3.911  17.848  0.2254  0.1097  0.2043
 2178PEP     CB83414  12.313   4.242  18.164 -0.3586 -0.2189 -0.1258
 2178PEP     CB83415  12.670   4.320  18.543 -0.3165  0.1920 -0.1805
 2178PEP     CB83416  13.017   4.494  18.761  0.1371  0.0479 -0.4804
 2178PEP     CB83417  13.277   4.865  19.020  0.0180  0.3496  0.1895
 2178PEP     CB83418  13.491   5.208  19.126 -0.0796 -0.1263  0.0632
 2178PEP     CB83419  13.776   5.481  18.978  0.1514 -0.2221  0.0206
 2178PEP     CB83420  14.022   5.808  18.735  0.0726  0.1768  0.3069
 2178PEP     CB83421  14.311   6.136  18.627 -0.0946  0.1204  0.1274
 2178PEP     CB83422  14.735   6.038  18.549 -0.3198 -0.4214  0.5012
 2178PEP     CB83423  15.089   5.681  18.601 -0.1985 -0.5098 -0.4450
 2178PEP     CB83424  15.294   5.446  18.382 -0.0790  0.2781  0.1190
 2178PEP     CB83425  15.406   5.083  18.274  0.2815 -0.7584 -0.4759
 2178PEP     CB83426  15.277   4.674  18.424 -0.0238 -0.0381  0.0029
 2178PEP     CB83427  14.826   4.472  18.502 -0.0581  0.1192 -0.0878
 2178PEP     CB83428  14.452   4.527  18.350  0.4320  0.1563  0.0535
 2178PEP     CB83429  14.202   4.603  18.026 -0.1417 -0.2354 -0.1175
 2178PEP     CB83430  14.020   4.755  17.675  0.0290  0.3713  0.3646
 2178PEP     CB83431  13.826   4.827  17.259  0.1636  0.0476  0.2373
 2178PEP     CB83432  13.404   4.862  17.088 -0.1914  0.2228  0.1095
 2178PEP     CB83433  13.072   4.573  17.016 -0.2610  0.2411  0.0419
 2178PEP     CB83434  12.724   4.483  16.699 -0.2171  0.0198  0.0374
 2178PEP     CB83435  12.442   4.403  16.259  0.1922 -0.1696  0.2927
 2178PEP     CB83436  12.035   4.405  15.942  0.0640  0.0563 -0.3316
 2178PEP     CB83437  11.701   4.518  15.760  0.2297 -0.3768  0.1045
 2178PEP     CB83438  11.368   4.601  15.449  0.0980 -0.3935  0.1312
 2178PEP     CB83439  11.116   4.785  15.050  0.2807  0.2809 -0.1931
 2178PEP     CB83440  11.265   4.985  14.584 -0.1569 -0.2627  0.4966
 2179PEP     CB83441   7.949  13.849  15.448 -0.1982 -0.2783 -0.0159
 2179PEP     CB83442   8.206  14.170  15.609 -0.6220 -0.0653  0.1863
 2179PEP     CB83443   8.610  14.341  15.417 -0.2458  0.3641 -0.1667
 2179PEP     CB83444   8.936  14.407  15.151 -0.2163 -0.1367  0.3224
 2179PEP     CB83445   9.161  14.622  14.856 -0.2394 -0.1082  0.0613
 2179PEP     CB83446   9.508  14.621  14.722 -0.2142  0.3367  0.0598
 2179PEP     CB83447   9.872  14.266  14.909 -0.0698  0.1543 -0.0901
 2179PEP     CB83448   9.830  13.838  15.047  0.0766  0.2125  0.2023
 2179PEP     CB83449   9.693  13.586  15.373 -0.1343 -0.0928 -0.1445
 2179PEP     CB83450   9.781  13.215  15.590  0.1087 -0.0010 -0.3249
 2179PEP     CB83451   9.995  12.892  15.769  0.1826  0.3183  0.1127
 2179PEP     CB83452  10.483  12.786  15.873  0.1508 -0.2163  0.1890
 2179PEP     CB83453  10.919  12.830  15.885  0.4740  0.0881 -0.2443
 2179PEP     CB83454  11.249  12.730  16.121 -0.4221  0.1013  0.0666
 2179PEP     CB83455  11.318  12.452  16.490 -0.1240 -0.0295 -0.1181
 2179PEP     CB83456  11.025  12.276  16.674 -0.3401 -0.3641  0.2378
 2179PEP     CB83457  10.695  12.141  16.443  0.0561 -0.6406  0.1124
 2179PEP     CB83458  10.386  12.126  16.116 -0.3007  0.2180 -0.1816
 2179PEP     CB83459   9.958  12.294  16.128  0.2566  0.1741 -0.1076
 2179PEP     CB83460   9.732  12.367  16.540 -0.2674  0.0487 -0.1951
 2179PEP     CB83461   9.833  12.603  16.851  0.2317 -0.1202 -0.0111
 2179PEP     CB83462   9.975  13.022  16.886 -0.0408  0.2696  0.2298
 2179PEP     CB83463   9.727  13.341  16.738  0.0376  0.0880  0.0051
 2179PEP     CB83464   9.485  13.591  16.942 -0.4098  0.0750 -0.2367
 2179PEP     CB83465   9.549  13.851  17.233  0.2194 -0.0916  0.0464
 2179PEP     CB83466   9.611  14.191  17.390 -0.1735 -0.2514 -0.2119
 2179PEP     CB83467   9.752  14.633  17.629 -0.0007 -0.0653  0.3962
 2179PEP     CB83468   9.731  14.975  17.955 -0.4855 -0.0382 -0.1550
 2179PEP     CB83469   9.890  15.366  18.086 -0.0536  0.0888  0.0822
 2179PEP     CB83470  10.387  15.402  18.155 -0.1246 -0.1715  0.1355
 2179PEP     CB83471  10.767  15.108  18.041 -0.0899  0.3004  0.0338
 2179PEP     CB83472  10.714  14.710  17.875 -0.4706  0.0870 -0.1643
 2179PEP     CB83473  11.030  14.392  17.903 -0.2082  0.1561  0.1554
 2179PEP     CB83474  11.223  14.263  18.249  0.1223  0.2100  0.0267
 2179PEP     CB83475  11.101  13.958  18.499  0.0209 -0.0894 -0.2813
 2179PEP     CB83476  10.958  13.705  18.765  0.0893  0.2411  0.1050
 2179PEP     CB83477  10.660  13.820  19.092  0.0353 -0.0358 -0.1358
 2179PEP     CB83478  10.447  14.133  19.402 -0.2071 -0.3307 -0.3799
 2179PEP     CB83479  10.181  14.037  19.726  0.4524 -0.0544  0.4330
 2179PEP     CB83480   9.808  13.978  19.840  0.2797  0.2569 -0.0798
 2180PEP     CB83481  13.610  16.513   4.445  0.1196  0.0105  0.0363
 2180PEP     CB83482  13.400  16.672   4.795 -0.2069 -0.1878  0.3691
 2180PEP     CB83483  13.490  16.673   5.247  0.0080  0.1562  0.4362
 2180PEP     CB83484  13.548  16.377   5.720  0.1533  0.0097 -0.1390
 2180PEP     CB83485  13.388  16.041   5.984 -0.3040 -0.3041 -0.2103
 2180PEP     CB83486  13.278  15.949   6.413  0.1559  0.0460  0.1619
 2180PEP     CB83487  13.422  16.124   6.864 -0.0804  0.2456  0.1102
 2180PEP     CB83488  13.664  16.520   6.963 -0.0346  0.0260 -0.3890
 2180PEP     CB83489  13.686  16.850   6.783 -0.1287  0.2024 -0.1943
 2180PEP     CB83490  13.259  16.952   6.569  0.2087 -0.1963 -0.2739
 2180PEP     CB83491  13.046  16.556   6.481  0.0528 -0.0127 -0.1124
 2180PEP     CB83492  12.866  16.158   6.465 -0.0788 -0.1994 -0.1250
 2180PEP     CB83493  12.531  15.974   6.246 -0.2661 -0.1151 -0.0813
 2180PEP     CB83494  12.442  16.020   5.750 -0.1705 -0.0464  0.3293
 2180PEP     CB83495  12.345  15.839   5.306 -0.4271  0.1337  0.0154
 2180PEP     CB83496  12.317  15.575   4.949  0.2280  0.2783  0.0836
 2180PEP     CB83497  12.107  15.548   4.534 -0.4326  0.3934  0.5214
 2180PEP     CB83498  12.258  15.746   4.140  0.1186 -0.3257 -0.4309
 2180PEP     CB83499  12.625  15.611   3.842  0.1455  0.1097 -0.2941
 2180PEP     CB83500  12.894  15.258   3.718  0.0014  0.4639 -0.0166
 2180PEP     CB83501  13.215  15.011   3.971  0.1237 -0.1403 -0.0623
 2180PEP     CB83502  13.469  14.981   4.354  0.0012 -0.1108 -0.0005
 2180PEP     CB83503  13.736  15.108   4.656  0.0578 -0.2512 -0.1304
 2180PEP     CB83504  13.643  14.911   5.100 -0.3677  0.4060 -0.1730
 2180PEP     CB83505  13.426  14.902   5.517  0.0044 -0.0435 -0.1149
 2180PEP     CB83506  13.068  14.853   5.780 -0.3906  0.1053 -0.0589
 2180PEP     CB83507  12.808  15.016   6.047  0.1932 -0.0658  0.2758
 2180PEP     CB83508  12.367  15.095   6.156 -0.2359 -0.3176 -0.0821
 2180PEP     CB83509  12.035  14.803   6.148 -0.2835  0.0549 -0.0023
 2180PEP     CB83510  12.114  14.344   6.294  0.3440 -0.1527  0.1249
 2180PEP     CB83511  12.464  14.102   6.179  0.2513 -0.0098 -0.0925
 2180PEP     CB83512  12.887  14.210   5.970  0.2900  0.1210 -0.4470
 2180PEP     CB83513  13.148  13.917   5.714 -0.1361  0.2948  0.1995
 2180PEP     CB83514  12.955  13.687   5.413  0.1605  0.3390  0.0311
 2180PEP     CB83515  12.617  13.779   5.066 -0.3490  0.0426 -0.0631
 2180PEP     CB83516  12.381  14.213   4.984  0.1202  0.0178 -0.2883
 2180PEP     CB83517  12.056  14.422   5.277 -0.1888 -0.1560  0.2178
 2180PEP     CB83518  12.234  14.611   5.647  0.1815  0.1375 -0.0746
 2180PEP     CB83519  12.525  14.553   5.899 -0.0477 -0.1014 -0.3924
 2180PEP     CB83520  12.601  14.568   6.286  0.3294 -0.1631 -0.0633
 2181PEP     CB83521   4.920  18.086  13.670  0.5628  0.7029  0.2032
 2181PEP     CB83522   4.584  18.258  13.828  0.1433  0.1628  0.1062
 2181PEP     CB83523   4.395  18.427  14.252  0.1559  0.1414  0.2735
 2181PEP     CB83524   4.341  18.488  14.776 -0.0836 -0.3094 -0.0271
 2181PEP     CB83525   4.232  18.243  15.130  0.0758  0.0557  0.2368
 2181PEP     CB83526   4.200  17.932  15.401  0.1304 -0.1726 -0.0484
 2181PEP     CB83527   4.380  17.618  15.548 -0.2394 -0.2423 -0.0966
 2181PEP     CB83528   4.541  17.213  15.343 -0.4491  0.3521  0.4042
 2181PEP     CB83529   4.519  16.815  15.052 -0.0938  0.0364  0.2950
 2181PEP     CB83530   4.226  16.438  15.230 -0.0753 -0.1680  0.0047
 2181PEP     CB83531   4.136  16.129  15.496  0.1114  0.2045  0.0538
 2181PEP     CB83532   4.001  16.018  15.893  0.3156  0.1141  0.2494
 2181PEP     CB83533   3.743  15.900  16.249 -0.1297  0.0982  0.4099
 2181PEP     CB83534   3.314  16.021  16.464 -0.1279 -0.2590  0.0818
 2181PEP     CB83535   2.864  15.811  16.537 -0.2389  0.1551  0.4339
 2181PEP     CB83536   2.731  15.406  16.273  0.1164 -0.2106  0.1450
 2181PEP     CB83537   2.519  15.150  15.991 -0.1366 -0.1944  0.2389
 2181PEP     CB83538   2.323  14.858  15.625 -0.1885  0.1070 -0.3035
 2181PEP     CB83539   1.956  14.743  15.480 -0.0317 -0.0554 -0.0925
 2181PEP     CB83540   1.501  14.546  15.266  0.0289 -0.1802  0.1485
 2181PEP     CB83541   1.226  14.218  15.377  0.0695  0.1131 -0.0857
 2181PEP     CB83542   1.274  13.937  15.674  0.0028  0.3045 -0.1052
 2181PEP     CB83543   1.018  13.630  15.929  0.1021 -0.1755 -0.3016
 2181PEP     CB83544   0.731  13.206  16.014  0.1957  0.0777 -0.1857
 2181PEP     CB83545   0.664  12.946  16.431 -0.0743 -0.0597  0.4208
 2181PEP     CB83546   0.894  12.734  16.798  0.4180  0.1699  0.2334
 2181PEP     CB83547   1.247  12.935  17.128  0.1159 -0.2533 -0.2691
 2181PEP     CB83548   1.490  13.376  17.078  0.1387 -0.3225  0.1362
 2181PEP     CB83549   1.576  13.585  16.751  0.3379  0.2167  0.2332
 2181PEP     CB83550   1.748  13.463  16.345 -0.2932  0.2062 -0.1441
 2181PEP     CB83551   1.764  13.083  16.084  0.2402 -0.4300 -0.0622
 2181PEP     CB83552   1.977  12.704  16.150  0.1495 -0.2396  0.2239
 2181PEP     CB83553   2.364  12.436  16.371 -0.2526  0.0676  0.1563
 2181PEP     CB83554   2.693  12.428  16.749  0.1396  0.1087  0.2274
 2181PEP     CB83555   3.129  12.501  17.017  0.1099  0.1495 -0.1034
 2181PEP     CB83556   3.260  12.792  17.350 -0.2593  0.1621 -0.1664
 2181PEP     CB83557   2.954  13.110  17.561  0.0003  0.2361 -0.5689
 2181PEP     CB83558   2.595  13.279  17.272 -0.3714  0.1663  0.1893
 2181PEP     CB83559   2.635  13.578  16.988 -0.1875 -0.4843 -0.1454
 2181PEP     CB83560   2.853  13.883  16.712 -0.1025  0.1253  0.1583
 2182PEP     CB83561  20.673  21.615   0.964 -0.1175  0.5807  0.0329
 2182PEP     CB83562  20.960  21.583   1.325  0.2727  0.2096 -0.4201
 2182PEP     CB83563  20.937  21.274   1.650  0.0585  0.1503 -0.1740
 2182PEP     CB83564  20.647  20.998   1.706  0.3159 -0.0591  0.0853
 2182PEP     CB83565  20.295  20.960   2.026  0.1933  0.4140 -0.0561
 2182PEP     CB83566  20.194  21.341   2.232  0.1176  0.2835  0.1599
 2182PEP     CB83567  20.172  21.725   2.229 -0.0020  0.2395  0.2479
 2182PEP     CB83568  20.473  21.987   2.211  0.1995  0.1395  0.1385
 2182PEP     CB83569  20.678  22.215   2.484 -0.2469 -0.0551  0.1676
 2182PEP     CB83570  20.883  22.272   2.826 -0.0797  0.2335  0.2041
 2182PEP     CB83571  20.927  22.710   2.774  0.1307 -0.0557  0.2968
 2182PEP     CB83572  20.612  22.829   2.402  0.0792 -0.2199 -0.2490
 2182PEP     CB83573  20.412  22.531   2.089 -0.2254  0.1140 -0.1052
 2182PEP     CB83574  20.559  22.199   1.765  0.0873 -0.3014 -0.1815
 2182PEP     CB83575  20.804  22.087   1.459  0.0280 -0.0863 -0.1488
 2182PEP     CB83576  21.170  22.122   1.296 -0.1186  0.0427 -0.0117
 2182PEP     CB83577  21.585  21.994   1.305  0.2944  0.1101 -0.2146
 2182PEP     CB83578  22.057  22.116   1.304  0.0988  0.4189  0.0630
 2182PEP     CB83579  22.489  22.242   1.211  0.0897 -0.1488 -0.1575
 2182PEP     CB83580  22.988  22.462   1.156  0.0667 -0.2912  0.1415
 2182PEP     CB83581  23.111  22.868   1.269  0.0723  0.3230  0.0502
 2182PEP     CB83582  23.005  23.212   1.543 -0.2813 -0.0472  0.0555
 2182PEP     CB83583  23.052  23.320   1.982 -0.3277 -0.4364  0.1656
 2182PEP     CB83584  23.144  23.606   2.305  0.4172  0.1857 -0.0944
 2182PEP     CB83585  23.124  23.741   2.709 -0.2133  0.4555  0.2221
 2182PEP     CB83586  22.943  24.011   2.903 -0.2003 -0.2923  0.1037
 2182PEP     CB83587  22.469  24.088   2.862 -0.0701 -0.0936  0.0271
 2182PEP     CB83588  22.190  23.739   2.698  0.0879 -0.0071  0.0940
 2182PEP     CB83589  22.189  23.378   2.408  0.0865  0.1217  0.0088
 2182PEP     CB83590  21.966  22.988   2.338  0.3485 -0.0030  0.0904
 2182PEP     CB83591  21.532  22.942   2.506  0.2540 -0.1425  0.0565
 2182PEP     CB83592  21.357  22.939   2.955  0.3105  0.2127  0.1735
 2182PEP     CB83593  21.273  23.176   3.414 -0.4387 -0.0358  0.0598
 2182PEP     CB83594  21.165  23.467   3.633 -0.2673 -0.3179  0.3927
 2182PEP     CB83595  20.751  23.677   3.734 -0.0219 -0.3018  0.0679
 2182PEP     CB83596  20.328  23.758   3.809  0.2800  0.0965 -0.2899
 2182PEP     CB83597  19.899  23.856   3.949 -0.4900  0.4284 -0.4434
 2182PEP     CB83598  19.490  23.949   4.135  0.0594  0.2052 -0.5431
 2182PEP     CB83599  19.137  24.146   4.297  0.3375 -0.1413 -0.1931
 2182PEP     CB83600  18.730  24.440   4.516 -0.0180 -0.2381 -0.0394
 2183PEP     CB83601   8.620   5.171   1.147  0.1064 -0.2421  0.0325
 2183PEP     CB83602   8.825   4.921   1.211  0.2425 -0.0990  0.0458
 2183PEP     CB83603   8.810   4.556   1.314 -0.3827  0.1177  0.1728
 2183PEP     CB83604   8.546   4.199   1.536 -0.2560  0.2977 -0.1494
 2183PEP     CB83605   8.070   4.182   1.609 -0.0559  0.0637 -0.0560
 2183PEP     CB83606   7.880   4.526   1.311  0.0225  0.0309 -0.1710
 2183PEP     CB83607   8.103   4.723   0.927 -0.3306 -0.2245 -0.0617
 2183PEP     CB83608   8.538   4.742   0.793  0.2125 -0.1572 -0.0790
 2183PEP     CB83609   8.989   4.550   0.885  0.1654 -0.5724 -0.0923
 2183PEP     CB83610   9.299   4.439   1.071 -0.1733 -0.0776 -0.0180
 2183PEP     CB83611   9.753   4.278   1.015 -0.4021  0.2372 -0.0675
 2183PEP     CB83612  10.245   4.206   0.898  0.2373 -0.2040  0.0715
 2183PEP     CB83613  10.503   3.827   0.714  0.1757  0.0544  0.1282
 2183PEP     CB83614  10.326   3.365   0.704 -0.1010  0.0848 -0.1097
 2183PEP     CB83615  10.059   3.220   1.054 -0.0244 -0.6217 -0.0422
 2183PEP     CB83616   9.888   3.254   1.533  0.3683  0.0292 -0.0708
 2183PEP     CB83617   9.892   3.267   1.921 -0.4354  0.1793 -0.2802
 2183PEP     CB83618   9.898   3.227   2.339  0.2371  0.3964  0.2077
 2183PEP     CB83619  10.171   2.894   2.654  0.2070 -0.2104  0.2950
 2183PEP     CB83620  10.065   2.528   2.829  0.1567  0.0580 -0.3314
 2183PEP     CB83621   9.635   2.406   2.854 -0.1354  0.0837 -0.0109
 2183PEP     CB83622   9.250   2.331   2.741  0.0797  0.3524 -0.2255
 2183PEP     CB83623   8.871   2.053   2.615 -0.1462 -0.0181  0.1596
 2183PEP     CB83624   8.641   2.056   2.322  0.0209  0.0798  0.2518
 2183PEP     CB83625   8.728   1.797   1.911 -0.2623  0.3296  0.4106
 2183PEP     CB83626   9.013   1.726   1.604  0.0935 -0.0497  0.2186
 2183PEP     CB83627   9.303   1.993   1.401 -0.4756  0.4418 -0.1983
 2183PEP     CB83628   9.505   2.285   1.659 -0.0724  0.1719 -0.1263
 2183PEP     CB83629   9.513   2.384   2.083  0.3020 -0.4895 -0.2557
 2183PEP     CB83630   9.765   2.280   2.412 -0.4080 -0.0946 -0.0740
 2183PEP     CB83631  10.070   2.070   2.668 -0.1358  0.4633 -0.2091
 2183PEP     CB83632  10.081   1.592   2.911 -0.0954 -0.3030 -0.0495
 2183PEP     CB83633  10.148   1.294   3.164 -0.0983 -0.1458  0.3452
 2183PEP     CB83634  10.491   1.164   3.449 -0.1087  0.6340 -0.0583
 2183PEP     CB83635  10.593   1.349   3.864 -0.1714 -0.1967  0.2879
 2183PEP     CB83636  10.493   1.557   4.226  0.0297 -0.1718 -0.1571
 2183PEP     CB83637  10.730   1.857   4.459 -0.1541 -0.1026  0.0348
 2183PEP     CB83638  11.150   1.832   4.564  0.0471  0.0592 -0.0428
 2183PEP     CB83639  11.382   1.750   5.041 -0.3105 -0.1302  0.0320
 2183PEP     CB83640  11.389   1.840   5.498 -0.0514 -0.3948 -0.3574
 2184PEP     CB83641  18.729  15.033   5.629 -0.0206  0.1829  0.1237
 2184PEP     CB83642  18.749  14.573   5.724 -0.0141 -0.1164  0.0801
 2184PEP     CB83643  18.743  14.110   5.757  0.0357 -0.0569  0.0414
 2184PEP     CB83644  18.721  13.670   5.724 -0.0354  0.1072  0.0731
 2184PEP     CB83645  18.903  13.277   5.888  0.0213  0.1260 -0.3182
 2184PEP     CB83646  19.099  13.290   6.279 -0.1550  0.3217  0.3211
 2184PEP     CB83647  19.054  13.563   6.730 -0.1393 -0.2751 -0.1262
 2184PEP     CB83648  18.931  13.546   7.196  0.3989  0.0665  0.1064
 2184PEP     CB83649  18.822  13.446   7.662 -0.1303 -0.3599  0.0093
 2184PEP     CB83650  18.955  13.113   7.966  0.1754 -0.2653 -0.3527
 2184PEP     CB83651  19.259  13.069   8.317  0.0124 -0.0709 -0.0458
 2184PEP     CB83652  19.516  12.732   8.440 -0.1810 -0.1814  0.1064
 2184PEP     CB83653  19.529  12.330   8.437  0.0043  0.3924 -0.4572
 2184PEP     CB83654  19.320  11.987   8.050  0.2947  0.0926 -0.2468
 2184PEP     CB83655  19.162  11.935   7.716 -0.0660  0.5371  0.0506
 2184PEP     CB83656  18.891  11.839   7.366  0.0581  0.3275 -0.1301
 2184PEP     CB83657  18.468  11.748   7.297  0.1679  0.1311 -0.0419
 2184PEP     CB83658  18.158  11.897   7.055  0.1546  0.1796 -0.2652
 2184PEP     CB83659  17.950  12.177   6.716  0.2268 -0.0692  0.1880
 2184PEP     CB83660  18.030  12.227   6.240  0.0643  0.0958  0.0712
 2184PEP     CB83661  18.200  12.127   5.831  0.3584 -0.0438  0.4312
 2184PEP     CB83662  18.398  12.054   5.494  0.1205  0.1273  0.4310
 2184PEP     CB83663  18.446  11.975   5.057  0.2613  0.1536 -0.4714
 2184PEP     CB83664  18.632  11.981   4.636  0.1603 -0.1587 -0.2993
 2184PEP     CB83665  18.973  12.222   4.614  0.2477 -0.0527  0.1320
 2184PEP     CB83666  19.344  12.220   4.904  0.2349 -0.3342  0.0033
 2184PEP     CB83667  19.811  12.078   5.052 -0.0252 -0.1806 -0.4101
 2184PEP     CB83668  20.141  11.946   5.210 -0.1704  0.0620 -0.0709
 2184PEP     CB83669  20.555  11.754   5.405 -0.2855 -0.0053  0.1165
 2184PEP     CB83670  20.860  11.671   5.140 -0.1133  0.0076  0.3435
 2184PEP     CB83671  21.237  11.654   4.926 -0.0970 -0.2866  0.2088
 2184PEP     CB83672  21.725  11.550   4.809  0.1130  0.0599 -0.1518
 2184PEP     CB83673  22.148  11.584   5.024 -0.0049  0.3896 -0.0184
 2184PEP     CB83674  22.588  11.532   5.081  0.1821  0.4546  0.0303
 2184PEP     CB83675  22.962  11.543   4.917  0.1728 -0.1812 -0.0089
 2184PEP     CB83676  23.315  11.421   4.920 -0.2252 -0.2526 -0.2606
 2184PEP     CB83677  23.541  11.071   5.016 -0.1258 -0.0951  0.0261
 2184PEP     CB83678  23.699  10.716   5.275  0.1769  0.0707  0.3229
 2184PEP     CB83679  23.599  10.230   5.346 -0.2714 -0.0089 -0.1881
 2184PEP     CB83680  23.320   9.991   5.470 -0.2163 -0.0006 -0.1069
 2185PEP     CB83681  12.340   7.546  21.594  0.1622 -0.1523 -0.2571
 2185PEP     CB83682  12.520   7.506  21.977  0.0720 -0.4060  0.0251
 2185PEP     CB83683  12.545   7.104  22.164  0.1068 -0.3024 -0.0272
 2185PEP     CB83684  12.417   6.744  21.924 -0.0209 -0.3158  0.0875
 2185PEP     CB83685  12.628   6.398  21.729  0.2360 -0.0276 -0.3004
 2185PEP     CB83686  12.732   6.081  21.495  0.0094  0.1410  0.0214
 2185PEP     CB83687  12.590   5.719  21.216  0.0031  0.3548 -0.0225
 2185PEP     CB83688  12.577   5.267  21.020 -0.0166 -0.0729  0.4124
 2185PEP     CB83689  12.406   4.916  21.200  0.0517  0.1866 -0.4805
 2185PEP     CB83690  12.331   4.746  21.624  0.3760  0.1106  0.0960
 2185PEP     CB83691  12.416   4.508  22.020 -0.0584  0.3157 -0.1050
 2185PEP     CB83692  12.367   4.188  22.172  0.2645  0.2480 -0.4181
 2185PEP     CB83693  12.433   3.797  22.049 -0.1586  0.2795  0.0351
 2185PEP     CB83694  12.201   3.563  21.655  0.0892 -0.4926  0.1313
 2185PEP     CB83695  12.062   3.806  21.261 -0.1539 -0.1253 -0.2742
 2185PEP     CB83696  12.316   3.914  20.876  0.1733 -0.0390 -0.2205
 2185PEP     CB83697  12.373   4.243  20.562  0.0187  0.2037  0.0516
 2185PEP     CB83698  12.506   4.169  20.116  0.0161 -0.1707 -0.0639
 2185PEP     CB83699  12.380   3.832  19.925  0.0783 -0.1222 -0.1340
 2185PEP     CB83700  12.317   3.444  20.058 -0.4115 -0.3533 -0.1270
 2185PEP     CB83701  12.132   3.267  20.439 -0.3199 -0.1077  0.6454
 2185PEP     CB83702  11.919   3.486  20.711 -0.0900 -0.3393  0.0759
 2185PEP     CB83703  11.770   3.877  20.737  0.2502 -0.3613 -0.0379
 2185PEP     CB83704  11.336   4.089  20.639  0.5176  0.0626 -0.0795
 2185PEP     CB83705  11.001   4.288  20.462 -0.4914  0.0816  0.0961
 2185PEP     CB83706  10.596   4.387  20.273 -0.1385  0.0433 -0.0337
 2185PEP     CB83707  10.418   4.622  19.926  0.1479 -0.2019  0.3360
 2185PEP     CB83708  10.203   4.919  19.588  0.0588 -0.1475  0.0350
 2185PEP     CB83709  10.203   4.994  19.140 -0.0494 -0.0337 -0.2599
 2185PEP     CB83710  10.406   4.741  18.786  0.0698 -0.4624  0.4006
 2185PEP     CB83711  10.465   4.425  18.487 -0.2389  0.1195  0.1435
 2185PEP     CB83712  10.689   4.379  17.999  0.5616  0.3205 -0.1525
 2185PEP     CB83713  10.752   4.364  17.488 -0.2224 -0.4035  0.2375
 2185PEP     CB83714  11.034   4.371  17.174 -0.2528 -0.0336 -0.1203
 2185PEP     CB83715  11.343   4.268  16.817  0.0098 -0.0398 -0.0615
 2185PEP     CB83716  11.327   3.876  16.520 -0.1181  0.1061 -0.0660
 2185PEP     CB83717  11.174   3.536  16.297  0.0012 -0.1219 -0.2174
 2185PEP     CB83718  11.006   3.244  16.040 -0.0418  0.0048  0.1153
 2185PEP     CB83719  10.843   3.198  15.567 -0.1339 -0.4719 -0.0227
 2185PEP     CB83720  10.526   3.255  15.342 -0.1453  0.2592 -0.0442
 2186PEP     CB83721   6.413  12.171   0.478  0.4002 -0.4268 -0.3707
 2186PEP     CB83722   6.654  12.465   0.361  0.5313  0.0495  0.1055
 2186PEP     CB83723   6.679  12.577  -0.030  0.1591  0.2574  0.1319
 2186PEP     CB83724   6.602  12.323  -0.327 -0.0352  0.2754  0.1529
 2186PEP     CB83725   6.429  12.323  -0.694 -0.1840  0.1890 -0.0540
 2186PEP     CB83726   6.460  12.563  -1.071  0.3979 -0.6488  0.3162
 2186PEP     CB83727   6.349  12.847  -1.544 -0.0319 -0.1949 -0.0637
 2186PEP     CB83728   6.355  13.308  -1.659  0.1670 -0.0662  0.0637
 2186PEP     CB83729   6.557  13.654  -1.534 -0.0723 -0.0799 -0.0370
 2186PEP     CB83730   6.415  13.900  -1.195  0.0474  0.0673  0.2979
 2186PEP     CB83731   6.047  14.185  -1.166 -0.5063  0.0145 -0.2508
 2186PEP     CB83732   5.773  14.117  -1.429  0.0631 -0.4739 -0.2981
 2186PEP     CB83733   5.854  13.884  -1.833  0.3755  0.0419 -0.1242
 2186PEP     CB83734   6.132  13.580  -2.022  0.0673 -0.0019 -0.1978
 2186PEP     CB83735   6.522  13.483  -2.200  0.1789 -0.1275 -0.2866
 2186PEP     CB83736   6.870  13.558  -2.403  0.1955  0.0981 -0.1834
 2186PEP     CB83737   7.172  13.746  -2.608  0.0472  0.2031  0.2944
 2186PEP     CB83738   7.325  14.049  -2.815  0.1243 -0.4367  0.1048
 2186PEP     CB83739   7.654  14.418  -2.939  0.1910  0.0898 -0.1917
 2186PEP     CB83740   7.696  14.783  -3.104 -0.1079 -0.1276 -0.0049
 2186PEP     CB83741   7.585  15.225  -3.419 -0.0327  0.0027 -0.0054
 2186PEP     CB83742   7.570  15.318  -3.877 -0.1026  0.1203 -0.1289
 2186PEP     CB83743   7.369  15.459  -4.210 -0.0452 -0.0521 -0.2118
 2186PEP     CB83744   6.886  15.443  -4.308 -0.1760  0.0447 -0.1502
 2186PEP     CB83745   6.564  15.154  -4.342 -0.0961 -0.4101  0.3238
 2186PEP     CB83746   6.496  14.794  -4.520 -0.3796 -0.0619 -0.1564
 2186PEP     CB83747   6.782  14.481  -4.772 -0.0629 -0.4291  0.0920
 2186PEP     CB83748   7.171  14.276  -4.778 -0.4879 -0.0537  0.0791
 2186PEP     CB83749   7.380  13.926  -4.599  0.0577  0.2881 -0.5005
 2186PEP     CB83750   7.267  13.551  -4.421 -0.0938  0.0524 -0.1749
 2186PEP     CB83751   6.948  13.222  -4.281 -0.2473  0.5224  0.3804
 2186PEP     CB83752   6.549  12.933  -4.196 -0.0265 -0.5643  0.1441
 2186PEP     CB83753   6.226  12.596  -4.359  0.2020 -0.1109  0.1307
 2186PEP     CB83754   6.414  12.171  -4.427 -0.1185 -0.1408 -0.2466
 2186PEP     CB83755   6.884  12.084  -4.383  0.2936 -0.0710 -0.2350
 2186PEP     CB83756   7.223  12.330  -4.406  0.0520 -0.0047  0.0956
 2186PEP     CB83757   7.501  12.593  -4.406  0.4335  0.2402  0.1201
 2186PEP     CB83758   7.848  12.694  -4.295  0.2247 -0.2185 -0.1059
 2186PEP     CB83759   8.238  12.776  -4.219  0.0605 -0.2311 -0.1621
 2186PEP     CB83760   8.669  12.681  -4.268 -0.1301  0.0808 -0.0885
 2187PEP     CB83761  17.821   3.314   5.702 -0.0202 -0.2384 -0.0513
 2187PEP     CB83762  17.708   3.206   6.166 -0.0842 -0.0167  0.2209
 2187PEP     CB83763  17.393   3.333   6.535  0.0115  0.0377 -0.1043
 2187PEP     CB83764  17.030   3.103   6.875 -0.1491  0.0286 -0.2086
 2187PEP     CB83765  16.730   2.801   7.057 -0.0934  0.0596 -0.0104
 2187PEP     CB83766  16.769   2.656   7.433 -0.1118 -0.0118  0.2086
 2187PEP     CB83767  16.571   2.766   7.811 -0.2763  0.3160 -0.0405
 2187PEP     CB83768  16.289   3.069   8.023 -0.1210  0.0216  0.0564
 2187PEP     CB83769  15.810   2.959   8.043  0.0946 -0.1893  0.2918
 2187PEP     CB83770  15.498   2.611   7.858 -0.0902 -0.4986 -0.0579
 2187PEP     CB83771  15.716   2.325   7.583  0.0602 -0.0958  0.1208
 2187PEP     CB83772  16.059   2.086   7.565  0.0985 -0.0557 -0.2235
 2187PEP     CB83773  16.416   2.041   7.689  0.1735 -0.0005  0.3378
 2187PEP     CB83774  16.838   2.017   7.783  0.1588 -0.2372 -0.3347
 2187PEP     CB83775  16.997   1.608   7.835  0.1521 -0.0605 -0.1331
 2187PEP     CB83776  17.125   1.217   7.608  0.2419 -0.2544  0.0052
 2187PEP     CB83777  17.195   0.826   7.377 -0.0626  0.2066  0.0485
 2187PEP     CB83778  17.002   0.534   7.052  0.1120  0.2369  0.1160
 2187PEP     CB83779  16.827   0.687   6.694  0.2403  0.1699 -0.2582
 2187PEP     CB83780  16.625   1.017   6.619  0.1406  0.0261 -0.0436
 2187PEP     CB83781  16.461   1.315   6.945 -0.3187  0.0473 -0.2186
 2187PEP     CB83782  16.565   1.765   6.966 -0.1984 -0.0429  0.3156
 2187PEP     CB83783  16.590   2.002   6.505  0.4532 -0.2356 -0.0560
 2187PEP     CB83784  16.621   1.743   6.138 -0.0022  0.0625 -0.0011
 2187PEP     CB83785  16.621   1.251   6.081 -0.2165 -0.0794  0.1338
 2187PEP     CB83786  16.513   0.907   5.844 -0.1347 -0.1960 -0.2461
 2187PEP     CB83787  16.768   0.623   5.497 -0.1298 -0.0364 -0.1546
 2187PEP     CB83788  16.685   0.236   5.178  0.0944  0.0209  0.2260
 2187PEP     CB83789  16.598  -0.181   4.923  0.0062  0.3287 -0.1179
 2187PEP     CB83790  16.814  -0.539   4.877  0.0922  0.0260 -0.1262
 2187PEP     CB83791  17.094  -0.785   4.603  0.3466 -0.1174 -0.1201
 2187PEP     CB83792  17.435  -0.872   4.480  0.0011  0.0014  0.0728
 2187PEP     CB83793  17.654  -0.984   4.073  0.0753 -0.1473 -0.1987
 2187PEP     CB83794  17.559  -1.171   3.652 -0.2716  0.1373 -0.3039
 2187PEP     CB83795  17.286  -1.182   3.221  0.1417 -0.0560  0.1836
 2187PEP     CB83796  16.947  -1.227   2.972 -0.2146 -0.0351 -0.0361
 2187PEP     CB83797  16.615  -1.072   2.776 -0.0375 -0.4128 -0.0703
 2187PEP     CB83798  16.493  -1.211   2.310 -0.0422  0.2167  0.0905
 2187PEP     CB83799  16.450  -1.590   2.082  0.0764 -0.0014 -0.0105
 2187PEP     CB83800  16.160  -1.927   2.137 -0.0414 -0.0827 -0.2162
 2188PEP     CB83801  10.652   0.145   6.710 -0.0065  0.4329  0.2258
 2188PEP     CB83802  10.565  -0.195   6.893 -0.3205 -0.1381 -0.0155
 2188PEP     CB83803  10.444  -0.594   7.076  0.2861  0.2632 -0.0567
 2188PEP     CB83804  10.169  -0.929   7.295  0.2458  0.0380 -0.2028
 2188PEP     CB83805  10.164  -1.208   7.643 -0.0889 -0.1861  0.3312
 2188PEP     CB83806  10.500  -1.510   7.774  0.3183  0.1092  0.5832
 2188PEP     CB83807  10.904  -1.691   7.771  0.0425  0.2036  0.1917
 2188PEP     CB83808  11.301  -1.829   7.801  0.3349  0.0973  0.0694
 2188PEP     CB83809  11.793  -1.868   7.883  0.0661 -0.0055 -0.1702
 2188PEP     CB83810  12.220  -1.737   7.765  0.1549  0.4058  0.2242
 2188PEP     CB83811  12.591  -1.620   7.614  0.5083  0.0233 -0.0228
 2188PEP     CB83812  12.764  -1.420   7.271  0.2586  0.2304 -0.0370
 2188PEP     CB83813  13.119  -1.248   7.109  0.1813  0.0278 -0.0390
 2188PEP     CB83814  13.529  -1.147   6.895  0.2123  0.4612 -0.1861
 2188PEP     CB83815  13.935  -1.312   6.724  0.1434  0.2811 -0.0242
 2188PEP     CB83816  14.068  -1.531   6.363  0.0286  0.2693 -0.2602
 2188PEP     CB83817  13.937  -1.933   6.102  0.4464  0.0574 -0.0597
 2188PEP     CB83818  14.080  -2.434   5.991  0.2334  0.3704 -0.0296
 2188PEP     CB83819  14.448  -2.746   5.886 -0.3035  0.2973 -0.0989
 2188PEP     CB83820  14.697  -2.807   5.499 -0.1882  0.2121 -0.0032
 2188PEP     CB83821  14.885  -2.701   5.087  0.0386 -0.2670 -0.0695
 2188PEP     CB83822  14.911  -2.966   4.758  0.3932  0.0968  0.0186
 2188PEP     CB83823  14.757  -2.949   4.413  0.1365  0.0539  0.0353
 2188PEP     CB83824  14.432  -2.724   4.319 -0.3504  0.1996 -0.1772
 2188PEP     CB83825  14.084  -2.489   4.503  0.0067  0.3838 -0.1372
 2188PEP     CB83826  13.949  -2.117   4.430  0.1527  0.1379  0.0425
 2188PEP     CB83827  14.039  -1.777   4.445  0.2922  0.3139 -0.1491
 2188PEP     CB83828  14.076  -1.488   4.115  0.2098  0.0819 -0.0040
 2188PEP     CB83829  14.090  -1.635   3.672 -0.0390 -0.1588 -0.1091
 2188PEP     CB83830  13.786  -1.689   3.280  0.0451  0.3302 -0.1363
 2188PEP     CB83831  13.939  -1.773   2.819  0.2959  0.1004 -0.0069
 2188PEP     CB83832  14.133  -2.159   2.726  0.4152  0.0944 -0.0864
 2188PEP     CB83833  13.970  -2.552   2.886 -0.0174 -0.0043  0.0209
 2188PEP     CB83834  13.571  -2.700   3.134 -0.1141 -0.0208  0.1738
 2188PEP     CB83835  13.235  -2.539   3.158  0.0729  0.4563 -0.1384
 2188PEP     CB83836  13.176  -2.155   3.324  0.1160  0.1561 -0.2271
 2188PEP     CB83837  13.197  -1.776   2.980  0.0394 -0.3194  0.3707
 2188PEP     CB83838  12.906  -1.793   2.680  0.0126 -0.0548  0.0379
 2188PEP     CB83839  12.625  -1.999   2.581  0.0642 -0.2150 -0.0677
 2188PEP     CB83840  12.308  -2.280   2.506 -0.2829  0.2546  0.0045
 2189PEP     CB83841   2.749  18.839   4.223 -0.0498 -0.2844  0.2978
 2189PEP     CB83842   2.920  19.254   4.071  0.4296 -0.1185  0.0103
 2189PEP     CB83843   2.864  19.724   3.944  0.0785  0.0138 -0.1709
 2189PEP     CB83844   3.054  19.972   3.605 -0.0685  0.1596 -0.0839
 2189PEP     CB83845   3.385  20.095   3.437  0.5904  0.2217 -0.2280
 2189PEP     CB83846   3.666  20.363   3.139  0.3506 -0.0364  0.1378
 2189PEP     CB83847   3.946  20.202   2.827 -0.2051  0.0096  0.3722
 2189PEP     CB83848   3.820  20.324   2.367  0.0587  0.0285  0.2812
 2189PEP     CB83849   3.845  20.798   2.235  0.0026  0.0658  0.3808
 2189PEP     CB83850   4.224  21.171   2.171 -0.1592  0.0533  0.2134
 2189PEP     CB83851   4.472  21.484   2.332 -0.1766 -0.0048  0.2344
 2189PEP     CB83852   4.685  21.575   2.639  0.0144  0.0306  0.1198
 2189PEP     CB83853   4.930  21.700   2.966  0.1850 -0.1547 -0.1162
 2189PEP     CB83854   5.191  21.975   3.227  0.0336 -0.3328 -0.0571
 2189PEP     CB83855   5.488  21.969   3.596 -0.0378  0.0132 -0.0050
 2189PEP     CB83856   5.543  21.681   3.992 -0.3473  0.1243  0.0989
 2189PEP     CB83857   5.457  21.245   4.222  0.1741 -0.0953 -0.0275
 2189PEP     CB83858   5.075  21.032   4.551 -0.4346  0.0742 -0.1221
 2189PEP     CB83859   4.719  20.907   4.837  0.0685 -0.4932  0.6278
 2189PEP     CB83860   4.332  20.995   4.964 -0.4504 -0.0120 -0.1510
 2189PEP     CB83861   4.039  21.263   4.727 -0.0818  0.0673  0.1298
 2189PEP     CB83862   3.825  21.594   4.634  0.3924  0.3431  0.4263
 2189PEP     CB83863   3.535  21.692   4.318 -0.2907 -0.5632 -0.1183
 2189PEP     CB83864   3.117  21.533   4.097 -0.0967  0.1260 -0.2898
 2189PEP     CB83865   3.066  21.370   3.734  0.0173  0.0393  0.3490
 2189PEP     CB83866   3.163  21.399   3.278  0.1245  0.5623  0.0439
 2189PEP     CB83867   2.969  21.214   2.941  0.2239  0.1885 -0.2343
 2189PEP     CB83868   2.766  20.811   2.942  0.0898  0.1336  0.1465
 2189PEP     CB83869   2.414  20.725   3.286  0.2033  0.0845  0.0732
 2189PEP     CB83870   2.453  21.010   3.622 -0.2086 -0.0492 -0.1873
 2189PEP     CB83871   2.645  21.367   3.539  0.3042 -0.0194 -0.2513
 2189PEP     CB83872   2.726  21.653   3.227 -0.3560  0.2126  0.0503
 2189PEP     CB83873   2.824  21.802   2.776  0.2124 -0.0493  0.2052
 2189PEP     CB83874   2.983  22.209   2.608  0.1608 -0.1004 -0.1123
 2189PEP     CB83875   3.342  22.571   2.587  0.1601  0.0117  0.0181
 2189PEP     CB83876   3.508  22.822   2.252  0.2990  0.2326 -0.4301
 2189PEP     CB83877   3.817  23.016   2.022  0.0576  0.0425 -0.3681
 2189PEP     CB83878   3.919  22.911   1.712 -0.2471 -0.4975 -0.2990
 2189PEP     CB83879   3.868  22.644   1.386  0.3408  0.1675 -0.2529
 2189PEP     CB83880   3.835  22.211   1.178 -0.0180 -0.0773  0.2991
 2190PEP     CB83881  18.027  17.080  15.904  0.0389 -0.1986 -0.0632
 2190PEP     CB83882  18.192  16.842  15.658  0.2377 -0.2644  0.2511
 2190PEP     CB83883  18.519  16.683  15.342  0.3262  0.0834  0.3479
 2190PEP     CB83884  18.949  16.805  15.169  0.0498  0.1139 -0.3174
 2190PEP     CB83885  19.371  16.772  15.071  0.0773 -0.2253 -0.0803
 2190PEP     CB83886  19.696  16.672  14.825 -0.0385 -0.2017  0.0559
 2190PEP     CB83887  19.998  16.391  14.508  0.0606 -0.3740 -0.1018
 2190PEP     CB83888  20.318  16.329  14.257 -0.2121  0.2549  0.0089
 2190PEP     CB83889  20.431  16.645  13.929  0.3324  0.2226  0.3283
 2190PEP     CB83890  20.308  16.773  13.445  0.0706  0.1549 -0.1478
 2190PEP     CB83891  20.373  17.162  13.229 -0.1794 -0.2962  0.0016
 2190PEP     CB83892  20.639  17.429  13.121  0.1075 -0.1242 -0.0629
 2190PEP     CB83893  20.888  17.535  12.859 -0.0380 -0.2040 -0.0147
 2190PEP     CB83894  21.234  17.686  12.690 -0.2846 -0.1100 -0.2240
 2190PEP     CB83895  21.309  17.915  12.384  0.0539  0.0726  0.1078
 2190PEP     CB83896  21.562  18.218  12.202  0.2890 -0.2807 -0.3119
 2190PEP     CB83897  21.991  18.391  12.077 -0.1300  0.0471  0.0026
 2190PEP     CB83898  22.287  18.468  11.848 -0.0622  0.2121 -0.1323
 2190PEP     CB83899  22.724  18.591  11.838  0.0599 -0.2388  0.3405
 2190PEP     CB83900  23.126  18.677  11.702  0.0802 -0.1149 -0.0442
 2190PEP     CB83901  23.585  18.772  11.860 -0.1022 -0.1607  0.2860
 2190PEP     CB83902  23.996  18.981  11.769  0.2605 -0.5566  0.1528
 2190PEP     CB83903  24.203  19.359  11.687 -0.0644 -0.1898  0.1817
 2190PEP     CB83904  24.382  19.605  11.364  0.1288 -0.3540 -0.1162
 2190PEP     CB83905  24.696  19.967  11.277  0.2647  0.2031  0.1739
 2190PEP     CB83906  24.857  20.257  11.017  0.1318  0.0385  0.0636
 2190PEP     CB83907  24.789  20.522  10.801  0.1138  0.0990  0.0712
 2190PEP     CB83908  24.730  20.528  10.365  0.0130  0.3571 -0.0875
 2190PEP     CB83909  25.085  20.404  10.093  0.3015  0.2429 -0.0431
 2190PEP     CB83910  25.485  20.518  10.181  0.0997  0.3562  0.4005
 2190PEP     CB83911  25.576  20.669  10.544  0.0594  0.0623 -0.0309
 2190PEP     CB83912  25.351  20.466  10.934  0.0377 -0.1153  0.0275
 2190PEP     CB83913  25.303  20.115  11.153 -0.1529 -0.5022  0.2450
 2190PEP     CB83914  25.400  19.822  11.382 -0.1703 -0.1123 -0.0892
 2190PEP     CB83915  25.421  19.240  11.548 -0.0295 -0.1357 -0.0044
 2190PEP     CB83916  25.683  18.893  11.584  0.0683  0.4341  0.4512
 2190PEP     CB83917  25.720  18.566  11.307  0.2121 -0.0810 -0.4349
 2190PEP     CB83918  25.424  18.354  10.985  0.1279 -0.1555  0.0236
 2190PEP     CB83919  25.370  18.276  10.539 -0.1266  0.1968  0.0999
 2190PEP     CB83920  25.634  18.402  10.160  0.2009 -0.1999 -0.0063
 2191PEP     CB83921  19.497  20.084   6.473 -0.0423  0.1706 -0.4346
 2191PEP     CB83922  19.800  20.175   6.326  0.0495 -0.2069  0.1281
 2191PEP     CB83923  19.970  20.519   6.094 -0.3592 -0.0294  0.3937
 2191PEP     CB83924  20.048  20.491   5.597 -0.0358 -0.0417  0.4709
 2191PEP     CB83925  20.056  20.244   5.238  0.1659 -0.0420  0.2360
 2191PEP     CB83926  20.059  19.922   5.101  0.0169 -0.2172 -0.0247
 2191PEP     CB83927  20.056  19.473   5.142  0.2549  0.6326  0.0331
 2191PEP     CB83928  19.836  19.112   5.161  0.3881  0.2474 -0.3360
 2191PEP     CB83929  19.433  19.027   4.990  0.0158 -0.3014  0.1372
 2191PEP     CB83930  19.096  19.163   5.142 -0.0362  0.0538  0.1806
 2191PEP     CB83931  19.065  19.563   5.347 -0.0305  0.0003  0.4717
 2191PEP     CB83932  19.168  19.993   5.306  0.2396  0.0716  0.2364
 2191PEP     CB83933  19.375  20.522   5.229  0.1342  0.2630 -0.0428
 2191PEP     CB83934  19.227  20.842   5.008  0.0440  0.0741 -0.2277
 2191PEP     CB83935  18.816  20.959   4.966  0.0067  0.0973 -0.3047
 2191PEP     CB83936  18.459  20.756   5.136  0.0190 -0.2014 -0.1505
 2191PEP     CB83937  18.265  20.265   5.119  0.1186 -0.0050  0.1029
 2191PEP     CB83938  17.904  20.056   4.890  0.0895 -0.0326 -0.4078
 2191PEP     CB83939  17.506  20.145   4.691 -0.2507 -0.3048  0.3099
 2191PEP     CB83940  16.996  20.140   4.829  0.0896  0.3781  0.0298
 2191PEP     CB83941  16.720  20.430   4.890  0.0837  0.1030  0.0504
 2191PEP     CB83942  16.651  20.935   4.930 -0.1066  0.1465  0.3342
 2191PEP     CB83943  16.796  21.232   5.252  0.4977 -0.3705  0.1610
 2191PEP     CB83944  16.718  21.689   5.449  0.0207  0.2337 -0.0602
 2191PEP     CB83945  16.539  22.076   5.568 -0.2222  0.0259  0.0328
 2191PEP     CB83946  16.184  22.339   5.765  0.2555  0.1901  0.0508
 2191PEP     CB83947  15.793  22.447   6.035  0.4847 -0.2039  0.2977
 2191PEP     CB83948  15.677  22.742   6.442 -0.0547  0.4197  0.0911
 2191PEP     CB83949  15.550  23.122   6.555 -0.2469 -0.2669 -0.1690
 2191PEP     CB83950  15.586  23.517   6.426  0.0388 -0.3765  0.0711
 2191PEP     CB83951  15.510  23.806   6.231  0.1474  0.2062 -0.0782
 2191PEP     CB83952  15.282  24.082   6.054  0.3636  0.0548  0.3785
 2191PEP     CB83953  15.030  24.420   5.979 -0.0773 -0.1851 -0.3818
 2191PEP     CB83954  15.066  24.824   6.005  0.1414 -0.1221 -0.3087
 2191PEP     CB83955  14.778  25.188   6.208 -0.3653 -0.1015  0.4072
 2191PEP     CB83956  14.783  25.599   5.967  0.2156  0.1291 -0.0592
 2191PEP     CB83957  15.146  25.845   5.724  0.1971 -0.0242  0.2245
 2191PEP     CB83958  15.434  26.007   5.921  0.0110 -0.1670 -0.3864
 2191PEP     CB83959  15.443  26.167   6.362 -0.0003  0.0923 -0.3543
 2191PEP     CB83960  15.277  26.354   6.811  0.1064  0.1975  0.0812
 2192PEP     CB83961   8.076   7.414   0.245 -0.4473 -0.1959  0.5231
 2192PEP     CB83962   8.175   7.828   0.115 -0.0461  0.1539  0.1130
 2192PEP     CB83963   8.028   8.035  -0.252  0.1222 -0.0823  0.2141
 2192PEP     CB83964   8.125   8.063  -0.685 -0.0581  0.1864  0.0868
 2192PEP     CB83965   8.356   8.040  -1.022  0.3770 -0.2917 -0.0683
 2192PEP     CB83966   8.705   8.314  -1.278  0.1657  0.0721  0.0123
 2192PEP     CB83967   8.754   8.706  -1.232  0.0919  0.0255  0.2092
 2192PEP     CB83968   8.963   9.032  -1.458 -0.1796 -0.0277  0.0680
 2192PEP     CB83969   9.232   9.472  -1.484 -0.0053  0.2696 -0.1391
 2192PEP     CB83970   9.338   9.936  -1.536 -0.2542  0.1285  0.0933
 2192PEP     CB83971   9.633  10.242  -1.789  0.0644  0.1821  0.2695
 2192PEP     CB83972   9.858  10.606  -1.601 -0.0394 -0.1325  0.2030
 2192PEP     CB83973  10.003  10.633  -1.280 -0.1115 -0.0686 -0.1014
 2192PEP     CB83974  10.109  10.309  -1.041 -0.2966  0.5029 -0.4207
 2192PEP     CB83975  10.265   9.947  -1.164 -0.0399  0.0930  0.0645
 2192PEP     CB83976  10.242   9.615  -1.480 -0.2255  0.1319  0.3243
 2192PEP     CB83977  10.038   9.552  -1.732  0.6877 -0.2694  0.1198
 2192PEP     CB83978   9.690   9.646  -1.864  0.0192 -0.3895  0.1902
 2192PEP     CB83979   9.318   9.715  -2.002  0.6081 -0.6517  0.2504
 2192PEP     CB83980   8.979   9.621  -2.425 -0.2903 -0.0358 -0.1895
 2192PEP     CB83981   8.918   9.411  -2.800 -0.0278 -0.1045 -0.1652
 2192PEP     CB83982   8.883   9.087  -3.169 -0.0763  0.2177  0.5642
 2192PEP     CB83983   8.679   8.966  -3.547 -0.0352 -0.2234 -0.0736
 2192PEP     CB83984   8.375   8.537  -3.607  0.2960  0.2508  0.0792
 2192PEP     CB83985   8.380   8.236  -3.224 -0.6240  0.3546 -0.0882
 2192PEP     CB83986   8.617   8.349  -2.850 -0.0994 -0.2672 -0.1009
 2192PEP     CB83987   8.999   8.647  -2.905 -0.0131  0.1240  0.5433
 2192PEP     CB83988   9.433   8.504  -3.016 -0.2057 -0.2749 -0.3763
 2192PEP     CB83989   9.532   8.006  -3.181  0.0222 -0.0253  0.2715
 2192PEP     CB83990   9.879   7.896  -3.446  0.2140  0.0293  0.0600
 2192PEP     CB83991  10.302   7.943  -3.516 -0.3854  0.0543 -0.3859
 2192PEP     CB83992  10.476   8.022  -3.900 -0.0216  0.4017  0.0709
 2192PEP     CB83993  10.640   8.138  -4.400  0.2181  0.1044 -0.0964
 2192PEP     CB83994  10.849   8.479  -4.400  0.2618  0.0742  0.2245
 2192PEP     CB83995  11.099   8.727  -4.094 -0.0419 -0.0107  0.0996
 2192PEP     CB83996  11.220   9.113  -3.802 -0.1834  0.1988  0.0289
 2192PEP     CB83997  11.303   9.217  -3.318 -0.0247 -0.0052 -0.1367
 2192PEP     CB83998  11.581   9.149  -3.050  0.1353  0.0471  0.0274
 2192PEP     CB83999  11.834   9.535  -2.784 -0.0145  0.0532  0.1832
 2192PEP     CB84000  12.144   9.829  -2.665 -0.1071 -0.2693 -0.0391
 2193PEP     CB84001   8.631  17.432   1.066  0.0037 -0.1495  0.3185
 2193PEP     CB84002   8.874  17.388   0.911 -0.0274  0.1316  0.0865
 2193PEP     CB84003   9.131  17.132   0.661 -0.4345  0.0617  0.2575
 2193PEP     CB84004   9.253  16.892   0.215  0.2776 -0.3665 -0.1670
 2193PEP     CB84005   9.588  16.887  -0.146  0.1518 -0.0179 -0.0717
 2193PEP     CB84006   9.683  17.158  -0.447 -0.0877 -0.0732 -0.0718
 2193PEP     CB84007   9.814  17.510  -0.701  0.1776  0.5389 -0.4550
 2193PEP     CB84008   9.783  17.690  -1.040 -0.0087  0.0503 -0.2421
 2193PEP     CB84009   9.484  17.784  -1.399  0.1338 -0.0110 -0.0181
 2193PEP     CB84010   9.096  17.777  -1.647  0.2776  0.1791  0.2379
 2193PEP     CB84011   8.756  17.432  -1.893 -0.0928  0.3840  0.0436
 2193PEP     CB84012   8.406  17.037  -2.024 -0.0678  0.0250 -0.1785
 2193PEP     CB84013   8.312  16.629  -2.206 -0.2154 -0.1369  0.0340
 2193PEP     CB84014   8.425  16.214  -2.091  0.2175 -0.4297 -0.2347
 2193PEP     CB84015   8.547  16.015  -1.679  0.3695 -0.2029  0.1670
 2193PEP     CB84016   8.727  16.339  -1.261  0.2065  0.0004  0.1392
 2193PEP     CB84017   9.098  16.638  -1.333  0.0553 -0.5535 -0.1150
 2193PEP     CB84018   9.529  16.526  -1.246 -0.1805  0.0345 -0.3661
 2193PEP     CB84019   9.704  16.155  -1.034  0.1844  0.3943  0.2691
 2193PEP     CB84020   9.706  15.703  -0.951 -0.2621 -0.2787 -0.2506
 2193PEP     CB84021   9.743  15.437  -0.668 -0.2079  0.0527 -0.2292
 2193PEP     CB84022   9.813  14.983  -0.449 -0.1297  0.1418 -0.2980
 2193PEP     CB84023   9.749  14.747  -0.066  0.0694  0.0970 -0.0530
 2193PEP     CB84024   9.937  14.576   0.277  0.0468 -0.2025  0.1806
 2193PEP     CB84025  10.199  14.641   0.515  0.2411  0.1213  0.0544
 2193PEP     CB84026  10.433  14.788   0.866  0.1382  0.1188  0.1807
 2193PEP     CB84027  10.683  14.976   1.107  0.1728  0.2611 -0.3179
 2193PEP     CB84028  11.001  15.031   1.546  0.0105 -0.0294  0.2293
 2193PEP     CB84029  10.981  14.972   1.933  0.3144 -0.1955 -0.1194
 2193PEP     CB84030  10.731  14.574   2.105  0.2637 -0.4511 -0.2238
 2193PEP     CB84031  10.295  14.482   2.077  0.0874  0.0889 -0.1388
 2193PEP     CB84032   9.931  14.659   1.993  0.3652 -0.1451  0.1320
 2193PEP     CB84033   9.715  15.025   2.087  0.0914 -0.1631  0.1779
 2193PEP     CB84034   9.624  15.498   2.105  0.1118  0.2832  0.2367
 2193PEP     CB84035   9.611  15.804   2.343 -0.1063  0.0383  0.0584
 2193PEP     CB84036   9.877  15.900   2.738 -0.4838 -0.1960 -0.2535
 2193PEP     CB84037  10.147  15.611   2.981  0.1323  0.0504  0.2369
 2193PEP     CB84038  10.336  15.257   2.926  0.1157  0.0279 -0.1445
 2193PEP     CB84039  10.415  14.794   3.076 -0.0825 -0.3400 -0.0101
 2193PEP     CB84040  10.411  14.388   3.256 -0.4911  0.1365  0.3496
 2194PEP     CB84041  16.829  20.924  16.862  0.1242  0.1005 -0.1582
 2194PEP     CB84042  16.440  20.894  17.044  0.0060  0.0205  0.3693
 2194PEP     CB84043  16.053  20.750  17.106 -0.0782  0.1411 -0.3118
 2194PEP     CB84044  15.704  20.493  17.195 -0.1573 -0.2445 -0.2196
 2194PEP     CB84045  15.629  20.117  17.461  0.4865 -0.0917  0.0280
 2194PEP     CB84046  15.631  19.740  17.517  0.1849  0.0970  0.1421
 2194PEP     CB84047  15.783  19.394  17.239  0.0852 -0.2523 -0.3090
 2194PEP     CB84048  16.028  19.290  16.811 -0.2770 -0.1142 -0.0592
 2194PEP     CB84049  16.254  19.440  16.497 -0.2426  0.1261 -0.0169
 2194PEP     CB84050  16.325  19.731  16.093 -0.3432  0.2591 -0.0535
 2194PEP     CB84051  16.677  19.902  15.732  0.0733  0.2270 -0.0342
 2194PEP     CB84052  17.085  19.755  15.471  0.0178  0.0283 -0.1998
 2194PEP     CB84053  17.467  19.559  15.309 -0.0506  0.0422 -0.2582
 2194PEP     CB84054  17.663  19.464  14.885  0.0962 -0.1051  0.1842
 2194PEP     CB84055  17.737  19.307  14.427  0.0144 -0.0008  0.1684
 2194PEP     CB84056  17.316  19.205  14.259  0.2900 -0.3046  0.3295
 2194PEP     CB84057  16.994  19.448  14.137 -0.1948  0.1170 -0.0806
 2194PEP     CB84058  16.999  19.864  14.245  0.0191 -0.5907  0.0642
 2194PEP     CB84059  16.800  20.207  14.121  0.0574  0.1614 -0.0127
 2194PEP     CB84060  16.384  20.137  13.823  0.1399 -0.0219  0.2233
 2194PEP     CB84061  16.283  19.757  13.625 -0.2082 -0.4533 -0.4259
 2194PEP     CB84062  16.398  19.305  13.413 -0.5393 -0.1491  0.0247
 2194PEP     CB84063  16.463  18.952  13.419  0.2302 -0.0350  0.3731
 2194PEP     CB84064  16.451  18.514  13.501  0.2459  0.0484 -0.0336
 2194PEP     CB84065  16.098  18.271  13.643 -0.0785 -0.0360 -0.0013
 2194PEP     CB84066  15.772  18.166  13.386 -0.0689  0.2377 -0.2999
 2194PEP     CB84067  15.630  18.388  13.092 -0.0188 -0.0034  0.1414
 2194PEP     CB84068  15.570  18.837  13.068  0.1033  0.1180  0.2782
 2194PEP     CB84069  15.464  19.101  13.400  0.1232 -0.2912 -0.1433
 2194PEP     CB84070  15.562  19.267  13.857 -0.1665  0.0663  0.0082
 2194PEP     CB84071  15.779  19.123  14.268  0.2832  0.3253 -0.1132
 2194PEP     CB84072  16.174  19.198  14.379 -0.1591 -0.6095 -0.0809
 2194PEP     CB84073  16.467  19.135  14.023 -0.1752 -0.0459  0.0904
 2194PEP     CB84074  16.842  18.984  13.862  0.0440 -0.1338  0.0595
 2194PEP     CB84075  17.226  18.799  13.820  0.0032 -0.0182  0.1831
 2194PEP     CB84076  17.678  18.843  13.796 -0.5169 -0.1474 -0.0290
 2194PEP     CB84077  17.971  19.018  13.502 -0.0524 -0.0921  0.0271
 2194PEP     CB84078  18.176  18.891  13.117  0.3348  0.1299 -0.0653
 2194PEP     CB84079  18.219  18.611  12.823  0.4276 -0.0210 -0.0076
 2194PEP     CB84080  18.365  18.545  12.407 -0.1584  0.2030 -0.0956
 2195PEP     CB84081   3.980   0.599   7.604 -0.3234  0.3519 -0.0378
 2195PEP     CB84082   4.215   0.275   7.490  0.0549 -0.0796  0.0809
 2195PEP     CB84083   4.216   0.024   7.122 -0.3774  0.2038  0.1449
 2195PEP     CB84084   4.263  -0.172   6.750  0.4061  0.0576  0.4780
 2195PEP     CB84085   4.210  -0.205   6.390  0.0086 -0.4659  0.3380
 2195PEP     CB84086   4.437  -0.396   6.082 -0.1336  0.0359  0.2939
 2195PEP     CB84087   4.593  -0.857   6.015  0.3549 -0.2395 -0.0220
 2195PEP     CB84088   4.651  -1.134   6.337  0.4339 -0.4690 -0.0156
 2195PEP     CB84089   4.888  -1.439   6.577  0.0502 -0.1395  0.3043
 2195PEP     CB84090   5.078  -1.789   6.906 -0.1632 -0.0591  0.0323
 2195PEP     CB84091   5.216  -1.849   7.273 -0.1410 -0.0268  0.1384
 2195PEP     CB84092   5.240  -2.004   7.721  0.1102 -0.1393  0.1634
 2195PEP     CB84093   5.278  -2.425   7.919  0.5663 -0.1665  0.0849
 2195PEP     CB84094   5.371  -2.830   7.957  0.0433  0.0238  0.0079
 2195PEP     CB84095   5.360  -3.251   7.865  0.1936 -0.1326 -0.0837
 2195PEP     CB84096   5.376  -3.630   7.568  0.0483  0.4122  0.0459
 2195PEP     CB84097   5.719  -3.872   7.461  0.0512 -0.0391 -0.1093
 2195PEP     CB84098   6.063  -3.886   7.089 -0.1791  0.1134  0.0821
 2195PEP     CB84099   6.043  -3.800   6.644  0.1707  0.2568  0.0282
 2195PEP     CB84100   5.746  -3.648   6.407  0.0798 -0.4100 -0.2287
 2195PEP     CB84101   5.450  -3.217   6.578 -0.2481 -0.1234 -0.1123
 2195PEP     CB84102   5.384  -3.119   7.045  0.2917  0.2263 -0.0755
 2195PEP     CB84103   5.549  -3.167   7.398  0.1501  0.3331  0.0102
 2195PEP     CB84104   5.891  -3.345   7.561  0.1694 -0.2303 -0.1754
 2195PEP     CB84105   6.285  -3.520   7.314 -0.4073  0.1010 -0.2942
 2195PEP     CB84106   6.409  -3.457   6.864 -0.1675  0.1252 -0.0528
 2195PEP     CB84107   6.429  -3.386   6.454 -0.4046 -0.0448  0.1504
 2195PEP     CB84108   6.628  -3.507   6.083  0.1125 -0.0287 -0.3065
 2195PEP     CB84109   6.767  -3.886   5.834 -0.0708 -0.0489 -0.3084
 2195PEP     CB84110   6.838  -4.195   5.562  0.3456 -0.3542 -0.3390
 2195PEP     CB84111   6.759  -4.400   5.110  0.3478  0.1891  0.0160
 2195PEP     CB84112   6.657  -4.676   4.748  0.2792 -0.0295  0.0953
 2195PEP     CB84113   6.585  -4.757   4.335 -0.1871  0.2266 -0.0056
 2195PEP     CB84114   6.556  -5.005   3.983 -0.1099  0.4273 -0.2214
 2195PEP     CB84115   6.291  -5.118   3.668  0.1190 -0.0793 -0.2152
 2195PEP     CB84116   5.883  -5.319   3.422 -0.3143  0.1324 -0.1404
 2195PEP     CB84117   5.504  -5.600   3.338 -0.3221  0.3349  0.0068
 2195PEP     CB84118   5.228  -6.011   3.314 -0.2711 -0.0066  0.0985
 2195PEP     CB84119   5.014  -6.437   3.199 -0.3994 -0.0965  0.1165
 2195PEP     CB84120   4.800  -6.781   3.455 -0.4105  0.1115 -0.1651
 2196PEP     CB84121  22.022   9.711   1.146 -0.3092  0.0695 -0.0543
 2196PEP     CB84122  22.429   9.689   1.127  0.2120  0.1316  0.3136
 2196PEP     CB84123  22.831   9.747   1.339 -0.0452  0.0342 -0.0802
 2196PEP     CB84124  22.910  10.040   1.699 -0.0341 -0.4163 -0.5239
 2196PEP     CB84125  22.987  10.523   1.688  0.4892  0.0982 -0.3710
 2196PEP     CB84126  22.921  10.766   1.324  0.1678 -0.0656 -0.0421
 2196PEP     CB84127  23.169  10.778   0.989 -0.1544  0.4368  0.0275
 2196PEP     CB84128  23.536  10.575   0.837 -0.3519  0.0072  0.1169
 2196PEP     CB84129  23.862  10.265   0.912  0.0460  0.0408 -0.2930
 2196PEP     CB84130  24.259  10.239   1.187 -0.1392 -0.1099  0.3944
 2196PEP     CB84131  24.375  10.365   1.640 -0.0477 -0.3334  0.1535
 2196PEP     CB84132  24.299  10.570   2.055  0.1296 -0.1984 -0.1967
 2196PEP     CB84133  24.080  10.895   2.336 -0.2670 -0.3969 -0.0918
 2196PEP     CB84134  23.791  11.111   2.523 -0.2100 -0.3976  0.3000
 2196PEP     CB84135  23.585  11.187   2.971  0.1319 -0.1079 -0.1337
 2196PEP     CB84136  23.650  10.999   3.347 -0.0750 -0.0425 -0.3484
 2196PEP     CB84137  23.480  10.796   3.672 -0.1225 -0.3265 -0.3418
 2196PEP     CB84138  23.145  10.508   3.574  0.1581 -0.1807  0.2257
 2196PEP     CB84139  22.756  10.445   3.669  0.0126 -0.2441 -0.2357
 2196PEP     CB84140  22.495  10.303   3.922  0.1238 -0.3670  0.0548
 2196PEP     CB84141  22.126  10.084   4.031  0.3460  0.0975  0.4362
 2196PEP     CB84142  21.999   9.727   3.916 -0.3707  0.1035 -0.2007
 2196PEP     CB84143  21.827   9.654   3.544  0.2283 -0.1841 -0.4566
 2196PEP     CB84144  21.966   9.681   3.145  0.0543  0.2356  0.0884
 2196PEP     CB84145  22.214  10.016   3.044  0.3099  0.4062  0.0064
 2196PEP     CB84146  22.257  10.367   3.245 -0.2845  0.4831  0.0219
 2196PEP     CB84147  22.132  10.790   3.263  0.0925 -0.0608  0.1286
 2196PEP     CB84148  21.679  10.937   3.399 -0.1327  0.3437  0.1074
 2196PEP     CB84149  21.251  10.740   3.448 -0.2210  0.0021 -0.2318
 2196PEP     CB84150  21.080  10.535   3.152 -0.1558 -0.2168  0.0453
 2196PEP     CB84151  20.862  10.422   2.734 -0.6146  0.0816  0.2413
 2196PEP     CB84152  20.608  10.567   2.324  0.0592  0.2796  0.2252
 2196PEP     CB84153  20.483  10.586   1.874  0.1111 -0.2939 -0.0555
 2196PEP     CB84154  20.275  10.531   1.432 -0.1791  0.2183 -0.1581
 2196PEP     CB84155  20.351  10.674   1.008 -0.1677  0.2215  0.2591
 2196PEP     CB84156  20.500  11.075   0.947 -0.2877  0.3643 -0.1280
 2196PEP     CB84157  20.559  11.355   1.321  0.0408  0.2161 -0.0518
 2196PEP     CB84158  20.245  11.281   1.548  0.2176  0.4172  0.0390
 2196PEP     CB84159  20.066  10.877   1.745 -0.0998  0.0511  0.0454
 2196PEP     CB84160  19.980  10.404   1.844 -0.3836  0.0929 -0.3118
 2197PEP     CB84161   9.428  22.041  19.063  0.0662 -0.1226 -0.2274
 2197PEP     CB84162   9.102  21.828  19.280 -0.0263  0.4886 -0.0808
 2197PEP     CB84163   8.900  21.512  19.525  0.2928 -0.1313 -0.4029
 2197PEP     CB84164   9.023  20.954  19.585  0.1035  0.5800  0.2664
 2197PEP     CB84165   9.066  20.766  19.177  0.5603  0.1049  0.1809
 2197PEP     CB84166   9.236  21.017  18.876 -0.0615 -0.0146  0.2361
 2197PEP     CB84167   9.633  21.193  18.759  0.0802 -0.0686  0.1267
 2197PEP     CB84168  10.064  21.115  18.890 -0.2382 -0.5288  0.0017
 2197PEP     CB84169  10.283  20.704  18.939  0.2030 -0.0679 -0.2999
 2197PEP     CB84170  10.264  20.262  19.115  0.0630  0.0165  0.0279
 2197PEP     CB84171   9.952  19.869  19.205  0.0713 -0.3044 -0.1385
 2197PEP     CB84172   9.628  19.697  19.069  0.1976  0.2760 -0.1575
 2197PEP     CB84173   9.447  19.260  19.040  0.2313  0.0918  0.2911
 2197PEP     CB84174   9.530  18.910  19.300 -0.1878 -0.0283 -0.1557
 2197PEP     CB84175   9.762  19.015  19.704  0.3017  0.2523  0.1457
 2197PEP     CB84176  10.113  19.187  19.617 -0.3911 -0.0423 -0.1031
 2197PEP     CB84177  10.400  19.060  19.424 -0.0878  0.0762 -0.3239
 2197PEP     CB84178  10.490  18.598  19.199  0.1851 -0.0225 -0.2591
 2197PEP     CB84179  10.226  18.429  18.875 -0.2782 -0.1694 -0.0703
 2197PEP     CB84180   9.945  18.236  18.590  0.1620 -0.3582  0.1764
 2197PEP     CB84181   9.577  18.467  18.354  0.2235  0.2125  0.0455
 2197PEP     CB84182   9.540  18.925  18.368 -0.0362  0.2364 -0.5320
 2197PEP     CB84183   9.739  19.191  18.498  0.0180  0.1025  0.0902
 2197PEP     CB84184  10.077  19.375  18.348 -0.3815 -0.1137 -0.2925
 2197PEP     CB84185  10.309  19.652  18.093 -0.0705 -0.2637 -0.1530
 2197PEP     CB84186  10.582  19.957  18.204 -0.0786 -0.0420  0.3777
 2197PEP     CB84187  10.556  20.274  18.595  0.2482 -0.0209 -0.0860
 2197PEP     CB84188  10.717  20.418  18.980  0.2302  0.1611 -0.0968
 2197PEP     CB84189  11.002  20.680  19.155 -0.2416 -0.5122 -0.3148
 2197PEP     CB84190  11.460  20.757  18.970  0.0641 -0.4671  0.2725
 2197PEP     CB84191  11.855  20.758  18.839  0.4663  0.7227  0.3165
 2197PEP     CB84192  12.240  20.473  18.891  0.1508  0.1086  0.2549
 2197PEP     CB84193  12.551  20.244  19.140  0.0363 -0.0190  0.1151
 2197PEP     CB84194  12.901  19.915  19.216 -0.0058 -0.0193 -0.1288
 2197PEP     CB84195  13.152  19.543  19.278  0.1668 -0.6396  0.1422
 2197PEP     CB84196  12.886  19.167  19.272  0.1140 -0.0193 -0.1368
 2197PEP     CB84197  12.446  19.233  19.348  0.0872  0.4960 -0.1774
 2197PEP     CB84198  12.202  19.504  19.656 -0.1580 -0.0595  0.0769
 2197PEP     CB84199  11.851  19.552  19.934 -0.3137 -0.5246 -0.1532
 2197PEP     CB84200  11.439  19.578  20.071  0.2290 -0.4136  0.0344
 2198PEP     CB84201   9.883  20.630   2.781  0.0282  0.3345 -0.1389
 2198PEP     CB84202   9.534  20.845   2.870 -0.1821  0.2265 -0.1621
 2198PEP     CB84203   9.171  21.041   2.896  0.2607  0.0499  0.2681
 2198PEP     CB84204   8.754  21.026   3.110 -0.0855  0.1048 -0.0973
 2198PEP     CB84205   8.457  20.663   3.311  0.4085 -0.1301  0.1272
 2198PEP     CB84206   8.170  20.525   3.018  0.2918  0.1019 -0.2381
 2198PEP     CB84207   7.841  20.712   2.776 -0.2702  0.0255 -0.0037
 2198PEP     CB84208   7.601  21.048   3.075 -0.1060 -0.5020  0.1801
 2198PEP     CB84209   7.819  21.357   3.337  0.0207  0.1020 -0.1199
 2198PEP     CB84210   8.096  21.638   3.104  0.0611  0.1950 -0.2580
 2198PEP     CB84211   8.221  21.887   2.722  0.1407 -0.0482 -0.2634
 2198PEP     CB84212   8.619  21.920   2.423 -0.2537  0.2306  0.1413
 2198PEP     CB84213   8.970  21.837   2.302  0.1367 -0.0452 -0.1150
 2198PEP     CB84214   9.377  21.622   2.226 -0.1103 -0.1299  0.1213
 2198PEP     CB84215   9.504  21.311   1.899 -0.0833  0.1650  0.0589
 2198PEP     CB84216   9.494  21.037   1.622  0.0081  0.3078 -0.2298
 2198PEP     CB84217   9.522  20.683   1.386 -0.1519  0.0154 -0.2043
 2198PEP     CB84218   9.303  20.425   1.046  0.1536  0.2361 -0.2053
 2198PEP     CB84219   9.087  20.083   0.837  0.0199 -0.1069 -0.0835
 2198PEP     CB84220   9.343  19.717   0.607  0.3661 -0.2966 -0.0192
 2198PEP     CB84221   9.788  19.613   0.872 -0.0381  0.2605 -0.1665
 2198PEP     CB84222   9.906  19.889   1.216  0.2387 -0.7493  0.1885
 2198PEP     CB84223   9.783  20.292   1.131 -0.1332  0.4601  0.2195
 2198PEP     CB84224   9.624  20.312   0.639  0.2633  0.2115  0.0938
 2198PEP     CB84225   9.771  19.961   0.454 -0.1956  0.0737 -0.0476
 2198PEP     CB84226   9.727  19.512   0.309  0.0180  0.0427  0.0598
 2198PEP     CB84227   9.367  19.384   0.081 -0.1302  0.1348  0.2271
 2198PEP     CB84228   9.064  19.533  -0.164 -0.0319  0.0544 -0.0700
 2198PEP     CB84229   8.598  19.595  -0.411  0.0057  0.1816 -0.3108
 2198PEP     CB84230   8.439  19.795  -0.792 -0.3049 -0.2493 -0.2145
 2198PEP     CB84231   8.658  20.106  -1.121 -0.1742 -0.0142 -0.0170
 2198PEP     CB84232   8.968  20.195  -1.280  0.0925 -0.0427 -0.3672
 2198PEP     CB84233   9.181  20.474  -1.582 -0.5374 -0.2875 -0.0043
 2198PEP     CB84234   9.403  20.644  -1.830 -0.0829 -0.1422 -0.4148
 2198PEP     CB84235   9.765  20.530  -2.072  0.0344  0.0653 -0.2280
 2198PEP     CB84236  10.118  20.251  -1.891 -0.1227  0.2036  0.2391
 2198PEP     CB84237  10.499  19.968  -2.043 -0.2484  0.1838 -0.1481
 2198PEP     CB84238  10.961  19.919  -2.156  0.1816 -0.0806 -0.0349
 2198PEP     CB84239  11.342  19.990  -2.270  0.2765 -0.3393 -0.2471
 2198PEP     CB84240  11.786  20.144  -2.135  0.0091 -0.0842  0.0783
 2199PEP     CB84241   9.505  16.117  16.809 -0.0862 -0.0114  0.2194
 2199PEP     CB84242   9.850  16.349  16.809 -0.0112 -0.0852 -0.4437
 2199PEP     CB84243  10.280  16.353  16.811 -0.3571  0.3433  0.0222
 2199PEP     CB84244  10.580  16.143  16.655  0.1561  0.0023  0.3521
 2199PEP     CB84245  10.553  15.836  16.479  0.2737 -0.2099  0.3056
 2199PEP     CB84246  10.409  15.381  16.557  0.0664 -0.3518  0.3204
 2199PEP     CB84247  10.559  15.030  16.742 -0.2525  0.0346 -0.1820
 2199PEP     CB84248  11.050  14.906  16.926 -0.1158 -0.0073  0.0412
 2199PEP     CB84249  11.288  14.480  17.003  0.3283 -0.4579  0.0735
 2199PEP     CB84250  11.481  14.109  17.091  0.4421  0.5242  0.1497
 2199PEP     CB84251  11.741  13.844  17.438 -0.2189  0.2214 -0.0156
 2199PEP     CB84252  12.022  13.892  17.812 -0.0776  0.1589 -0.0775
 2199PEP     CB84253  12.397  13.755  18.048 -0.4392 -0.0692  0.2356
 2199PEP     CB84254  12.687  13.421  18.074  0.4643 -0.2611  0.3278
 2199PEP     CB84255  12.758  13.056  18.224 -0.1292 -0.3007 -0.1869
 2199PEP     CB84256  13.033  12.976  18.514  0.0719  0.1340  0.2229
 2199PEP     CB84257  13.271  13.195  18.750 -0.2533  0.0547 -0.0607
 2199PEP     CB84258  13.188  13.476  18.903 -0.1728 -0.0621  0.0375
 2199PEP     CB84259  12.953  13.836  18.874 -0.7249 -0.6334  0.2447
 2199PEP     CB84260  12.875  14.180  18.742 -0.1047  0.3202  0.0668
 2199PEP     CB84261  12.738  14.563  18.617 -0.0295 -0.1359  0.1524
 2199PEP     CB84262  12.763  15.039  18.589 -0.1527 -0.4536  0.0219
 2199PEP     CB84263  12.966  15.357  18.900 -0.0834 -0.0558  0.2141
 2199PEP     CB84264  13.252  15.527  19.187 -0.0266 -0.0272  0.1723
 2199PEP     CB84265  13.496  15.479  19.581  0.1559  0.1079 -0.1103
 2199PEP     CB84266  13.594  15.656  19.980  0.0897 -0.0915  0.0568
 2199PEP     CB84267  13.568  15.775  20.422  0.0435 -0.1393  0.0433
 2199PEP     CB84268  13.495  15.728  20.836  0.0814  0.2571  0.4443
 2199PEP     CB84269  13.530  15.671  21.317  0.1827 -0.1552 -0.0045
 2199PEP     CB84270  13.316  15.634  21.737  0.1758 -0.0870  0.1081
 2199PEP     CB84271  13.316  15.943  21.987 -0.4649 -0.0416  0.0860
 2199PEP     CB84272  13.439  16.333  22.101  0.0465  0.0907 -0.6683
 2199PEP     CB84273  13.790  16.582  22.322 -0.0229 -0.2244 -0.0532
 2199PEP     CB84274  13.876  16.998  22.462 -0.2014 -0.2025  0.0372
 2199PEP     CB84275  14.042  17.453  22.518 -0.1915 -0.3094  0.4342
 2199PEP     CB84276  13.877  17.836  22.497  0.1693 -0.0201  0.2101
 2199PEP     CB84277  13.430  18.097  22.644 -0.1662  0.1164  0.4998
 2199PEP     CB84278  13.014  18.148  22.494 -0.8858  0.2685  0.0233
 2199PEP     CB84279  12.550  17.992  22.653 -0.3402  0.1686 -0.1984
 2199PEP     CB84280  12.094  18.033  22.926 -0.0977 -0.1884  0.0083
 2200PEP     CB84281  12.341  18.355  17.664  0.0496  0.0462  0.1179
 2200PEP     CB84282  12.628  18.631  17.698 -0.4684  0.0353  0.2556
 2200PEP     CB84283  12.958  18.898  17.876 -0.1568  0.1134 -0.0484
 2200PEP     CB84284  13.357  18.998  18.034 -0.1110 -0.3115  0.0979
 2200PEP     CB84285  13.659  18.643  18.137  0.0118 -0.2832 -0.1556
 2200PEP     CB84286  13.606  18.218  18.250 -0.1064 -0.1716  0.3685
 2200PEP     CB84287  13.263  17.960  18.101  0.2853 -0.0910 -0.1663
 2200PEP     CB84288  12.936  17.948  17.766  0.1528 -0.0777 -0.1209
 2200PEP     CB84289  12.887  18.178  17.353  0.2353  0.2165 -0.1130
 2200PEP     CB84290  13.033  18.614  17.285  0.0105 -0.1685  0.0453
 2200PEP     CB84291  13.327  18.908  17.507  0.3570  0.0330  0.0069
 2200PEP     CB84292  13.690  18.880  17.583  0.4012  0.1278 -0.0063
 2200PEP     CB84293  13.968  18.546  17.716 -0.0218 -0.2970  0.0462
 2200PEP     CB84294  14.220  18.228  17.778  0.4154  0.0837 -0.0139
 2200PEP     CB84295  14.655  18.148  18.066  0.3812 -0.0140 -0.3170
 2200PEP     CB84296  14.608  17.830  18.395 -0.1178 -0.0039 -0.1785
 2200PEP     CB84297  14.357  17.476  18.551  0.3913 -0.0177 -0.0651
 2200PEP     CB84298  14.158  17.064  18.505  0.1550 -0.1831  0.0244
 2200PEP     CB84299  14.260  16.657  18.364  0.1405  0.3007  0.2219
 2200PEP     CB84300  14.209  16.250  18.570  0.4714  0.0553  0.0704
 2200PEP     CB84301  14.188  15.912  18.826  0.2263 -0.1516 -0.3316
 2200PEP     CB84302  14.024  15.487  18.911 -0.3143  0.1233 -0.3068
 2200PEP     CB84303  13.903  14.995  18.900  0.2084 -0.0783 -0.5189
 2200PEP     CB84304  14.004  14.621  19.052 -0.2615  0.0146  0.1295
 2200PEP     CB84305  14.013  14.160  19.317  0.1676  0.0130  0.2209
 2200PEP     CB84306  13.680  13.899  19.404 -0.3326 -0.0672  0.0442
 2200PEP     CB84307  13.312  13.888  19.313  0.4085 -0.1383 -0.0981
 2200PEP     CB84308  13.062  14.217  19.372  0.0051 -0.2230  0.2319
 2200PEP     CB84309  13.195  14.646  19.501 -0.3524 -0.2119 -0.2247
 2200PEP     CB84310  13.474  14.812  19.817  0.1402 -0.0734  0.1216
 2200PEP     CB84311  13.655  14.552  20.135  0.0802 -0.2830 -0.0854
 2200PEP     CB84312  13.510  14.150  20.167 -0.0034  0.0142 -0.0891
 2200PEP     CB84313  13.165  13.971  20.261 -0.1180 -0.4587  0.3131
 2200PEP     CB84314  12.895  13.873  20.599 -0.0643  0.0025  0.1184
 2200PEP     CB84315  12.837  14.113  21.018 -0.2939  0.1656 -0.3343
 2200PEP     CB84316  12.641  14.156  21.519 -0.2807  0.1518  0.3784
 2200PEP     CB84317  12.577  14.511  21.883  0.2258  0.1710 -0.2825
 2200PEP     CB84318  12.513  14.702  22.326 -0.2388 -0.0113 -0.3266
 2200PEP     CB84319  12.477  14.903  22.858  0.0317  0.1804  0.1183
 2200PEP     CB84320  12.496  15.197  23.122  0.0526 -0.1502 -0.0803
 2201PEP     CB84321  19.358  17.953   4.335  0.1592 -0.2322 -0.2405
 2201PEP     CB84322  19.021  17.793   4.403 -0.0019 -0.0805 -0.6201
 2201PEP     CB84323  18.682  17.610   4.247  0.1145 -0.0698  0.1609
 2201PEP     CB84324  18.273  17.607   4.505  0.6848  0.0289  0.0525
 2201PEP     CB84325  18.097  17.366   4.749 -0.1555  0.1896  0.0262
 2201PEP     CB84326  17.840  16.993   4.727 -0.0650 -0.0240 -0.2498
 2201PEP     CB84327  17.781  16.563   4.967 -0.1881 -0.0014 -0.2004
 2201PEP     CB84328  18.055  16.182   5.115  0.2321 -0.0913 -0.1888
 2201PEP     CB84329  18.087  15.835   5.292  0.1070  0.1689 -0.1239
 2201PEP     CB84330  17.960  15.457   5.553  0.5108  0.0123  0.1085
 2201PEP     CB84331  17.895  15.380   6.005 -0.1691  0.0733  0.1152
 2201PEP     CB84332  17.934  15.766   6.256  0.2038  0.1949 -0.1964
 2201PEP     CB84333  18.026  16.158   6.286  0.1975 -0.1960  0.3046
 2201PEP     CB84334  18.326  16.411   6.086  0.1400 -0.1632  0.4400
 2201PEP     CB84335  18.679  16.700   6.074 -0.2794  0.0414  0.2059
 2201PEP     CB84336  18.958  16.668   5.778 -0.4519 -0.0777  0.3088
 2201PEP     CB84337  18.944  16.687   5.344  0.2769  0.1487  0.0334
 2201PEP     CB84338  18.952  16.902   4.965  0.1957  0.1650  0.0390
 2201PEP     CB84339  19.204  16.925   4.698 -0.1645 -0.0163  0.0974
 2201PEP     CB84340  19.717  16.999   4.680 -0.2745 -0.0556  0.2508
 2201PEP     CB84341  20.074  17.135   4.750 -0.1573  0.0142 -0.0397
 2201PEP     CB84342  20.434  17.076   4.457 -0.0643  0.1757  0.1230
 2201PEP     CB84343  20.661  16.683   4.323  0.3073  0.2379  0.2183
 2201PEP     CB84344  20.400  16.294   4.321 -0.1020 -0.3099  0.1383
 2201PEP     CB84345  19.977  16.133   4.458  0.0066 -0.0606 -0.3724
 2201PEP     CB84346  19.651  15.887   4.499  0.0941  0.5272 -0.2558
 2201PEP     CB84347  19.424  15.461   4.224  0.2172  0.0191  0.2191
 2201PEP     CB84348  18.979  15.246   4.149 -0.1453  0.0349 -0.0413
 2201PEP     CB84349  18.728  14.913   4.412  0.0606 -0.0038  0.0067
 2201PEP     CB84350  18.874  14.579   4.633 -0.0353  0.1254 -0.0192
 2201PEP     CB84351  19.277  14.303   4.779  0.0444  0.2648 -0.0514
 2201PEP     CB84352  19.298  13.886   4.742 -0.5039  0.6455  0.6074
 2201PEP     CB84353  18.923  13.608   4.873 -0.3549 -0.0206 -0.3099
 2201PEP     CB84354  18.508  13.370   4.792  0.1392 -0.3839 -0.0459
 2201PEP     CB84355  18.283  13.015   4.663 -0.1767  0.1688 -0.0901
 2201PEP     CB84356  17.897  12.755   4.751 -0.2866 -0.3800  0.0898
 2201PEP     CB84357  17.602  12.451   4.790 -0.2227  0.3657  0.3201
 2201PEP     CB84358  17.386  12.051   4.931  0.5600  0.2290  0.1808
 2201PEP     CB84359  17.131  11.774   5.170  0.2333  0.2689 -0.3757
 2201PEP     CB84360  17.008  11.386   5.320  0.0745  0.0289 -0.3522
 2202PEP     CB84361  10.598  14.991   4.600  0.1369 -0.0386 -0.0030
 2202PEP     CB84362  10.293  15.083   4.970 -0.0076  0.4414 -0.2076
 2202PEP     CB84363  10.097  15.176   5.326 -0.1036 -0.1467  0.0085
 2202PEP     CB84364   9.764  15.025   5.517  0.2010  0.3102  0.2695
 2202PEP     CB84365   9.611  14.707   5.416  0.1026 -0.2289  0.0545
 2202PEP     CB84366   9.740  14.284   5.440  0.3487 -0.0455 -0.0878
 2202PEP     CB84367  10.158  14.135   5.661  0.1390 -0.0469  0.0619
 2202PEP     CB84368  10.504  14.412   5.982  0.1327 -0.4820  0.0859
 2202PEP     CB84369  10.934  14.429   6.181 -0.2998 -0.2258 -0.2716
 2202PEP     CB84370  11.222  14.159   6.221  0.1079  0.0838 -0.0572
 2202PEP     CB84371  11.646  14.103   6.134  0.0857 -0.3414  0.1844
 2202PEP     CB84372  12.027  13.839   6.307 -0.0997 -0.3870 -0.0670
 2202PEP     CB84373  12.194  13.499   6.345 -0.3520 -0.0299 -0.0080
 2202PEP     CB84374  12.585  13.390   6.291 -0.2147  0.3239 -0.1060
 2202PEP     CB84375  12.919  13.765   6.279 -0.2972  0.0676  0.3617
 2202PEP     CB84376  12.858  14.170   6.474 -0.2521 -0.1238 -0.2237
 2202PEP     CB84377  12.744  14.151   6.886 -0.0499 -0.0341  0.2112
 2202PEP     CB84378  12.826  13.804   7.203 -0.0923  0.3140 -0.3052
 2202PEP     CB84379  13.129  13.640   7.349 -0.0475  0.1856  0.2570
 2202PEP     CB84380  13.487  13.882   7.356  0.1965  0.2212  0.0118
 2202PEP     CB84381  13.543  14.260   7.648  0.2503  0.0765 -0.5865
 2202PEP     CB84382  13.914  14.314   7.970 -0.3128 -0.1487 -0.3268
 2202PEP     CB84383  14.365  14.321   7.977  0.3322 -0.1858  0.6051
 2202PEP     CB84384  14.731  14.478   7.705  0.2270  0.3673 -0.0313
 2202PEP     CB84385  15.178  14.695   7.686 -0.5261  0.4151  0.4324
 2202PEP     CB84386  15.507  14.571   7.864  0.4389 -0.0068 -0.3850
 2202PEP     CB84387  15.766  14.232   7.817 -0.0608  0.1182 -0.0444
 2202PEP     CB84388  15.590  13.839   7.538  0.1805 -0.2545  0.4110
 2202PEP     CB84389  15.324  13.726   7.174 -0.2413  0.3470 -0.3160
 2202PEP     CB84390  15.268  14.005   6.631  0.1883 -0.0781  0.3330
 2202PEP     CB84391  15.354  14.202   6.193 -0.0626 -0.2606 -0.1144
 2202PEP     CB84392  15.369  14.591   5.777  0.2191  0.2951 -0.0693
 2202PEP     CB84393  15.411  14.956   5.496 -0.0091  0.0773  0.0809
 2202PEP     CB84394  15.272  15.207   5.176  0.1700  0.0618 -0.5170
 2202PEP     CB84395  14.856  15.432   5.149  0.2827 -0.0545  0.2077
 2202PEP     CB84396  14.601  15.321   5.449  0.2422  0.4841 -0.1475
 2202PEP     CB84397  14.545  15.029   5.791 -0.4310 -0.3683 -0.0553
 2202PEP     CB84398  14.796  14.724   6.015  0.2757  0.0366 -0.0132
 2202PEP     CB84399  15.139  14.678   6.211  0.3194  0.1885 -0.0453
 2202PEP     CB84400  15.461  14.692   6.594  0.3196  0.0720  0.1622
 2203PEP     CB84401   2.594  12.197   4.604  0.0612 -0.1662 -0.1308
 2203PEP     CB84402   2.367  11.910   4.395 -0.0514  0.1595 -0.2893
 2203PEP     CB84403   2.331  11.513   4.207 -0.0952  0.0122 -0.2543
 2203PEP     CB84404   2.222  11.194   3.871 -0.0362  0.0786  0.2657
 2203PEP     CB84405   2.347  10.983   3.419 -0.2051 -0.1255 -0.0359
 2203PEP     CB84406   2.404  10.661   3.119  0.3097 -0.1354 -0.2787
 2203PEP     CB84407   2.229  10.495   2.713 -0.4027 -0.0680 -0.0151
 2203PEP     CB84408   2.209  10.185   2.421  0.2707  0.0742 -0.3658
 2203PEP     CB84409   2.160   9.713   2.236 -0.2093 -0.2282  0.0034
 2203PEP     CB84410   2.280   9.385   2.004 -0.0988  0.0050  0.2224
 2203PEP     CB84411   2.716   9.154   2.121 -0.4387  0.3781  0.3124
 2203PEP     CB84412   3.051   9.382   2.248  0.0686  0.0091  0.3326
 2203PEP     CB84413   3.154   9.452   2.642  0.0222 -0.1023  0.0362
 2203PEP     CB84414   2.902   9.253   3.019 -0.0739 -0.1355 -0.1269
 2203PEP     CB84415   2.797   8.860   3.058  0.3982 -0.2275  0.5611
 2203PEP     CB84416   2.807   8.437   3.165  0.1313  0.1043 -0.0406
 2203PEP     CB84417   2.896   7.990   3.038  0.3244  0.0763  0.0360
 2203PEP     CB84418   2.992   7.611   2.976  0.0267  0.1065 -0.0704
 2203PEP     CB84419   2.983   7.183   2.808 -0.2632 -0.0132 -0.0998
 2203PEP     CB84420   2.872   6.867   2.490 -0.3182 -0.3412  0.1213
 2203PEP     CB84421   2.866   6.480   2.465 -0.3939  0.1284  0.4277
 2203PEP     CB84422   2.677   6.046   2.522 -0.4560  0.2342 -0.2294
 2203PEP     CB84423   2.529   5.538   2.681 -0.0103  0.6023 -0.2193
 2203PEP     CB84424   2.566   5.091   2.756  0.1595  0.1612  0.1089
 2203PEP     CB84425   2.727   4.716   2.970  0.0340  0.1328  0.0271
 2203PEP     CB84426   2.713   4.579   3.336  0.0783 -0.0353 -0.0533
 2203PEP     CB84427   2.608   4.657   3.706 -0.0175 -0.2553  0.1064
 2203PEP     CB84428   2.606   4.928   3.966 -0.1240 -0.1662  0.0680
 2203PEP     CB84429   2.870   5.152   4.220  0.0988 -0.0818 -0.2280
 2203PEP     CB84430   3.329   5.068   4.505  0.0017  0.1788 -0.0910
 2203PEP     CB84431   3.349   4.783   4.825 -0.0760 -0.2056 -0.0373
 2203PEP     CB84432   3.180   4.618   5.190 -0.2281  0.1708  0.0969
 2203PEP     CB84433   2.825   4.850   5.352  0.3474  0.1096  0.3642
 2203PEP     CB84434   2.485   4.991   5.125 -0.1927  0.2378  0.1116
 2203PEP     CB84435   2.531   5.277   4.740 -0.1917  0.1241  0.2152
 2203PEP     CB84436   2.849   5.537   4.548  0.0295  0.2568 -0.0564
 2203PEP     CB84437   3.267   5.575   4.579  0.0577  0.2869 -0.3127
 2203PEP     CB84438   3.422   5.390   4.905  0.0196 -0.0015  0.0624
 2203PEP     CB84439   3.352   5.344   5.317 -0.2236 -0.4648 -0.1174
 2203PEP     CB84440   3.338   5.085   5.693  0.1322  0.2075  0.4176
 2204PEP     CB84441   1.018  18.636  14.088 -0.0206 -0.0840  0.0451
 2204PEP     CB84442   1.179  18.992  13.967  0.2794 -0.0968 -0.1458
 2204PEP     CB84443   1.222  19.347  13.666  0.1656  0.0164 -0.1723
 2204PEP     CB84444   1.307  19.669  13.534  0.2054 -0.1993  0.1140
 2204PEP     CB84445   1.599  19.883  13.410 -0.1374 -0.1694 -0.0343
 2204PEP     CB84446   1.775  19.955  13.028  0.0432  0.0654  0.7284
 2204PEP     CB84447   1.637  19.755  12.641  0.4604 -0.0090  0.2481
 2204PEP     CB84448   1.550  19.331  12.593 -0.0592  0.2778 -0.2166
 2204PEP     CB84449   1.643  19.043  12.886  0.1223 -0.2988  0.2609
 2204PEP     CB84450   1.723  18.641  13.070  0.2555 -0.0964 -0.2051
 2204PEP     CB84451   1.470  18.263  13.186  0.1674 -0.0457  0.0753
 2204PEP     CB84452   1.320  17.841  13.055  0.0190 -0.0656 -0.2564
 2204PEP     CB84453   1.380  17.417  13.130  0.2628 -0.4166  0.0061
 2204PEP     CB84454   1.698  17.191  13.340  0.0623  0.3194 -0.0768
 2204PEP     CB84455   2.041  17.202  13.686  0.3792  0.2830  0.1260
 2204PEP     CB84456   2.200  17.592  13.929  0.2292  0.2685  0.0266
 2204PEP     CB84457   2.276  17.781  14.265 -0.1984 -0.2578 -0.1747
 2204PEP     CB84458   2.595  17.924  14.459  0.0923  0.2812  0.0027
 2204PEP     CB84459   2.995  18.034  14.310  0.2182  0.0353 -0.0433
 2204PEP     CB84460   3.189  18.104  13.853  0.0103  0.1214  0.4956
 2204PEP     CB84461   3.485  18.083  13.542  0.2270 -0.0949  0.3709
 2204PEP     CB84462   3.866  18.160  13.303 -0.0522  0.1765 -0.1814
 2204PEP     CB84463   4.342  18.191  13.268  0.0327 -0.1460  0.2218
 2204PEP     CB84464   4.731  18.433  13.345 -0.1600 -0.1883  0.1145
 2204PEP     CB84465   5.241  18.481  13.557 -0.1178  0.2482  0.1059
 2204PEP     CB84466   5.645  18.292  13.623 -0.2353 -0.2794 -0.1175
 2204PEP     CB84467   6.014  18.025  13.496  0.0560  0.4823 -0.1416
 2204PEP     CB84468   6.475  17.865  13.542  0.4283 -0.2090 -0.2853
 2204PEP     CB84469   6.909  17.854  13.551 -0.2280  0.1475  0.0383
 2204PEP     CB84470   7.385  17.944  13.643 -0.0130  0.5479  0.1463
 2204PEP     CB84471   7.626  18.344  13.696 -0.0695  0.0049  0.0347
 2204PEP     CB84472   7.613  18.794  13.610  0.0223  0.0202  0.0301
 2204PEP     CB84473   7.450  19.208  13.822  0.1923 -0.1948 -0.1778
 2204PEP     CB84474   7.277  19.514  13.727  0.1956 -0.1908 -0.0567
 2204PEP     CB84475   7.022  19.816  13.453  0.3613  0.1662  0.0555
 2204PEP     CB84476   6.903  20.169  13.234  0.3846 -0.1657  0.1825
 2204PEP     CB84477   7.004  20.566  12.915  0.0994 -0.0744  0.2247
 2204PEP     CB84478   6.950  20.837  12.647 -0.1026  0.1439 -0.1650
 2204PEP     CB84479   7.003  21.251  12.382 -0.0996  0.3138  0.1848
 2204PEP     CB84480   7.008  21.370  11.967 -0.1677  0.0748 -0.2517
 2205PEP     CB84481   7.414  18.985   1.999 -0.2178  0.3580 -0.0884
 2205PEP     CB84482   7.341  19.007   2.404 -0.4366 -0.1948  0.0136
 2205PEP     CB84483   7.158  19.282   2.653 -0.0241  0.1999  0.2659
 2205PEP     CB84484   6.811  19.623   2.756 -0.1383  0.1485  0.1500
 2205PEP     CB84485   6.529  20.022   2.842 -0.2540  0.2719  0.4331
 2205PEP     CB84486   6.304  20.271   3.216  0.0115  0.3759 -0.0842
 2205PEP     CB84487   5.936  20.162   3.471  0.0635 -0.0584 -0.0884
 2205PEP     CB84488   5.597  19.979   3.343 -0.1588 -0.0262  0.2331
 2205PEP     CB84489   5.395  20.008   2.969 -0.0610 -0.3260  0.0987
 2205PEP     CB84490   5.092  19.773   2.627  0.1314  0.1588  0.0971
 2205PEP     CB84491   4.963  19.430   2.325  0.0474  0.2627 -0.0573
 2205PEP     CB84492   5.086  19.278   1.989 -0.0549  0.2540 -0.1227
 2205PEP     CB84493   4.885  19.386   1.605  0.3454  0.3029  0.1541
 2205PEP     CB84494   4.594  19.655   1.791  0.1625 -0.2209  0.0974
 2205PEP     CB84495   4.196  19.561   1.861 -0.0618 -0.1176  0.3678
 2205PEP     CB84496   4.030  19.156   1.970  0.1263  0.1372 -0.1854
 2205PEP     CB84497   4.209  18.704   1.837 -0.5404  0.2810 -0.1118
 2205PEP     CB84498   4.382  18.436   1.418 -0.2753  0.2271  0.1658
 2205PEP     CB84499   4.203  18.180   1.102 -0.0370 -0.1215 -0.3814
 2205PEP     CB84500   3.911  17.894   1.112  0.3227 -0.0045  0.2398
 2205PEP     CB84501   3.694  17.608   0.954  0.1325 -0.1012  0.0583
 2205PEP     CB84502   3.606  17.399   0.565  0.1033 -0.1584  0.2040
 2205PEP     CB84503   3.285  17.220   0.350 -0.0104 -0.1271  0.2051
 2205PEP     CB84504   3.071  17.001  -0.037  0.0506  0.2381  0.2845
 2205PEP     CB84505   2.932  17.126  -0.421  0.1184  0.1051  0.2194
 2205PEP     CB84506   2.632  17.030  -0.842 -0.1094 -0.0981  0.0896
 2205PEP     CB84507   2.327  17.055  -1.106 -0.1511  0.2235 -0.0144
 2205PEP     CB84508   2.161  16.733  -1.417 -0.1350  0.4219  0.4963
 2205PEP     CB84509   2.089  16.786  -1.905 -0.2172  0.2325 -0.1949
 2205PEP     CB84510   1.785  16.674  -2.229 -0.0276  0.0124  0.3228
 2205PEP     CB84511   1.704  16.437  -2.642 -0.6759  0.1987 -0.3320
 2205PEP     CB84512   1.728  16.517  -2.999 -0.1380  0.1653  0.3057
 2205PEP     CB84513   1.713  16.473  -3.429 -0.1841  0.1046  0.1327
 2205PEP     CB84514   1.720  16.730  -3.796  0.0545  0.0827 -0.2393
 2205PEP     CB84515   1.475  17.140  -3.758  0.1987  0.1131 -0.0547
 2205PEP     CB84516   1.520  17.523  -3.423 -0.3154  0.0590 -0.3469
 2205PEP     CB84517   1.971  17.596  -3.276 -0.5866  0.4790 -0.0097
 2205PEP     CB84518   2.404  17.685  -3.475 -0.0533 -0.3253  0.1087
 2205PEP     CB84519   2.898  17.882  -3.534  0.1336  0.0233 -0.4837
 2205PEP     CB84520   3.147  18.086  -3.788 -0.2705  0.1778 -0.0568
 2206PEP     CB84521  19.616  21.050   4.708  0.2601  0.2485  0.2077
 2206PEP     CB84522  20.001  21.189   4.856  0.2643  0.1594  0.1683
 2206PEP     CB84523  20.354  21.312   4.977  0.0232 -0.2001  0.0096
 2206PEP     CB84524  20.698  21.420   4.826  0.2067 -0.0067 -0.5467
 2206PEP     CB84525  21.102  21.306   4.673  0.2335  0.0297 -0.1468
 2206PEP     CB84526  21.341  21.071   4.524  0.1456 -0.1368  0.0874
 2206PEP     CB84527  21.409  20.600   4.498 -0.4311 -0.1672  0.0109
 2206PEP     CB84528  21.374  20.198   4.478 -0.1148  0.5085 -0.3280
 2206PEP     CB84529  21.279  19.783   4.280 -0.0020 -0.2899 -0.3337
 2206PEP     CB84530  21.414  19.480   4.056 -0.2393  0.1733 -0.0094
 2206PEP     CB84531  21.711  19.398   3.747  0.1644  0.0543 -0.1828
 2206PEP     CB84532  22.025  19.600   3.731  0.2948  0.1268  0.1755
 2206PEP     CB84533  22.084  19.792   4.157 -0.2380  0.2330  0.4871
 2206PEP     CB84534  21.784  19.696   4.400 -0.4958 -0.1370 -0.1428
 2206PEP     CB84535  21.571  19.311   4.518  0.3247 -0.3222  0.0285
 2206PEP     CB84536  21.181  19.161   4.446 -0.3743  0.2592 -0.2820
 2206PEP     CB84537  20.840  18.796   4.358 -0.1587  0.3344  0.2189
 2206PEP     CB84538  20.645  18.495   4.082 -0.3322  0.0185  0.1465
 2206PEP     CB84539  20.338  18.175   3.939 -0.5940  0.0662  0.1293
 2206PEP     CB84540  20.258  17.782   3.750  0.1854  0.2605 -0.2193
 2206PEP     CB84541  20.453  17.426   3.749 -0.5572  0.0064 -0.1029
 2206PEP     CB84542  20.276  17.058   3.843  0.1701 -0.0919 -0.0010
 2206PEP     CB84543  19.890  16.909   3.754 -0.3345 -0.0616 -0.0774
 2206PEP     CB84544  19.557  16.884   3.340 -0.0559  0.3117  0.0422
 2206PEP     CB84545  19.271  17.152   3.234 -0.3368  0.1553  0.0978
 2206PEP     CB84546  19.072  17.420   3.559 -0.0607  0.0624 -0.3274
 2206PEP     CB84547  18.642  17.345   3.817 -0.2515 -0.1821  0.1850
 2206PEP     CB84548  18.258  17.438   3.941 -0.2310  0.2503 -0.2165
 2206PEP     CB84549  17.990  17.798   4.186  0.0188 -0.0686  0.0844
 2206PEP     CB84550  17.829  17.983   4.528  0.1624  0.0925 -0.1310
 2206PEP     CB84551  17.465  18.109   4.745 -0.0050  0.0199  0.0619
 2206PEP     CB84552  16.953  18.087   4.713 -0.2130 -0.1040  0.1811
 2206PEP     CB84553  16.594  17.690   4.781  0.0093  0.1378  0.1156
 2206PEP     CB84554  16.302  17.463   4.393 -0.0214 -0.1801  0.0852
 2206PEP     CB84555  16.475  17.526   3.991  0.0708 -0.4103 -0.1223
 2206PEP     CB84556  16.596  17.970   3.892 -0.1169 -0.3432  0.1998
 2206PEP     CB84557  16.578  18.479   3.866 -0.1613 -0.0553  0.1000
 2206PEP     CB84558  16.731  18.872   4.021  0.0721 -0.5014  0.2552
 2206PEP     CB84559  16.853  19.121   4.322 -0.1520  0.2015 -0.3741
 2206PEP     CB84560  16.865  19.453   4.566 -0.1729  0.0190  0.1737
 2207PEP     CB84561   4.449  12.216  21.494 -0.1310 -0.4266  0.1402
 2207PEP     CB84562   4.731  12.368  21.219 -0.0419 -0.0527 -0.3018
 2207PEP     CB84563   4.884  12.526  20.870  0.1015 -0.1383 -0.1978
 2207PEP     CB84564   5.026  12.618  20.444 -0.2580  0.1132 -0.4616
 2207PEP     CB84565   4.988  12.868  20.081 -0.2198 -0.0704  0.1833
 2207PEP     CB84566   4.717  13.116  19.866 -0.3363 -0.4559 -0.0845
 2207PEP     CB84567   4.596  13.155  19.487  0.0088 -0.0931 -0.0733
 2207PEP     CB84568   4.208  13.074  19.224 -0.1018 -0.0364 -0.5180
 2207PEP     CB84569   3.898  12.975  19.594 -0.3246  0.4144  0.2515
 2207PEP     CB84570   3.608  13.272  19.847 -0.2019  0.0995  0.2914
 2207PEP     CB84571   3.299  13.627  19.809 -0.0315 -0.2065 -0.1710
 2207PEP     CB84572   3.049  13.980  19.709 -0.0968  0.2939  0.3983
 2207PEP     CB84573   2.717  14.111  19.924  0.2114  0.0162  0.0722
 2207PEP     CB84574   2.651  14.168  20.376 -0.1166 -0.0598  0.1146
 2207PEP     CB84575   2.557  14.259  20.840 -0.1923  0.0029  0.4725
 2207PEP     CB84576   2.618  14.103  21.175  0.0044  0.0690 -0.1569
 2207PEP     CB84577   2.583  14.044  21.558 -0.3546  0.0623 -0.1388
 2207PEP     CB84578   2.282  14.082  21.901  0.1977 -0.4309 -0.3271
 2207PEP     CB84579   1.840  14.167  21.791  0.2131 -0.0302  0.3553
 2207PEP     CB84580   1.719  14.098  21.345  0.2928  0.0835 -0.1505
 2207PEP     CB84581   1.720  13.812  20.996  0.1585 -0.3021 -0.3204
 2207PEP     CB84582   1.592  13.464  20.763  0.1888 -0.2850  0.1929
 2207PEP     CB84583   1.319  13.172  20.664  0.1487  0.0421 -0.1165
 2207PEP     CB84584   1.230  12.887  20.332  0.0728 -0.1226 -0.1218
 2207PEP     CB84585   0.850  12.802  20.102 -0.0067  0.0087 -0.1225
 2207PEP     CB84586   0.493  12.877  20.115  0.0952  0.0872 -0.0862
 2207PEP     CB84587   0.263  13.231  20.263 -0.1249  0.2647 -0.0434
 2207PEP     CB84588   0.486  13.585  20.394 -0.1194  0.0804 -0.3577
 2207PEP     CB84589   0.890  13.499  20.610  0.0790 -0.2225 -0.1113
 2207PEP     CB84590   0.982  13.340  20.977  0.2407  0.1618  0.1838
 2207PEP     CB84591   0.964  12.879  21.078  0.0468  0.2724 -0.1735
 2207PEP     CB84592   1.060  12.593  20.777 -0.1173 -0.1719  0.0626
 2207PEP     CB84593   1.193  12.346  20.388 -0.0882 -0.0942 -0.1123
 2207PEP     CB84594   1.285  12.078  20.112  0.2392  0.2871  0.3979
 2207PEP     CB84595   1.175  11.731  19.881 -0.0126 -0.1253 -0.2487
 2207PEP     CB84596   1.241  11.342  19.970  0.0469  0.0576 -0.0617
 2207PEP     CB84597   1.560  11.106  20.270 -0.4625 -0.0633 -0.4571
 2207PEP     CB84598   1.900  11.002  20.580 -0.3063  0.1258  0.1314
 2207PEP     CB84599   2.163  11.257  20.951  0.3187  0.2594 -0.0559
 2207PEP     CB84600   2.129  11.544  21.216  0.1024  0.0117  0.1300
 2208PEP     CB84601  21.081  11.157  12.109 -0.2499 -0.0708  0.3056
 2208PEP     CB84602  21.478  11.182  12.042 -0.0223 -0.1480 -0.0883
 2208PEP     CB84603  21.831  11.066  12.211  0.0055 -0.3288  0.0296
 2208PEP     CB84604  22.131  10.730  12.361  0.1832  0.1932 -0.1152
 2208PEP     CB84605  21.959  10.336  12.341 -0.1256  0.2020  0.0910
 2208PEP     CB84606  21.534  10.258  12.409  0.2248  0.0670 -0.3547
 2208PEP     CB84607  21.033  10.369  12.466 -0.0796  0.3295  0.0485
 2208PEP     CB84608  20.763  10.690  12.310  0.3073 -0.0779 -0.1969
 2208PEP     CB84609  20.468  11.030  12.406 -0.0629  0.1655  0.1330
 2208PEP     CB84610  20.281  11.308  12.725  0.1673  0.3428 -0.0849
 2208PEP     CB84611  20.006  11.320  13.069  0.3783  0.1803  0.3240
 2208PEP     CB84612  20.001  10.989  13.461  0.1942 -0.0832 -0.1731
 2208PEP     CB84613  19.898  10.521  13.408 -0.3265  0.0073 -0.0356
 2208PEP     CB84614  19.505  10.229  13.415  0.2590  0.3500 -0.0476
 2208PEP     CB84615  19.418   9.829  13.670 -0.3901 -0.0545 -0.1696
 2208PEP     CB84616  19.692   9.542  13.802  0.2552  0.0052 -0.3772
 2208PEP     CB84617  19.901   9.234  13.549 -0.1466  0.0297  0.0290
 2208PEP     CB84618  19.849   8.765  13.394 -0.0949  0.3518 -0.1355
 2208PEP     CB84619  19.967   8.480  13.113 -0.0174 -0.3411  0.2395
 2208PEP     CB84620  19.734   8.172  12.818 -0.1002 -0.3663 -0.0120
 2208PEP     CB84621  19.647   8.166  12.432 -0.2081  0.2663 -0.0180
 2208PEP     CB84622  19.294   8.095  12.192  0.1528  0.3101  0.2554
 2208PEP     CB84623  19.111   7.809  11.968  0.2708  0.4721  0.0287
 2208PEP     CB84624  18.706   7.635  12.028 -0.1220  0.3214 -0.0838
 2208PEP     CB84625  18.392   7.807  12.361 -0.4494 -0.0843 -0.3584
 2208PEP     CB84626  18.279   8.176  12.479 -0.0645 -0.0457  0.1687
 2208PEP     CB84627  18.692   8.552  12.448 -0.1289 -0.4002 -0.2573
 2208PEP     CB84628  18.933   8.537  12.133 -0.2407 -0.2418 -0.2955
 2208PEP     CB84629  18.994   8.280  11.773 -0.0917 -0.0377 -0.3610
 2208PEP     CB84630  19.038   8.320  11.411 -0.0540  0.1800 -0.6348
 2208PEP     CB84631  19.105   8.460  10.994  0.0018 -0.0186 -0.2128
 2208PEP     CB84632  18.945   8.732  10.707  0.3243 -0.1016 -0.2928
 2208PEP     CB84633  19.015   8.887  10.286  0.3239 -0.1535  0.3008
 2208PEP     CB84634  19.237   9.229  10.236  0.3740 -0.4395  0.0689
 2208PEP     CB84635  19.232   9.541  10.579  0.5440  0.1091  0.3074
 2208PEP     CB84636  19.298   9.414  11.007 -0.1227 -0.3038  0.3615
 2208PEP     CB84637  19.064   9.346  11.381 -0.0568  0.1718 -0.2994
 2208PEP     CB84638  19.047   9.283  11.789  0.3872 -0.2379  0.0188
 2208PEP     CB84639  18.872   9.458  12.220  0.1663 -0.4094 -0.2593
 2208PEP     CB84640  18.495   9.370  12.498 -0.3136  0.0730  0.2597
 2209PEP     CB84641   7.257   2.495   1.691 -0.3622  0.0353  0.2301
 2209PEP     CB84642   7.453   2.389   1.316 -0.4579 -0.1056  0.3376
 2209PEP     CB84643   7.405   2.373   0.904  0.2232 -0.0304 -0.2020
 2209PEP     CB84644   7.482   2.588   0.529  0.0065 -0.2964 -0.0679
 2209PEP     CB84645   7.646   2.749   0.191  0.2394  0.0534  0.3153
 2209PEP     CB84646   7.659   3.102  -0.023  0.1649 -0.2753  0.1745
 2209PEP     CB84647   7.737   3.549   0.055  0.0366 -0.0945 -0.2955
 2209PEP     CB84648   8.052   3.793   0.393 -0.0188 -0.3270 -0.0599
 2209PEP     CB84649   8.373   3.681   0.520  0.0972  0.0217  0.1468
 2209PEP     CB84650   8.648   3.207   0.329  0.1696  0.1758 -0.2667
 2209PEP     CB84651   8.676   3.068  -0.030  0.0714  0.0265 -0.4038
 2209PEP     CB84652   8.700   3.204  -0.475 -0.2027 -0.1115 -0.2771
 2209PEP     CB84653   8.538   3.525  -0.697  0.3282 -0.1887  0.4553
 2209PEP     CB84654   8.698   3.884  -0.643 -0.3502 -0.1468 -0.0614
 2209PEP     CB84655   8.704   4.256  -0.428  0.0270  0.0617  0.1151
 2209PEP     CB84656   8.708   4.622  -0.096  0.0983 -0.0970  0.0790
 2209PEP     CB84657   9.012   5.019   0.148  0.3293 -0.0254  0.1528
 2209PEP     CB84658   9.389   5.240   0.352 -0.0457  0.2197 -0.3942
 2209PEP     CB84659   9.782   5.222   0.558 -0.1022  0.3588  0.2483
 2209PEP     CB84660  10.261   5.276   0.621 -0.2004 -0.0042 -0.1331
 2209PEP     CB84661  10.605   5.527   0.697  0.1637  0.0898  0.0062
 2209PEP     CB84662  10.752   5.834   0.446 -0.2541  0.2381 -0.2459
 2209PEP     CB84663  10.412   6.201   0.321 -0.0261  0.2084 -0.3615
 2209PEP     CB84664   9.951   6.174   0.445  0.2487 -0.2054  0.0079
 2209PEP     CB84665   9.668   6.017   0.795  0.4897  0.6311 -0.0458
 2209PEP     CB84666   9.420   5.886   1.199 -0.0885  0.0838 -0.2319
 2209PEP     CB84667   9.100   6.053   1.492 -0.4137 -0.2082 -0.0554
 2209PEP     CB84668   8.863   6.420   1.447  0.3509 -0.0473  0.0344
 2209PEP     CB84669   8.802   6.732   1.237  0.0848 -0.1598  0.2594
 2209PEP     CB84670   8.879   7.149   1.156 -0.0368 -0.1539  0.4520
 2209PEP     CB84671   8.957   7.392   0.843 -0.3272 -0.1351  0.2760
 2209PEP     CB84672   9.158   7.355   0.439  0.1444 -0.0688 -0.0366
 2209PEP     CB84673   9.504   7.528   0.166  0.2550 -0.1497 -0.3476
 2209PEP     CB84674   9.794   7.366  -0.195  0.1852  0.3233  0.1980
 2209PEP     CB84675   9.812   7.224  -0.588  0.0445 -0.2321 -0.2685
 2209PEP     CB84676  10.002   7.339  -0.989 -0.1551  0.0391 -0.1409
 2209PEP     CB84677  10.268   7.601  -1.212  0.3427  0.1932 -0.2797
 2209PEP     CB84678  10.542   8.020  -0.988  0.1515  0.4176 -0.0073
 2209PEP     CB84679  10.716   8.194  -0.531  0.2793  0.1116  0.1265
 2209PEP     CB84680  10.525   8.424  -0.225  0.2691 -0.1990 -0.0498
 2210PEP     CB84681   5.742  18.058   2.906  0.1376  0.1553 -0.0695
 2210PEP     CB84682   5.350  17.976   2.903 -0.4243 -0.0825 -0.1363
 2210PEP     CB84683   4.985  17.933   2.655  0.0580 -0.2121 -0.2700
 2210PEP     CB84684   4.807  17.697   2.276 -0.0845  0.1149  0.0070
 2210PEP     CB84685   4.764  17.329   2.164 -0.3643 -0.2416  0.1449
 2210PEP     CB84686   4.857  16.860   2.099 -0.2517  0.1477 -0.2029
 2210PEP     CB84687   5.067  16.466   1.890  0.1474  0.1684  0.0040
 2210PEP     CB84688   5.483  16.337   1.708 -0.5269 -0.1360 -0.3876
 2210PEP     CB84689   5.662  16.260   1.327  0.2707  0.2598 -0.1051
 2210PEP     CB84690   5.678  16.184   0.943 -0.1280 -0.1091 -0.2267
 2210PEP     CB84691   5.331  16.121   0.544  0.0861 -0.1119  0.0292
 2210PEP     CB84692   4.854  16.177   0.648  0.0778  0.3587 -0.2094
 2210PEP     CB84693   4.642  16.272   1.053 -0.0835 -0.2374  0.1254
 2210PEP     CB84694   4.682  16.382   1.413 -0.1010  0.0170  0.2178
 2210PEP     CB84695   4.666  16.179   1.923  0.1673  0.2722  0.0281
 2210PEP     CB84696   4.382  15.897   2.106  0.1057 -0.2308 -0.0268
 2210PEP     CB84697   4.151  15.627   1.857  0.1310 -0.1397  0.0564
 2210PEP     CB84698   4.329  15.370   1.564 -0.0567 -0.1707 -0.0056
 2210PEP     CB84699   4.755  15.110   1.593 -0.2040 -0.1978  0.1173
 2210PEP     CB84700   5.137  15.042   1.568  0.1454 -0.3682 -0.0391
 2210PEP     CB84701   5.386  14.819   1.670  0.0909 -0.0488  0.0572
 2210PEP     CB84702   5.286  14.470   1.834 -0.1150 -0.1923 -0.1585
 2210PEP     CB84703   4.818  14.331   1.876  0.1029 -0.3276 -0.1737
 2210PEP     CB84704   4.463  14.698   1.784  0.1767  0.2461 -0.0139
 2210PEP     CB84705   4.310  15.020   1.964 -0.2889 -0.0662  0.0820
 2210PEP     CB84706   4.301  15.341   2.301 -0.0535  0.0088 -0.0346
 2210PEP     CB84707   4.595  15.702   2.499 -0.0107  0.1193  0.0658
 2210PEP     CB84708   4.898  15.972   2.310  0.0268  0.2116 -0.2542
 2210PEP     CB84709   5.143  16.326   2.380 -0.0248  0.0176  0.3172
 2210PEP     CB84710   5.168  16.804   2.451 -0.3398 -0.1512  0.3706
 2210PEP     CB84711   5.291  17.252   2.309 -0.0657 -0.0143 -0.0000
 2210PEP     CB84712   5.421  17.557   2.045 -0.0502 -0.2689  0.3795
 2210PEP     CB84713   5.362  17.873   1.713  0.1576  0.2274 -0.3826
 2210PEP     CB84714   5.380  18.332   1.687 -0.1079  0.3203  0.3997
 2210PEP     CB84715   5.199  18.613   1.868 -0.0109 -0.1275  0.0336
 2210PEP     CB84716   4.952  18.909   1.738  0.0844  0.0322 -0.0640
 2210PEP     CB84717   4.774  18.914   1.357 -0.0270  0.4637 -0.2881
 2210PEP     CB84718   4.541  18.726   1.087  0.0607  0.0506  0.0542
 2210PEP     CB84719   4.135  18.644   0.951 -0.2327 -0.2462  0.1603
 2210PEP     CB84720   3.708  18.774   1.134  0.1077  0.1860 -0.1571
 2211PEP     CB84721  19.320   0.766  21.376 -0.3862 -0.0312  0.0985
 2211PEP     CB84722  19.358   0.320  21.290  0.2909  0.2378 -0.1076
 2211PEP     CB84723  19.079  -0.071  21.245  0.2475 -0.1350  0.3140
 2211PEP     CB84724  18.669  -0.203  21.357  0.1286  0.0118  0.0075
 2211PEP     CB84725  18.355   0.037  21.570  0.2286 -0.1184 -0.2752
 2211PEP     CB84726  18.035   0.300  21.508  0.1258 -0.1191 -0.3778
 2211PEP     CB84727  17.740   0.183  21.310  0.0248  0.0296 -0.0260
 2211PEP     CB84728  17.786  -0.195  21.239  0.2834 -0.6003 -0.0305
 2211PEP     CB84729  18.158  -0.488  21.252  0.0991  0.4372 -0.0883
 2211PEP     CB84730  18.476  -0.521  20.977 -0.1514  0.2245 -0.0667
 2211PEP     CB84731  18.550  -0.389  20.512 -0.1575 -0.1174 -0.0381
 2211PEP     CB84732  18.489   0.088  20.406 -0.1858  0.4206 -0.1080
 2211PEP     CB84733  18.230   0.354  20.572 -0.1545 -0.1514  0.2839
 2211PEP     CB84734  17.893   0.339  20.808 -0.5003 -0.0370  0.0312
 2211PEP     CB84735  17.466   0.382  20.853  0.2071  0.3621 -0.1764
 2211PEP     CB84736  17.253   0.794  20.829  0.0998  0.1695 -0.0936
 2211PEP     CB84737  17.464   1.205  20.912 -0.1131  0.1604  0.2509
 2211PEP     CB84738  17.402   1.615  20.936  0.1625 -0.2542  0.3946
 2211PEP     CB84739  17.670   1.965  20.838 -0.0429 -0.2930 -0.1986
 2211PEP     CB84740  18.131   1.957  20.937  0.0346 -0.0073 -0.0488
 2211PEP     CB84741  18.598   2.114  21.080 -0.2719 -0.3436  0.3422
 2211PEP     CB84742  18.803   2.241  21.339 -0.3597  0.0918  0.1741
 2211PEP     CB84743  19.043   2.332  21.681 -0.2165  0.1003 -0.0440
 2211PEP     CB84744  19.172   2.231  22.039 -0.0890  0.4233 -0.0785
 2211PEP     CB84745  19.411   2.425  22.299  0.1740  0.4967 -0.2531
 2211PEP     CB84746  19.718   2.755  22.213  0.1092  0.0057  0.0153
 2211PEP     CB84747  19.854   2.992  21.863 -0.2774  0.1489  0.3514
 2211PEP     CB84748  19.573   3.013  21.519 -0.3211 -0.2094 -0.2602
 2211PEP     CB84749  19.073   3.131  21.520  0.3553 -0.1300  0.1405
 2211PEP     CB84750  18.766   3.094  21.806  0.1787 -0.2661  0.1691
 2211PEP     CB84751  18.695   3.070  22.253 -0.0124 -0.2615 -0.2838
 2211PEP     CB84752  18.536   3.170  22.626 -0.1045  0.0562  0.5300
 2211PEP     CB84753  18.369   3.347  23.020  0.0031  0.1908  0.3864
 2211PEP     CB84754  18.037   3.492  23.370 -0.0453  0.1961  0.2073
 2211PEP     CB84755  17.768   3.284  23.672  0.0858 -0.0909 -0.1720
 2211PEP     CB84756  17.437   3.418  23.995  0.2930  0.3355 -0.1157
 2211PEP     CB84757  17.321   3.305  24.448 -0.1314  0.2528  0.1910
 2211PEP     CB84758  17.569   3.405  24.755 -0.3081 -0.2927 -0.2995
 2211PEP     CB84759  17.927   3.652  24.823  0.0672  0.5210 -0.5583
 2211PEP     CB84760  18.201   3.815  24.536  0.3340  0.1201  0.0778
 2212PEP     CB84761  11.210   6.831  18.599  0.0991  0.2212  0.0345
 2212PEP     CB84762  11.089   6.436  18.709  0.3128 -0.3702 -0.4841
 2212PEP     CB84763  11.189   6.090  19.114  0.2415 -0.0644 -0.1188
 2212PEP     CB84764  11.325   5.740  19.353  0.1329 -0.3625  0.2565
 2212PEP     CB84765  11.537   5.416  19.298 -0.1051  0.1167 -0.0352
 2212PEP     CB84766  11.881   5.060  19.340 -0.2217  0.2417 -0.0965
 2212PEP     CB84767  11.932   4.714  19.477 -0.0260  0.0357 -0.0775
 2212PEP     CB84768  11.960   4.270  19.259  0.1426 -0.2191 -0.1961
 2212PEP     CB84769  12.000   3.850  19.047 -0.2220 -0.1418  0.1674
 2212PEP     CB84770  12.233   3.442  19.062  0.0959  0.2242 -0.0350
 2212PEP     CB84771  12.362   3.038  19.299 -0.0007 -0.4181 -0.2144
 2212PEP     CB84772  12.182   2.663  19.512  0.1675 -0.0391  0.1276
 2212PEP     CB84773  11.747   2.588  19.450 -0.0745  0.0753  0.0978
 2212PEP     CB84774  11.530   2.700  19.089 -0.4174  0.0946 -0.1565
 2212PEP     CB84775  11.359   2.706  18.675  0.0930 -0.0886 -0.0128
 2212PEP     CB84776  11.136   3.000  18.441  0.1052  0.4315 -0.0274
 2212PEP     CB84777  10.831   3.202  18.114 -0.1476 -0.0300  0.0405
 2212PEP     CB84778  10.871   3.415  17.741  0.0942  0.4524  0.0910
 2212PEP     CB84779  10.695   3.746  17.441  0.0384  0.0005  0.2618
 2212PEP     CB84780  10.635   3.941  17.107  0.5110  0.0595 -0.2859
 2212PEP     CB84781  10.662   4.297  16.892 -0.0023  0.0793  0.3260
 2212PEP     CB84782  10.712   4.744  16.724  0.4035 -0.2968  0.0994
 2212PEP     CB84783  10.714   5.178  16.611  0.2914 -0.1725  0.0276
 2212PEP     CB84784  10.365   5.496  16.729 -0.0196  0.1132  0.2583
 2212PEP     CB84785   9.845   5.444  16.903 -0.0824 -0.0260  0.3222
 2212PEP     CB84786   9.356   5.587  16.829 -0.0638 -0.0047  0.0939
 2212PEP     CB84787   8.897   5.439  16.724 -0.1311 -0.2133  0.0541
 2212PEP     CB84788   8.636   5.040  16.731 -0.3235  0.3566  0.5607
 2212PEP     CB84789   8.495   4.733  16.397  0.1406  0.0248 -0.2418
 2212PEP     CB84790   8.610   4.377  16.093  0.1464  0.2315 -0.1413
 2212PEP     CB84791   8.854   4.296  15.707 -0.0165 -0.0512 -0.0460
 2212PEP     CB84792   9.111   4.090  15.311 -0.0375  0.1459 -0.0855
 2212PEP     CB84793   9.526   4.155  15.112 -0.2203  0.0667 -0.2542
 2212PEP     CB84794   9.681   4.565  15.111 -0.3682  0.2647 -0.0358
 2212PEP     CB84795   9.636   4.971  15.265 -0.0099  0.1214 -0.1194
 2212PEP     CB84796   9.783   5.318  15.402  0.3532 -0.0257  0.1616
 2212PEP     CB84797   9.651   5.796  15.505  0.3480  0.0594  0.1211
 2212PEP     CB84798   9.708   6.208  15.609  0.2892 -0.0518 -0.0867
 2212PEP     CB84799   9.789   6.622  15.646 -0.0452 -0.0044  0.1439
 2212PEP     CB84800  10.000   6.839  15.918  0.1884  0.3818 -0.1751
 2213PEP     CB84801  15.742  14.136  12.911 -0.0350 -0.1214 -0.1049
 2213PEP     CB84802  15.948  14.329  12.693 -0.0167 -0.1100 -0.2014
 2213PEP     CB84803  16.050  14.717  12.515 -0.3124  0.1477 -0.4709
 2213PEP     CB84804  16.364  14.996  12.331  0.0736 -0.0660  0.2799
 2213PEP     CB84805  16.769  14.946  12.328 -0.2299  0.0222 -0.3684
 2213PEP     CB84806  16.905  14.490  12.304 -0.0219  0.1020 -0.3317
 2213PEP     CB84807  17.036  14.084  12.413 -0.0335  0.2302 -0.0405
 2213PEP     CB84808  17.340  14.011  12.614  0.3633  0.0342  0.2498
 2213PEP     CB84809  17.783  14.091  12.438 -0.3590  0.2409 -0.2055
 2213PEP     CB84810  17.829  14.195  11.942  0.3794  0.0147 -0.1082
 2213PEP     CB84811  17.554  14.408  11.575 -0.2400  0.3367  0.4758
 2213PEP     CB84812  17.433  14.681  11.290  0.2727 -0.2952 -0.1530
 2213PEP     CB84813  17.264  14.962  11.028  0.1158 -0.0413 -0.2442
 2213PEP     CB84814  17.048  15.167  10.644 -0.1249 -0.2674 -0.1142
 2213PEP     CB84815  17.027  15.452  10.277 -0.5369 -0.0699 -0.1185
 2213PEP     CB84816  17.153  15.760  10.043 -0.5122 -0.1272  0.0544
 2213PEP     CB84817  17.167  16.213   9.903  0.0650  0.3442  0.0767
 2213PEP     CB84818  17.155  16.307   9.406  0.2977  0.0282 -0.0549
 2213PEP     CB84819  16.811  16.183   9.209  0.2740 -0.0345  0.1162
 2213PEP     CB84820  16.520  15.825   9.335 -0.2822 -0.0245  0.0083
 2213PEP     CB84821  16.334  15.452   9.397 -0.4605 -0.0781  0.0715
 2213PEP     CB84822  15.935  15.359   9.543 -0.0691 -0.0196 -0.2248
 2213PEP     CB84823  15.479  15.260   9.519 -0.3626  0.0309 -0.0066
 2213PEP     CB84824  15.111  15.140   9.233 -0.1962 -0.0968  0.5101
 2213PEP     CB84825  14.672  15.028   9.249 -0.0394 -0.2077 -0.2136
 2213PEP     CB84826  14.487  14.636   8.974  0.1188  0.2160 -0.2162
 2213PEP     CB84827  14.699  14.276   8.986 -0.0578 -0.0354 -0.2060
 2213PEP     CB84828  15.097  14.152   9.268  0.2943 -0.0108 -0.2737
 2213PEP     CB84829  15.195  14.370   9.681 -0.0352 -0.3063 -0.0882
 2213PEP     CB84830  15.237  14.315  10.154  0.1719 -0.1701 -0.4178
 2213PEP     CB84831  14.997  14.555  10.458 -0.0135  0.0785 -0.1645
 2213PEP     CB84832  14.758  14.890  10.371 -0.3053 -0.0082  0.0676
 2213PEP     CB84833  14.724  15.291  10.206  0.6411  0.2775  0.0164
 2213PEP     CB84834  15.017  15.450   9.888  0.1382  0.3203 -0.1236
 2213PEP     CB84835  15.514  15.415   9.927 -0.4120  0.1873 -0.0586
 2213PEP     CB84836  15.789  15.080   9.916 -0.1921 -0.0808 -0.1350
 2213PEP     CB84837  16.009  14.859   9.630 -0.0349 -0.3287 -0.1469
 2213PEP     CB84838  16.298  14.932   9.418  0.0968 -0.2879 -0.1754
 2213PEP     CB84839  16.681  14.690   9.461 -0.1704  0.1151 -0.0719
 2213PEP     CB84840  17.012  14.539   9.269 -0.3754 -0.1013 -0.0632
 2214PEP     CB84841  14.755   7.400   3.669 -0.3047  0.2883 -0.1020
 2214PEP     CB84842  14.691   7.153   3.273  0.2282 -0.0362 -0.3409
 2214PEP     CB84843  14.463   6.759   3.108  0.0259 -0.1817 -0.1928
 2214PEP     CB84844  14.312   6.450   2.919  0.2166  0.1647 -0.0814
 2214PEP     CB84845  14.298   6.078   2.625 -0.0107 -0.2629  0.1808
 2214PEP     CB84846  14.283   5.965   2.208 -0.2836 -0.2415  0.1646
 2214PEP     CB84847  14.309   6.246   1.838  0.4143 -0.0938 -0.2731
 2214PEP     CB84848  14.461   6.553   1.762 -0.2253 -0.4293  0.1806
 2214PEP     CB84849  14.722   6.706   1.997 -0.1804 -0.3272  0.2633
 2214PEP     CB84850  15.055   6.411   2.099 -0.0636  0.2384  0.2900
 2214PEP     CB84851  15.260   6.281   1.803 -0.4416 -0.4080 -0.0289
 2214PEP     CB84852  15.631   6.552   1.563  0.0129 -0.0757  0.0875
 2214PEP     CB84853  15.911   6.883   1.873 -0.2498  0.0279  0.1561
 2214PEP     CB84854  15.777   6.872   2.331  0.1307  0.1078 -0.2115
 2214PEP     CB84855  15.855   7.057   2.706  0.2168  0.3023  0.3294
 2214PEP     CB84856  15.648   7.425   2.941  0.0934 -0.4064  0.2806
 2214PEP     CB84857  15.532   7.782   2.703 -0.0130  0.0889 -0.0872
 2214PEP     CB84858  15.707   7.976   2.397 -0.1539 -0.2672  0.1095
 2214PEP     CB84859  15.946   7.804   2.105  0.4580 -0.3193 -0.2480
 2214PEP     CB84860  15.813   7.391   1.927 -0.1159  0.1236 -0.3648
 2214PEP     CB84861  15.469   7.104   1.980 -0.2983 -0.2413  0.1194
 2214PEP     CB84862  15.111   7.116   2.207 -0.0095 -0.2196 -0.1439
 2214PEP     CB84863  14.904   7.139   2.645  0.1076  0.0371  0.0964
 2214PEP     CB84864  14.561   7.354   2.781 -0.3206 -0.1021 -0.0411
 2214PEP     CB84865  14.295   7.372   3.009  0.2064  0.1321  0.1085
 2214PEP     CB84866  13.896   7.274   2.993 -0.1308  0.1016 -0.1910
 2214PEP     CB84867  13.513   7.104   2.857 -0.3606  0.2594  0.0773
 2214PEP     CB84868  13.137   6.894   2.666 -0.2567  0.0536  0.0413
 2214PEP     CB84869  13.073   6.810   2.270 -0.0867  0.1180  0.2885
 2214PEP     CB84870  13.134   6.578   1.863 -0.2406 -0.2481 -0.0331
 2214PEP     CB84871  13.222   6.345   1.506 -0.2897  0.1149 -0.2588
 2214PEP     CB84872  13.349   6.250   1.124  0.0157 -0.1760 -0.0208
 2214PEP     CB84873  13.457   5.937   0.781 -0.0575  0.0608  0.0117
 2214PEP     CB84874  13.761   5.784   0.500 -0.2874  0.1646  0.1315
 2214PEP     CB84875  14.180   5.892   0.318  0.4731  0.3041 -0.1440
 2214PEP     CB84876  14.554   5.808   0.227 -0.2817 -0.0817 -0.1389
 2214PEP     CB84877  14.575   5.411   0.009  0.0211 -0.3366 -0.0458
 2214PEP     CB84878  14.433   4.950  -0.054  0.5202  0.3922 -0.0040
 2214PEP     CB84879  14.167   4.660   0.196 -0.0338  0.0489 -0.0954
 2214PEP     CB84880  13.821   4.390   0.394  0.2668 -0.0679  0.0709
 2215PEP     CB84881   7.242  18.956  16.282 -0.2773 -0.0064  0.0677
 2215PEP     CB84882   7.504  18.664  16.115 -0.4874 -0.0403  0.0352
 2215PEP     CB84883   7.925  18.394  15.992 -0.2272 -0.2615  0.1154
 2215PEP     CB84884   8.267  18.117  16.110 -0.0259  0.3003 -0.0672
 2215PEP     CB84885   8.616  17.848  16.493 -0.0924 -0.4262  0.0338
 2215PEP     CB84886   8.787  18.093  16.792  0.1908 -0.1136 -0.1776
 2215PEP     CB84887   9.148  18.341  16.875 -0.2367  0.1624 -0.1032
 2215PEP     CB84888   9.546  18.501  16.759  0.0288  0.0783 -0.1196
 2215PEP     CB84889   9.936  18.518  16.600  0.1511  0.0537 -0.2534
 2215PEP     CB84890  10.319  18.485  16.623  0.2536  0.0077  0.0236
 2215PEP     CB84891  10.732  18.455  16.541 -0.0060  0.1497 -0.1156
 2215PEP     CB84892  11.038  18.187  16.669 -0.2728  0.0987 -0.5331
 2215PEP     CB84893  11.041  17.971  17.137  0.0899 -0.0055  0.0314
 2215PEP     CB84894  11.138  18.174  17.612 -0.2764  0.1858  0.0423
 2215PEP     CB84895  11.191  18.566  17.788  0.0191  0.1389 -0.0522
 2215PEP     CB84896  11.105  19.009  17.789 -0.0860 -0.0746 -0.3634
 2215PEP     CB84897  11.109  19.424  17.871 -0.2007 -0.4284 -0.3526
 2215PEP     CB84898  10.958  19.626  18.256  0.2968 -0.0589  0.3623
 2215PEP     CB84899  10.560  19.551  18.542 -0.2111  0.2058 -0.0296
 2215PEP     CB84900  10.293  19.405  18.792  0.1039 -0.1282  0.5315
 2215PEP     CB84901   9.972  19.353  19.159 -0.0870  0.3398  0.3252
 2215PEP     CB84902   9.602  19.418  19.482  0.0388 -0.1509 -0.1891
 2215PEP     CB84903   9.166  19.159  19.545  0.1917  0.3030  0.0377
 2215PEP     CB84904   9.057  18.781  19.703  0.5297 -0.0041 -0.0118
 2215PEP     CB84905   9.400  18.516  19.778  0.0110  0.0213 -0.1416
 2215PEP     CB84906   9.876  18.512  19.499  0.0693 -0.2347 -0.0976
 2215PEP     CB84907   9.931  18.761  19.080 -0.1377  0.1735  0.2414
 2215PEP     CB84908   9.513  18.746  18.803 -0.1453 -0.0148 -0.3556
 2215PEP     CB84909   9.103  18.659  19.015 -0.0362 -0.3995  0.0781
 2215PEP     CB84910   9.170  18.249  19.395  0.0193  0.1935  0.3133
 2215PEP     CB84911   9.496  18.082  19.602 -0.1802 -0.1854 -0.3949
 2215PEP     CB84912   9.612  17.697  19.958  0.1696 -0.1312  0.1026
 2215PEP     CB84913   9.443  17.443  20.293  0.2771  0.2126 -0.5397
 2215PEP     CB84914   9.493  17.020  20.582 -0.5679 -0.2851 -0.2336
 2215PEP     CB84915   9.542  16.533  20.325  0.4090 -0.1095 -0.1700
 2215PEP     CB84916   9.360  16.559  20.007  0.1525 -0.0852  0.0409
 2215PEP     CB84917   9.073  16.734  19.762  0.0251  0.0441  0.1620
 2215PEP     CB84918   8.691  16.899  19.601 -0.0784  0.0421  0.4575
 2215PEP     CB84919   8.346  16.966  19.402 -0.0334  0.2426  0.2721
 2215PEP     CB84920   8.004  17.224  19.268 -0.0086 -0.3278  0.0359
 2216PEP     CB84921  13.242  10.577  16.740 -0.0602  0.2923 -0.2056
 2216PEP     CB84922  12.905  10.928  16.793 -0.0393 -0.0824  0.0992
 2216PEP     CB84923  12.357  11.152  16.866 -0.1035 -0.0250 -0.2245
 2216PEP     CB84924  12.025  11.449  16.823 -0.5488  0.2097 -0.4514
 2216PEP     CB84925  11.678  11.678  17.089  0.0310  0.3007  0.2199
 2216PEP     CB84926  11.714  11.600  17.464  0.1515  0.2602 -0.2608
 2216PEP     CB84927  11.416  11.477  17.828 -0.0664 -0.1514 -0.0248
 2216PEP     CB84928  11.108  11.016  17.753 -0.1693  0.0039  0.2642
 2216PEP     CB84929  11.040  10.875  17.348  0.1595 -0.4159 -0.2483
 2216PEP     CB84930  11.052  10.655  16.968 -0.0791  0.0929  0.2136
 2216PEP     CB84931  11.019  10.137  16.816 -0.0173 -0.1358  0.1256
 2216PEP     CB84932  10.837   9.972  17.149  0.4059  0.1435  0.1221
 2216PEP     CB84933  10.679  10.144  17.522  0.2549 -0.0096  0.4263
 2216PEP     CB84934  10.483  10.312  17.857  0.1560 -0.1469 -0.0858
 2216PEP     CB84935  10.274  10.632  18.070  0.0095  0.2706 -0.4885
 2216PEP     CB84936  10.048  10.969  18.150 -0.0024  0.6695 -0.3455
 2216PEP     CB84937   9.631  11.067  18.080 -0.1598  0.1620 -0.3239
 2216PEP     CB84938   9.287  11.028  17.720 -0.0229 -0.0225  0.0960
 2216PEP     CB84939   9.377  10.914  17.209 -0.2136 -0.0212 -0.1511
 2216PEP     CB84940   9.538  10.574  16.896 -0.2850 -0.0187 -0.4809
 2216PEP     CB84941   9.366  10.427  16.503  0.1166  0.2231 -0.0607
 2216PEP     CB84942   9.055  10.677  16.178 -0.2392 -0.3434  0.1505
 2216PEP     CB84943   8.720  10.895  16.321 -0.0214 -0.0407  0.0737
 2216PEP     CB84944   8.818  11.251  16.553  0.3777 -0.4446 -0.1078
 2216PEP     CB84945   9.183  11.355  16.744  0.5010  0.3236 -0.1095
 2216PEP     CB84946   9.497  11.674  16.701 -0.0465  0.1256 -0.0690
 2216PEP     CB84947   9.286  12.107  16.581 -0.0748 -0.0127 -0.0891
 2216PEP     CB84948   8.951  12.179  16.644 -0.0424  0.1295 -0.0318
 2216PEP     CB84949   8.547  12.357  16.430 -0.0408  0.2783 -0.1498
 2216PEP     CB84950   8.440  12.332  16.005  0.4925 -0.0690 -0.4782
 2216PEP     CB84951   8.756  12.183  15.765  0.1062 -0.1636  0.2268
 2216PEP     CB84952   9.158  11.881  15.856  0.2506  0.3082 -0.0903
 2216PEP     CB84953   9.261  11.646  16.143  0.0714 -0.0422  0.2150
 2216PEP     CB84954   9.347  11.268  16.238  0.4393  0.1184  0.2926
 2216PEP     CB84955   9.615  10.920  16.108  0.1680 -0.1188 -0.1634
 2216PEP     CB84956   9.850  10.524  16.054 -0.4051  0.1791 -0.2293
 2216PEP     CB84957  10.111  10.368  15.715 -0.2983 -0.0832 -0.3274
 2216PEP     CB84958  10.541  10.294  15.695 -0.1150 -0.3855 -0.3144
 2216PEP     CB84959  10.836  10.402  16.054 -0.0972 -0.1581  0.1550
 2216PEP     CB84960  10.929  10.456  16.406 -0.3455  0.0704 -0.5625
 2217PEP     CB84961   4.693   4.575  14.046 -0.4696  0.4502  0.0778
 2217PEP     CB84962   4.904   4.581  14.406  0.2478  0.2649 -0.1798
 2217PEP     CB84963   5.248   4.654  14.716 -0.0602  0.1095 -0.1418
 2217PEP     CB84964   5.419   4.969  14.908 -0.0208 -0.1236 -0.1961
 2217PEP     CB84965   5.599   5.209  15.237 -0.0790  0.3918 -0.0838
 2217PEP     CB84966   5.688   5.274  15.684  0.1596 -0.3807 -0.4150
 2217PEP     CB84967   6.087   5.255  16.053 -0.0369 -0.2870 -0.0060
 2217PEP     CB84968   6.555   5.288  15.932  0.4587  0.0621 -0.1809
 2217PEP     CB84969   6.728   5.596  15.742  0.2070  0.3100 -0.1559
 2217PEP     CB84970   6.855   6.028  15.696 -0.1861  0.0555 -0.0996
 2217PEP     CB84971   7.319   6.207  15.517 -0.3158  0.0871  0.3783
 2217PEP     CB84972   7.610   6.505  15.433  0.1776 -0.2254 -0.0160
 2217PEP     CB84973   7.760   6.929  15.386 -0.1287 -0.1880 -0.0750
 2217PEP     CB84974   8.036   7.124  15.065 -0.1484  0.1590 -0.0404
 2217PEP     CB84975   8.066   6.890  14.607 -0.1937  0.2600 -0.1438
 2217PEP     CB84976   7.986   6.511  14.433  0.1003  0.2487 -0.2201
 2217PEP     CB84977   8.185   6.246  14.088  0.2973 -0.6804  0.0335
 2217PEP     CB84978   8.436   6.488  13.811 -0.1891 -0.1728  0.1930
 2217PEP     CB84979   8.299   6.874  13.768 -0.0096 -0.0861 -0.0489
 2217PEP     CB84980   7.933   7.035  14.040  0.0316 -0.1668 -0.1467
 2217PEP     CB84981   7.617   6.909  14.379 -0.2814  0.0684  0.0806
 2217PEP     CB84982   7.218   6.697  14.434 -0.1450  0.5119  0.2184
 2217PEP     CB84983   7.148   6.374  14.694  0.1714  0.0158  0.1837
 2217PEP     CB84984   7.038   6.306  15.134 -0.1271 -0.0527  0.0246
 2217PEP     CB84985   7.083   6.630  15.441  0.0165  0.2985 -0.5058
 2217PEP     CB84986   6.898   6.645  15.851 -0.3082  0.0847 -0.1002
 2217PEP     CB84987   6.887   6.280  16.155 -0.0762 -0.3718 -0.0976
 2217PEP     CB84988   7.111   5.884  16.073 -0.3042  0.2487 -0.3360
 2217PEP     CB84989   7.124   5.562  16.122 -0.3398  0.1275 -0.0753
 2217PEP     CB84990   7.027   5.159  16.074 -0.1851  0.2884  0.0785
 2217PEP     CB84991   6.975   4.766  15.835  0.3843  0.2236 -0.0060
 2217PEP     CB84992   6.974   4.551  15.470 -0.2307  0.0222  0.1956
 2217PEP     CB84993   6.966   4.204  15.279  0.1549  0.1409  0.1595
 2217PEP     CB84994   7.001   3.681  15.204  0.0590 -0.3830  0.0421
 2217PEP     CB84995   7.085   3.358  14.795  0.0436  0.0241 -0.2589
 2217PEP     CB84996   6.864   3.334  14.432  0.0233  0.0305  0.2665
 2217PEP     CB84997   6.462   3.268  14.321  0.1204 -0.0793  0.2006
 2217PEP     CB84998   5.988   3.201  14.125 -0.0087 -0.0384  0.2590
 2217PEP     CB84999   5.814   2.807  14.151 -0.2146  0.0503  0.2841
 2217PEP     CB85000   5.963   2.396  14.311 -0.0805  0.2746  0.2196
 2218PEP     CB85001   3.012   5.401   9.921  0.1183 -0.2987 -0.1247
 2218PEP     CB85002   3.186   5.769   9.724 -0.1793 -0.1397  0.0275
 2218PEP     CB85003   3.042   6.146   9.864 -0.0754  0.1479 -0.1530
 2218PEP     CB85004   2.641   6.140  10.008  0.4348  0.0928  0.0332
 2218PEP     CB85005   2.313   5.956   9.913 -0.1245  0.1162 -0.2248
 2218PEP     CB85006   2.017   5.698  10.146  0.4075  0.2200  0.0060
 2218PEP     CB85007   1.745   5.529  10.411 -0.1557 -0.1543  0.0347
 2218PEP     CB85008   1.477   5.278  10.774  0.1694  0.3639  0.2748
 2218PEP     CB85009   1.589   5.210  11.155  0.1113 -0.1856  0.4528
 2218PEP     CB85010   1.959   5.167  11.313 -0.5241 -0.1149  0.2254
 2218PEP     CB85011   2.458   5.227  11.292  0.2528 -0.0146 -0.1918
 2218PEP     CB85012   2.845   5.235  11.422  0.0893  0.1597  0.0397
 2218PEP     CB85013   2.996   5.146  11.814 -0.0164  0.2466 -0.1919
 2218PEP     CB85014   3.166   5.358  12.249 -0.2533  0.3719 -0.1347
 2218PEP     CB85015   3.067   5.727  12.368  0.1112 -0.2022  0.3729
 2218PEP     CB85016   2.792   5.973  12.156 -0.1435 -0.0264  0.4824
 2218PEP     CB85017   2.902   6.074  11.708  0.5275 -0.0137 -0.0054
 2218PEP     CB85018   3.339   6.042  11.647 -0.1881  0.1408  0.2092
 2218PEP     CB85019   3.658   6.024  11.390 -0.0001  0.4712  0.0882
 2218PEP     CB85020   4.034   6.282  11.489  0.0952 -0.0080 -0.3061
 2218PEP     CB85021   3.985   6.473  11.834 -0.1027  0.3395  0.4573
 2218PEP     CB85022   3.586   6.515  11.793 -0.1410 -0.1317 -0.0111
 2218PEP     CB85023   3.432   6.523  11.332  0.1290 -0.0535 -0.2913
 2218PEP     CB85024   3.777   6.486  11.128  0.1875 -0.2869  0.2025
 2218PEP     CB85025   4.114   6.735  11.268  0.2481 -0.0172  0.1721
 2218PEP     CB85026   4.579   6.624  11.261  0.1349 -0.0404  0.1325
 2218PEP     CB85027   4.784   6.251  11.298  0.1384  0.3291  0.0363
 2218PEP     CB85028   4.868   6.059  11.620  0.0576  0.0081  0.2351
 2218PEP     CB85029   5.173   5.946  11.944 -0.0710  0.1399  0.3807
 2218PEP     CB85030   5.166   5.781  12.387 -0.3520  0.0887 -0.1268
 2218PEP     CB85031   4.984   5.625  12.835 -0.1455 -0.0338  0.0860
 2218PEP     CB85032   4.709   5.600  13.178 -0.1355 -0.2313  0.2527
 2218PEP     CB85033   4.421   5.311  13.341 -0.1758  0.0782 -0.0813
 2218PEP     CB85034   4.139   4.983  13.369 -0.0530  0.0372  0.1255
 2218PEP     CB85035   3.799   4.807  13.398 -0.1179  0.0588 -0.1172
 2218PEP     CB85036   3.417   4.666  13.106  0.0026  0.3190  0.3663
 2218PEP     CB85037   3.455   4.537  12.726  0.0372 -0.2370  0.3303
 2218PEP     CB85038   3.741   4.517  12.364  0.3407 -0.0216  0.1878
 2218PEP     CB85039   4.016   4.248  12.258  0.1682  0.1124  0.4663
 2218PEP     CB85040   4.366   4.057  12.389  0.3186  0.3309  0.2789
 2219PEP     CB85041   0.879   0.544  17.953 -0.3342  0.1219 -0.0997
 2219PEP     CB85042   1.090   0.926  17.705 -0.0463  0.2408  0.4659
 2219PEP     CB85043   1.251   1.313  17.722  0.0236  0.0466 -0.2348
 2219PEP     CB85044   1.547   1.527  17.624  0.0245  0.0174  0.0122
 2219PEP     CB85045   1.784   1.667  17.291 -0.1728  0.0400 -0.2139
 2219PEP     CB85046   1.863   1.978  16.999 -0.3652  0.0208  0.1145
 2219PEP     CB85047   1.793   2.311  16.670  0.1804 -0.1459 -0.2946
 2219PEP     CB85048   1.738   2.659  16.339  0.0532  0.1862 -0.1466
 2219PEP     CB85049   1.821   2.975  16.143  0.1102 -0.0343  0.3331
 2219PEP     CB85050   1.948   2.993  15.743 -0.2061  0.2244 -0.3813
 2219PEP     CB85051   2.037   3.114  15.363  0.0126 -0.3001  0.3071
 2219PEP     CB85052   1.867   3.166  14.909  0.3344 -0.0389  0.1166
 2219PEP     CB85053   1.587   2.800  14.743 -0.0424 -0.2761  0.1612
 2219PEP     CB85054   1.622   2.398  14.919 -0.3924 -0.0117  0.1892
 2219PEP     CB85055   1.585   2.152  15.231  0.1160  0.0646 -0.2571
 2219PEP     CB85056   1.739   1.740  15.347  0.4579  0.3504  0.0975
 2219PEP     CB85057   2.138   1.504  15.412  0.1062  0.2078 -0.0489
 2219PEP     CB85058   2.425   1.562  15.146  0.1380  0.0323 -0.1167
 2219PEP     CB85059   2.572   1.915  15.028 -0.2635 -0.0825  0.0852
 2219PEP     CB85060   2.457   2.174  14.638  0.2230  0.2417  0.0099
 2219PEP     CB85061   2.534   2.467  14.321  0.1835 -0.3775  0.1117
 2219PEP     CB85062   2.410   2.673  13.907 -0.0781  0.3745  0.2364
 2219PEP     CB85063   2.115   2.786  13.686 -0.1869 -0.1464  0.2942
 2219PEP     CB85064   1.713   2.918  13.589  0.1219  0.0485 -0.1639
 2219PEP     CB85065   1.455   3.174  13.235  0.2072  0.2600 -0.0406
 2219PEP     CB85066   1.151   3.022  12.942 -0.0403 -0.2080  0.4036
 2219PEP     CB85067   0.651   2.865  12.749 -0.0957 -0.0497  0.0038
 2219PEP     CB85068   0.338   2.713  12.473 -0.0312  0.2468 -0.0208
 2219PEP     CB85069   0.059   2.675  12.034  0.0273  0.4208 -0.2278
 2219PEP     CB85070   0.008   2.476  11.637  0.0272  0.2216 -0.0301
 2219PEP     CB85071  -0.170   2.290  11.269 -0.0684 -0.1935 -0.0212
 2219PEP     CB85072  -0.654   2.225  11.075  0.0188 -0.0650  0.0201
 2219PEP     CB85073  -0.833   1.898  10.815  0.1078  0.2383 -0.1024
 2219PEP     CB85074  -0.762   1.746  10.368 -0.1016  0.1893 -0.0992
 2219PEP     CB85075  -0.544   1.308  10.245  0.1687  0.3159  0.2615
 2219PEP     CB85076  -0.292   1.187  10.472  0.4049 -0.3743 -0.3404
 2219PEP     CB85077   0.116   1.329  10.611 -0.1770 -0.2101  0.0223
 2219PEP     CB85078   0.409   1.552  10.843  0.1302 -0.0600 -0.1199
 2219PEP     CB85079   0.790   1.806  10.836  0.2462 -0.1162 -0.0146
 2219PEP     CB85080   1.151   2.053  11.029 -0.1945  0.1339 -0.0211
 2220PEP     CB85081  14.888   4.860  19.315  0.1037  0.0792 -0.0765
 2220PEP     CB85082  14.575   5.104  19.606  0.2773 -0.1075 -0.5237
 2220PEP     CB85083  14.655   5.542  19.784  0.0381 -0.2716  0.1852
 2220PEP     CB85084  14.925   5.564  20.165  0.3049  0.1867  0.1117
 2220PEP     CB85085  15.268   5.636  20.350 -0.0252 -0.1932  0.1051
 2220PEP     CB85086  15.504   6.034  20.401  0.2972  0.1826 -0.0405
 2220PEP     CB85087  15.485   6.404  20.439  0.5052 -0.2695 -0.1025
 2220PEP     CB85088  15.823   6.663  20.400 -0.3013 -0.0752  0.5149
 2220PEP     CB85089  16.201   6.630  20.238 -0.1528  0.2422 -0.2467
 2220PEP     CB85090  16.588   6.382  20.217 -0.1070 -0.2764  0.3835
 2220PEP     CB85091  16.714   5.853  20.241  0.0705 -0.0063  0.0429
 2220PEP     CB85092  16.672   5.342  20.134 -0.2591 -0.0018 -0.2330
 2220PEP     CB85093  16.228   5.116  20.180 -0.1117 -0.2535  0.1400
 2220PEP     CB85094  15.926   5.050  19.925  0.0298  0.0955 -0.2138
 2220PEP     CB85095  15.948   4.864  19.437  0.3099  0.1853  0.0650
 2220PEP     CB85096  15.677   4.823  19.090 -0.0227 -0.3501 -0.2342
 2220PEP     CB85097  15.269   4.907  18.862 -0.2301 -0.3278  0.2335
 2220PEP     CB85098  15.052   4.509  18.944 -0.0838  0.0664 -0.3773
 2220PEP     CB85099  14.966   4.213  19.235  0.0273  0.0663  0.4586
 2220PEP     CB85100  14.674   3.778  19.349 -0.1002 -0.0384  0.2509
 2220PEP     CB85101  14.600   3.495  19.698 -0.3426  0.3954 -0.2151
 2220PEP     CB85102  14.279   3.252  19.862  0.1184  0.2248 -0.1689
 2220PEP     CB85103  14.012   2.952  20.004  0.3263 -0.0930 -0.1195
 2220PEP     CB85104  14.000   2.580  20.017 -0.0781  0.2689 -0.4446
 2220PEP     CB85105  14.311   2.291  19.815  0.4510  0.1499 -0.2050
 2220PEP     CB85106  14.670   2.153  19.580  0.0370  0.5116  0.0196
 2220PEP     CB85107  14.944   1.806  19.516 -0.0047 -0.1112  0.4830
 2220PEP     CB85108  15.146   1.524  19.408 -0.0106 -0.0717  0.4936
 2220PEP     CB85109  15.051   1.124  19.462 -0.0037  0.0611 -0.2414
 2220PEP     CB85110  15.007   0.732  19.288  0.0381  0.3894 -0.2372
 2220PEP     CB85111  15.270   0.378  19.369  0.1796  0.4208  0.4688
 2220PEP     CB85112  15.351   0.193  19.778  0.0155 -0.1109  0.0389
 2220PEP     CB85113  15.360   0.401  20.149  0.0323  0.3217  0.4370
 2220PEP     CB85114  15.338   0.795  20.321  0.0845 -0.0750 -0.0448
 2220PEP     CB85115  15.314   1.233  20.136 -0.0230  0.0900 -0.3739
 2220PEP     CB85116  15.451   1.290  19.687 -0.0584  0.3613 -0.0552
 2220PEP     CB85117  15.541   0.919  19.312  0.1422 -0.0651 -0.2385
 2220PEP     CB85118  15.691   0.604  19.002  0.0055  0.2840  0.2280
 2220PEP     CB85119  15.997   0.324  18.977  0.1557  0.3184  0.1659
 2220PEP     CB85120  16.239   0.104  18.648 -0.0885 -0.1057 -0.1289
 2221PEP     CB85121  19.187  13.198  11.116  0.3914  0.2896 -0.0885
 2221PEP     CB85122  19.266  13.627  11.146 -0.5374 -0.1202 -0.0911
 2221PEP     CB85123  19.210  14.097  11.322 -0.0329 -0.1608  0.2571
 2221PEP     CB85124  19.360  14.451  11.334  0.1839  0.1010  0.2134
 2221PEP     CB85125  19.186  14.865  11.513  0.1261  0.0725  0.3206
 2221PEP     CB85126  18.875  15.146  11.787 -0.2524 -0.1914 -0.2956
 2221PEP     CB85127  18.671  15.390  12.064  0.3048 -0.0095  0.1687
 2221PEP     CB85128  18.429  15.837  12.137  0.2028 -0.3035 -0.0981
 2221PEP     CB85129  18.500  16.279  12.036 -0.5203 -0.0380 -0.0943
 2221PEP     CB85130  18.724  16.757  12.215 -0.1233 -0.1364  0.4269
 2221PEP     CB85131  19.063  17.001  12.175  0.0288  0.1834  0.1408
 2221PEP     CB85132  19.326  17.296  11.967  0.1887  0.1851 -0.1185
 2221PEP     CB85133  19.232  17.795  11.931  0.3659 -0.0527 -0.3049
 2221PEP     CB85134  18.856  18.052  12.173 -0.4365 -0.2163  0.0495
 2221PEP     CB85135  18.552  17.834  12.344  0.5428  0.0364  0.0428
 2221PEP     CB85136  18.195  17.548  12.418 -0.2856  0.1291 -0.1988
 2221PEP     CB85137  17.823  17.346  12.604 -0.3585  0.0324 -0.1109
 2221PEP     CB85138  17.795  17.136  12.877  0.2459 -0.0255  0.0776
 2221PEP     CB85139  17.581  16.701  13.074 -0.2591 -0.5045  0.1364
 2221PEP     CB85140  17.455  16.328  13.047  0.3211  0.0536 -0.1614
 2221PEP     CB85141  17.253  15.907  13.133 -0.0482 -0.3550 -0.3525
 2221PEP     CB85142  17.295  15.453  13.362 -0.1679  0.0664 -0.1036
 2221PEP     CB85143  17.347  15.076  13.676 -0.2117  0.1392  0.0392
 2221PEP     CB85144  17.311  14.970  14.045 -0.0524 -0.4620  0.2684
 2221PEP     CB85145  17.458  14.575  14.224 -0.2190  0.1654 -0.2969
 2221PEP     CB85146  17.914  14.411  14.021 -0.1622 -0.0654 -0.1065
 2221PEP     CB85147  18.007  14.642  13.690  0.2900 -0.4426  0.2071
 2221PEP     CB85148  17.644  14.712  13.495  0.0686 -0.3811 -0.0837
 2221PEP     CB85149  17.210  14.628  13.665  0.2932  0.2239 -0.4432
 2221PEP     CB85150  16.875  14.926  13.745 -0.1392  0.5970 -0.1983
 2221PEP     CB85151  16.841  15.382  13.746 -0.1924  0.2104  0.1416
 2221PEP     CB85152  16.789  15.887  13.926  0.2607  0.2065  0.4258
 2221PEP     CB85153  16.532  16.262  13.773  0.3519  0.1607 -0.3462
 2221PEP     CB85154  16.063  16.304  13.987  0.5630 -0.2568 -0.1102
 2221PEP     CB85155  15.594  16.428  13.967  0.6463  0.2974  0.2512
 2221PEP     CB85156  15.093  16.564  13.800  0.2592 -0.5505 -0.0152
 2221PEP     CB85157  14.754  16.620  13.816 -0.1872  0.1164 -0.0294
 2221PEP     CB85158  14.302  16.559  13.925  0.1441  0.0456 -0.2136
 2221PEP     CB85159  13.812  16.458  13.689 -0.1031  0.1623 -0.0346
 2221PEP     CB85160  13.334  16.301  13.655  0.2063 -0.0462  0.0411
 2222PEP     CB85161  18.704  21.129   0.206  0.3500  0.4321 -0.0174
 2222PEP     CB85162  18.310  21.301   0.112 -0.1753 -0.0080 -0.1429
 2222PEP     CB85163  17.911  21.224   0.159 -0.1478 -0.0092 -0.1579
 2222PEP     CB85164  17.424  21.217   0.362  0.0733  0.0970 -0.0091
 2222PEP     CB85165  17.086  21.442   0.278 -0.0679 -0.0217  0.0212
 2222PEP     CB85166  16.781  21.342   0.152  0.3207  0.0394 -0.1358
 2222PEP     CB85167  16.796  20.959  -0.136  0.1830 -0.0439 -0.2349
 2222PEP     CB85168  17.051  20.865  -0.521  0.1827  0.0434 -0.2371
 2222PEP     CB85169  17.393  20.614  -0.622  0.5244  0.2437  0.0545
 2222PEP     CB85170  17.795  20.712  -0.840 -0.3596  0.3472 -0.4311
 2222PEP     CB85171  18.015  20.873  -1.229 -0.0168  0.1701  0.3074
 2222PEP     CB85172  17.881  20.834  -1.677  0.2142 -0.1598 -0.2972
 2222PEP     CB85173  17.506  20.566  -1.773 -0.0305 -0.2219  0.2101
 2222PEP     CB85174  17.361  20.198  -1.567 -0.2316  0.1483 -0.3871
 2222PEP     CB85175  17.020  20.093  -1.229  0.0787 -0.3211  0.0538
 2222PEP     CB85176  16.571  20.285  -1.197  0.1982 -0.2861 -0.0906
 2222PEP     CB85177  16.460  20.616  -1.478  0.0166  0.2318 -0.6083
 2222PEP     CB85178  16.856  20.771  -1.734  0.2780  0.1735 -0.1560
 2222PEP     CB85179  17.146  20.681  -2.059  0.0649 -0.2576 -0.0579
 2222PEP     CB85180  17.409  20.902  -2.475  0.2983 -0.2505 -0.3149
 2222PEP     CB85181  17.548  20.945  -2.882 -0.0646  0.0873 -0.4029
 2222PEP     CB85182  17.443  21.357  -3.144 -0.1008 -0.2559 -0.1739
 2222PEP     CB85183  17.637  21.725  -3.185  0.0904  0.5124 -0.1120
 2222PEP     CB85184  18.051  22.026  -2.986  0.1026  0.1605 -0.1097
 2222PEP     CB85185  18.193  22.230  -2.704  0.0231  0.0378  0.1337
 2222PEP     CB85186  18.419  22.472  -2.440 -0.0979  0.3831  0.2719
 2222PEP     CB85187  18.576  22.856  -2.443  0.3050  0.4536 -0.5083
 2222PEP     CB85188  18.891  22.984  -2.592 -0.0186  0.0344 -0.0717
 2222PEP     CB85189  19.106  23.241  -2.797 -0.1514  0.2460 -0.4034
 2222PEP     CB85190  19.397  23.517  -3.021 -0.2679  0.0234 -0.1269
 2222PEP     CB85191  19.367  23.931  -3.181 -0.0357 -0.1920 -0.0780
 2222PEP     CB85192  18.916  24.062  -3.266 -0.0863 -0.1757  0.0686
 2222PEP     CB85193  18.663  24.307  -2.971  0.0768  0.1807 -0.4930
 2222PEP     CB85194  18.680  24.554  -2.776 -0.2523  0.0394 -0.1710
 2222PEP     CB85195  19.048  24.730  -2.586 -0.2064  0.0776  0.0943
 2222PEP     CB85196  19.366  24.910  -2.843 -0.0562 -0.0653 -0.1339
 2222PEP     CB85197  19.348  24.932  -3.325  0.5801 -0.0477  0.1842
 2222PEP     CB85198  18.944  24.846  -3.523 -0.1846  0.5155 -0.5202
 2222PEP     CB85199  18.620  24.587  -3.417  0.1306  0.2416  0.1878
 2222PEP     CB85200  18.235  24.554  -3.188 -0.0055 -0.2879 -0.0759
 2223PEP     CB85201  10.311  20.774  11.136  0.5543  0.2236 -0.5308
 2223PEP     CB85202  10.146  21.050  11.439  0.0011 -0.3530  0.0382
 2223PEP     CB85203  10.077  21.156  11.899 -0.0825  0.0678  0.1662
 2223PEP     CB85204   9.891  21.357  12.183 -0.3282 -0.1693 -0.2875
 2223PEP     CB85205   9.892  21.689  12.438 -0.0056  0.1269  0.0238
 2223PEP     CB85206  10.038  21.763  12.892  0.0070  0.3894 -0.7631
 2223PEP     CB85207   9.992  21.489  13.276 -0.1098  0.3285  0.1705
 2223PEP     CB85208   9.791  21.226  13.614  0.2575 -0.1243  0.0842
 2223PEP     CB85209   9.549  21.279  13.927 -0.0297  0.1242  0.2098
 2223PEP     CB85210   9.404  21.385  14.260  0.3968 -0.0092 -0.1614
 2223PEP     CB85211   9.161  21.283  14.569  0.0655 -0.3556  0.1355
 2223PEP     CB85212   8.765  21.289  14.645  0.1870 -0.1001  0.0532
 2223PEP     CB85213   8.333  21.364  14.409 -0.2149 -0.1486  0.4226
 2223PEP     CB85214   8.128  21.693  14.308 -0.1787 -0.1237 -0.0176
 2223PEP     CB85215   8.263  22.189  14.221  0.1823 -0.1221 -0.1265
 2223PEP     CB85216   8.560  22.394  14.300 -0.1074 -0.2416  0.0278
 2223PEP     CB85217   8.928  22.133  14.170 -0.3690 -0.0745 -0.4652
 2223PEP     CB85218   8.916  21.656  14.006 -0.0036  0.2483 -0.5042
 2223PEP     CB85219   8.713  21.311  14.114 -0.1169 -0.0604  0.1291
 2223PEP     CB85220   8.513  20.857  14.057 -0.1220 -0.1679  0.2716
 2223PEP     CB85221   8.255  20.493  13.865  0.2987 -0.1757 -0.2054
 2223PEP     CB85222   8.105  20.144  13.791  0.2150  0.4760  0.2788
 2223PEP     CB85223   7.565  19.988  13.709 -0.0392  0.2164  0.3238
 2223PEP     CB85224   7.226  20.183  13.821 -0.3092 -0.0506  0.2476
 2223PEP     CB85225   6.793  20.228  13.788 -0.1443 -0.0854  0.0922
 2223PEP     CB85226   6.398  19.985  13.874 -0.1853  0.1359  0.2632
 2223PEP     CB85227   6.076  20.005  13.621  0.0840 -0.0349  0.2583
 2223PEP     CB85228   5.631  19.852  13.705 -0.2213  0.7443  0.1398
 2223PEP     CB85229   5.426  19.672  14.103  0.0418 -0.0938  0.1312
 2223PEP     CB85230   5.485  19.346  14.384  0.0973  0.3946 -0.0560
 2223PEP     CB85231   5.868  19.103  14.648 -0.2512  0.3354 -0.1429
 2223PEP     CB85232   6.169  19.188  15.002  0.2278 -0.3287  0.0207
 2223PEP     CB85233   6.428  19.330  15.386  0.1756  0.3389 -0.1992
 2223PEP     CB85234   6.290  19.371  15.866 -0.1472  0.3747 -0.1917
 2223PEP     CB85235   6.151  19.474  16.375  0.1041  0.1292 -0.0591
 2223PEP     CB85236   5.886  19.566  16.713  0.0123  0.0015 -0.5424
 2223PEP     CB85237   5.836  19.460  17.142  0.0236  0.0232  0.3796
 2223PEP     CB85238   5.699  19.547  17.475  0.2193  0.2276 -0.0512
 2223PEP     CB85239   5.564  19.873  17.757  0.2751 -0.0721 -0.2080
 2223PEP     CB85240   5.728  20.080  18.157 -0.0965  0.0619 -0.0903
 2224PEP     CB85241   5.586  11.215   4.068  0.0336  0.0860 -0.1925
 2224PEP     CB85242   5.500  11.574   3.922  0.2302 -0.3123  0.0618
 2224PEP     CB85243   5.733  11.991   4.002 -0.2191  0.0280 -0.4545
 2224PEP     CB85244   5.994  12.412   3.831 -0.2881 -0.0648 -0.4553
 2224PEP     CB85245   6.006  12.851   3.851  0.0149  0.1618 -0.0288
 2224PEP     CB85246   5.751  13.268   3.789  0.4480  0.1563 -0.4644
 2224PEP     CB85247   5.404  13.469   3.623  0.1875 -0.3861 -0.1046
 2224PEP     CB85248   4.915  13.424   3.634  0.2041  0.1101 -0.0854
 2224PEP     CB85249   4.578  13.492   3.320  0.1311  0.2122  0.0817
 2224PEP     CB85250   4.446  13.778   3.104 -0.3531 -0.0102  0.0618
 2224PEP     CB85251   4.590  13.942   2.735  0.4930 -0.2810 -0.2750
 2224PEP     CB85252   4.659  14.195   2.474 -0.3195  0.1107  0.1083
 2224PEP     CB85253   4.368  14.367   2.147 -0.1869  0.1180  0.1878
 2224PEP     CB85254   4.026  14.220   1.917  0.2564  0.0451 -0.0388
 2224PEP     CB85255   3.911  14.026   1.553  0.0325 -0.1894  0.2017
 2224PEP     CB85256   4.034  14.091   1.160 -0.1086 -0.4647 -0.1453
 2224PEP     CB85257   4.369  14.224   1.001 -0.0948 -0.1280 -0.2968
 2224PEP     CB85258   4.697  14.427   1.016  0.2479 -0.2378  0.3339
 2224PEP     CB85259   5.149  14.439   1.132 -0.2534 -0.1273 -0.1268
 2224PEP     CB85260   5.444  14.219   1.408 -0.0302  0.0941  0.1450
 2224PEP     CB85261   5.897  14.027   1.381 -0.0919 -0.0749  0.1454
 2224PEP     CB85262   6.222  14.014   1.139  0.2880 -0.2761 -0.1106
 2224PEP     CB85263   6.460  14.106   0.737 -0.1486 -0.0129 -0.0251
 2224PEP     CB85264   6.766  14.047   0.369 -0.0549 -0.0874  0.2820
 2224PEP     CB85265   6.826  14.185   0.030 -0.0035 -0.2194  0.1696
 2224PEP     CB85266   6.445  14.255  -0.254 -0.0285  0.5704  0.2952
 2224PEP     CB85267   5.986  14.158  -0.066  0.1075 -0.3989  0.0017
 2224PEP     CB85268   5.819  14.117   0.370 -0.1628  0.0052 -0.0960
 2224PEP     CB85269   5.983  14.314   0.693 -0.2777 -0.3814  0.0240
 2224PEP     CB85270   6.340  14.543   0.709  0.0499  0.0978  0.0077
 2224PEP     CB85271   6.330  14.926   0.338  0.1863 -0.2331  0.0927
 2224PEP     CB85272   6.103  15.251   0.238  0.2373  0.0164 -0.3189
 2224PEP     CB85273   5.745  15.440   0.308  0.6528 -0.3209  0.0853
 2224PEP     CB85274   5.286  15.569   0.391 -0.2430  0.4730 -0.0940
 2224PEP     CB85275   4.935  15.690   0.694  0.2790  0.3054  0.1939
 2224PEP     CB85276   4.682  15.800   1.020  0.2689  0.0912  0.1835
 2224PEP     CB85277   4.309  15.883   1.150 -0.0336 -0.1340 -0.2965
 2224PEP     CB85278   3.992  15.763   0.914  0.5253 -0.0836  0.1620
 2224PEP     CB85279   3.987  15.471   0.549 -0.1059 -0.7546 -0.0729
 2224PEP     CB85280   4.317  15.161   0.399 -0.1062  0.0854  0.0633
 2225PEP     CB85281  21.243  12.084  13.363 -0.2161 -0.5256 -0.1083
 2225PEP     CB85282  20.899  11.886  13.621  0.0211 -0.1664 -0.0280
 2225PEP     CB85283  20.487  11.953  13.792 -0.4139  0.4116 -0.5092
 2225PEP     CB85284  20.007  11.787  13.716  0.0105 -0.1053  0.2548
 2225PEP     CB85285  19.815  11.772  13.290 -0.3232  0.3026 -0.0389
 2225PEP     CB85286  20.020  11.795  12.859  0.1590  0.3268  0.0543
 2225PEP     CB85287  19.890  11.513  12.448 -0.0695  0.1013  0.6823
 2225PEP     CB85288  19.974  11.099  12.386  0.0276  0.2039 -0.0328
 2225PEP     CB85289  20.064  10.707  12.205  0.4135  0.1802  0.1774
 2225PEP     CB85290  20.335  10.556  11.924  0.2675 -0.0252 -0.2806
 2225PEP     CB85291  20.488  10.131  12.008  0.0209  0.0923 -0.0608
 2225PEP     CB85292  20.786   9.917  12.321  0.2841 -0.0774  0.1683
 2225PEP     CB85293  21.255   9.811  12.479  0.0208 -0.4026  0.5422
 2225PEP     CB85294  21.525   9.496  12.577 -0.4185  0.1008 -0.0222
 2225PEP     CB85295  21.584   9.087  12.798  0.0873  0.3328  0.1472
 2225PEP     CB85296  21.546   8.621  12.778  0.0975 -0.2132 -0.0559
 2225PEP     CB85297  21.091   8.449  12.848  0.2268  0.2466  0.1725
 2225PEP     CB85298  20.857   8.645  13.146 -0.1478 -0.0097 -0.4515
 2225PEP     CB85299  20.832   9.108  13.358  0.0109  0.3502 -0.4106
 2225PEP     CB85300  20.806   9.363  13.812 -0.0992 -0.1024  0.0815
 2225PEP     CB85301  20.504   9.262  14.158  0.2332 -0.2108 -0.3212
 2225PEP     CB85302  20.057   9.328  14.567 -0.1140  0.3152  0.5395
 2225PEP     CB85303  20.049   9.340  14.971 -0.1640  0.0613 -0.2700
 2225PEP     CB85304  20.245   9.267  15.321 -0.4309  0.5348  0.2285
 2225PEP     CB85305  20.234   9.314  15.806 -0.1450 -0.1075  0.1753
 2225PEP     CB85306  20.244   9.342  16.243 -0.0989  0.4004  0.0587
 2225PEP     CB85307  20.464   9.167  16.471 -0.5264 -0.1927 -0.5833
 2225PEP     CB85308  20.832   8.923  16.400  0.5649  0.2016  0.2383
 2225PEP     CB85309  21.287   8.866  16.262 -0.1508  0.5033  0.2522
 2225PEP     CB85310  21.556   8.563  16.059  0.1831  0.2746  0.0259
 2225PEP     CB85311  21.801   8.537  15.631  0.0230  0.1293  0.0027
 2225PEP     CB85312  22.105   8.501  15.384  0.1831 -0.3367  0.1644
 2225PEP     CB85313  22.453   8.671  15.312 -0.1338  0.1609 -0.0272
 2225PEP     CB85314  22.652   8.989  15.169 -0.0693  0.2222  0.0566
 2225PEP     CB85315  22.766   9.430  15.314 -0.3060  0.0645 -0.0889
 2225PEP     CB85316  22.831   9.697  15.664  0.0793 -0.1099 -0.1100
 2225PEP     CB85317  22.999   9.760  16.111 -0.0398 -0.2086 -0.5090
 2225PEP     CB85318  23.332   9.907  16.471 -0.0127 -0.0149  0.0367
 2225PEP     CB85319  23.477   9.858  16.868 -0.5284  0.4979 -0.1319
 2225PEP     CB85320  23.487   9.917  17.363  0.2976  0.2564  0.1378
 2226PEP     CB85321  16.363  14.538   4.758 -0.1274  0.0308 -0.2297
 2226PEP     CB85322  16.284  15.036   4.680  0.0377  0.2292 -0.1002
 2226PEP     CB85323  16.272  15.476   4.601 -0.1046  0.1167  0.1010
 2226PEP     CB85324  16.739  15.795   4.639  0.2045 -0.4528 -0.3690
 2226PEP     CB85325  17.046  15.539   4.671  0.3499 -0.1307  0.2956
 2226PEP     CB85326  16.900  15.123   4.835 -0.1362  0.4130  0.1001
 2226PEP     CB85327  16.693  14.773   5.199 -0.3230 -0.1443  0.1059
 2226PEP     CB85328  16.795  14.381   5.544 -0.3487  0.1226  0.1222
 2226PEP     CB85329  17.023  14.033   5.576 -0.1697  0.2072 -0.0414
 2226PEP     CB85330  17.350  13.877   5.517 -0.1272  0.2634 -0.2926
 2226PEP     CB85331  17.530  13.557   5.181  0.2513 -0.0376 -0.0094
 2226PEP     CB85332  17.184  13.290   4.999 -0.3737 -0.0006 -0.4339
 2226PEP     CB85333  16.920  13.334   5.200  0.2784 -0.2587  0.1060
 2226PEP     CB85334  16.511  13.308   5.333 -0.2793 -0.1510  0.0766
 2226PEP     CB85335  16.114  13.530   5.199  0.4034 -0.3142 -0.1622
 2226PEP     CB85336  15.804  13.754   5.172  0.1861  0.0235 -0.2008
 2226PEP     CB85337  15.356  13.843   5.195  0.0198 -0.2199  0.0529
 2226PEP     CB85338  15.037  13.561   5.155  0.0402  0.1641 -0.3911
 2226PEP     CB85339  14.859  13.238   4.913 -0.0401  0.1030 -0.0506
 2226PEP     CB85340  15.007  12.978   4.615  0.1801 -0.1182  0.2584
 2226PEP     CB85341  15.156  12.939   4.120  0.0891 -0.0404 -0.2589
 2226PEP     CB85342  15.185  13.306   3.841  0.0240 -0.1006 -0.0942
 2226PEP     CB85343  15.233  13.824   3.675 -0.1751  0.0697 -0.2664
 2226PEP     CB85344  15.415  14.157   3.958 -0.0310  0.0797 -0.3760
 2226PEP     CB85345  15.756  14.174   4.248 -0.1117 -0.1969  0.0693
 2226PEP     CB85346  16.181  13.983   4.297  0.1057  0.0521  0.1142
 2226PEP     CB85347  16.463  13.624   4.345  0.0684 -0.1499  0.0535
 2226PEP     CB85348  16.558  13.282   4.228  0.2736  0.2325 -0.0892
 2226PEP     CB85349  16.307  12.901   4.320 -0.0937 -0.1271  0.0246
 2226PEP     CB85350  16.101  12.501   4.104  0.3647 -0.0768 -0.2668
 2226PEP     CB85351  16.222  12.118   4.008  0.1420  0.1039  0.0973
 2226PEP     CB85352  16.219  11.709   3.998 -0.1131 -0.2063 -0.1992
 2226PEP     CB85353  16.499  11.328   3.779  0.6587 -0.1274 -0.2118
 2226PEP     CB85354  16.612  11.347   3.384 -0.0597 -0.0257  0.1157
 2226PEP     CB85355  16.444  11.368   2.996  0.0240 -0.0998  0.0205
 2226PEP     CB85356  16.357  11.245   2.542  0.0004 -0.2158 -0.2376
 2226PEP     CB85357  16.188  11.025   2.230  0.2160  0.1052 -0.0959
 2226PEP     CB85358  15.690  10.888   2.081 -0.1974  0.3870 -0.3393
 2226PEP     CB85359  15.319  10.801   2.280  0.3814 -0.0386 -0.2054
 2226PEP     CB85360  14.971  10.786   2.170 -0.1153 -0.2266  0.1769
 2227PEP     CB85361  12.653   7.381   5.115  0.1877 -0.1224 -0.0649
 2227PEP     CB85362  12.489   7.572   4.727  0.3306  0.1917  0.5565
 2227PEP     CB85363  12.115   7.672   4.490  0.0051  0.1299  0.3388
 2227PEP     CB85364  11.938   7.741   4.166 -0.0410  0.0084  0.2149
 2227PEP     CB85365  11.851   7.984   3.899  0.1436  0.0548 -0.0439
 2227PEP     CB85366  11.753   8.359   3.519 -0.2335  0.2870 -0.1731
 2227PEP     CB85367  11.656   8.808   3.422 -0.2231  0.1357  0.0673
 2227PEP     CB85368  11.463   9.130   3.245 -0.2261  0.0623 -0.2291
 2227PEP     CB85369  11.463   9.364   2.790 -0.3277  0.2573  0.1398
 2227PEP     CB85370  11.742   9.402   2.505 -0.1467  0.1817  0.2619
 2227PEP     CB85371  11.814   9.183   2.082  0.2080 -0.0501  0.0547
 2227PEP     CB85372  11.520   8.997   1.783  0.5525 -0.0838  0.1660
 2227PEP     CB85373  11.094   9.002   1.620  0.1072  0.0267  0.2900
 2227PEP     CB85374  10.668   9.196   1.787  0.0425  0.1562  0.1979
 2227PEP     CB85375  10.707   9.535   2.062 -0.2451 -0.0417 -0.6252
 2227PEP     CB85376  11.022   9.807   2.010  0.0808  0.1006  0.2527
 2227PEP     CB85377  11.330   9.850   1.711 -0.0870  0.2956 -0.3185
 2227PEP     CB85378  11.667   9.682   1.476 -0.3210 -0.0505  0.5300
 2227PEP     CB85379  11.718   9.326   1.059 -0.1382  0.2211 -0.0975
 2227PEP     CB85380  11.648   8.963   0.819 -0.3422 -0.3496 -0.3450
 2227PEP     CB85381  11.538   8.641   0.567  0.3697 -0.6990 -0.5257
 2227PEP     CB85382  11.658   8.144   0.646 -0.2102 -0.2110 -0.1494
 2227PEP     CB85383  11.921   7.989   0.902 -0.1755  0.1889 -0.0487
 2227PEP     CB85384  11.896   8.035   1.349  0.0496  0.1899 -0.0679
 2227PEP     CB85385  11.682   7.959   1.609  0.0306  0.1448  0.2676
 2227PEP     CB85386  11.403   7.951   2.027  0.3141 -0.3087  0.0156
 2227PEP     CB85387  11.357   7.783   2.469  0.2259 -0.1928  0.2765
 2227PEP     CB85388  11.403   7.820   2.808 -0.0198  0.1268  0.2944
 2227PEP     CB85389  11.212   8.055   3.155 -0.0466 -0.1655  0.0316
 2227PEP     CB85390  10.950   7.965   3.457  0.4302 -0.1845 -0.0497
 2227PEP     CB85391  10.751   8.103   3.728 -0.2468  0.0029 -0.2051
 2227PEP     CB85392  10.505   8.308   4.000  0.4159  0.0307  0.4977
 2227PEP     CB85393  10.180   8.248   4.321  0.0275  0.3764 -0.2658
 2227PEP     CB85394  10.045   7.918   4.630  0.1318  0.0988 -0.1176
 2227PEP     CB85395  10.117   7.582   4.905 -0.2806 -0.1093  0.1790
 2227PEP     CB85396  10.145   7.423   5.280  0.0202 -0.0638 -0.1905
 2227PEP     CB85397   9.860   7.194   5.540 -0.0658 -0.2054 -0.3412
 2227PEP     CB85398   9.469   7.011   5.770 -0.2954  0.3097  0.0637
 2227PEP     CB85399   9.227   7.078   6.119 -0.0043  0.3941  0.0877
 2227PEP     CB85400   8.898   6.990   6.357 -0.2672 -0.3699 -0.1123
 2228PEP     CB85401  20.334  11.091  10.897 -0.1894 -0.0153 -0.0477
 2228PEP     CB85402  20.557  10.782  11.009 -0.3781 -0.2610  0.0075
 2228PEP     CB85403  20.590  10.671  11.463 -0.1325  0.3557  0.2577
 2228PEP     CB85404  20.873  10.595  11.788 -0.1006  0.1502  0.0102
 2228PEP     CB85405  21.285  10.533  12.039 -0.0843 -0.1134 -0.1367
 2228PEP     CB85406  21.729  10.537  11.785 -0.0597  0.1441 -0.0874
 2228PEP     CB85407  21.905  10.355  11.419 -0.0870 -0.1239 -0.1626
 2228PEP     CB85408  21.691  10.421  11.019  0.2619 -0.3662 -0.2081
 2228PEP     CB85409  21.531  10.734  10.952  0.0121  0.2179  0.0716
 2228PEP     CB85410  21.649  11.179  10.978  0.1427  0.3993 -0.2036
 2228PEP     CB85411  21.840  11.555  10.954  0.4701  0.0108  0.1033
 2228PEP     CB85412  21.952  11.968  10.975  0.1397 -0.1623  0.0294
 2228PEP     CB85413  22.057  12.303  10.665 -0.1507  0.3528  0.4240
 2228PEP     CB85414  22.177  12.652  10.514 -0.0238 -0.0218 -0.1387
 2228PEP     CB85415  22.250  13.002  10.287  0.0021 -0.1604  0.3528
 2228PEP     CB85416  22.257  13.443  10.195  0.0741  0.1660 -0.0193
 2228PEP     CB85417  22.382  13.827  10.043 -0.1061  0.1379  0.1803
 2228PEP     CB85418  22.595  14.107   9.828  0.2776 -0.0389 -0.1083
 2228PEP     CB85419  22.670  14.551   9.827  0.1380  0.0039 -0.3775
 2228PEP     CB85420  22.598  14.958   9.718 -0.1955 -0.2685 -0.3005
 2228PEP     CB85421  22.662  15.301   9.598 -0.0596 -0.3080  0.1756
 2228PEP     CB85422  22.714  15.695   9.811  0.0327 -0.1483  0.5746
 2228PEP     CB85423  22.923  16.102   9.803  0.0270 -0.0085 -0.0101
 2228PEP     CB85424  23.198  16.372  10.125 -0.0015  0.1717 -0.0043
 2228PEP     CB85425  23.384  16.546  10.500  0.1735 -0.0262 -0.1610
 2228PEP     CB85426  23.509  16.654  10.853 -0.1844 -0.2685 -0.0049
 2228PEP     CB85427  23.563  16.607  11.290 -0.1725 -0.4913 -0.5893
 2228PEP     CB85428  23.676  16.267  11.667 -0.2604 -0.1026 -0.0168
 2228PEP     CB85429  23.764  15.908  11.909  0.3524  0.1941  0.0053
 2228PEP     CB85430  23.959  15.510  11.919 -0.1006  0.1419 -0.1435
 2228PEP     CB85431  23.947  15.078  11.646 -0.1899 -0.1679 -0.2030
 2228PEP     CB85432  24.108  14.696  11.693 -0.1372 -0.1236  0.0575
 2228PEP     CB85433  24.374  14.409  11.912 -0.2092  0.2174  0.1339
 2228PEP     CB85434  24.814  14.367  11.805 -0.2398  0.5581 -0.1903
 2228PEP     CB85435  25.304  14.350  11.753  0.0935 -0.2458 -0.1615
 2228PEP     CB85436  25.743  14.064  11.819  0.1821  0.2124 -0.0691
 2228PEP     CB85437  25.906  13.761  11.536 -0.1760  0.0826 -0.5360
 2228PEP     CB85438  25.753  13.561  11.112  0.0132 -0.1239 -0.1192
 2228PEP     CB85439  25.322  13.356  11.056 -0.1643  0.0461 -0.1455
 2228PEP     CB85440  24.859  13.133  10.931 -0.1325 -0.1304 -0.1582
 2229PEP     CB85441  17.452  17.182  11.798 -0.0969 -0.1730  0.1830
 2229PEP     CB85442  17.474  17.556  11.695 -0.2104  0.0633 -0.3447
 2229PEP     CB85443  17.441  17.990  11.559  0.0785 -0.3065 -0.2978
 2229PEP     CB85444  17.676  18.366  11.626  0.0264 -0.4507  0.4437
 2229PEP     CB85445  18.055  18.548  11.826 -0.1052 -0.0101 -0.0587
 2229PEP     CB85446  18.227  18.932  12.177 -0.0038  0.6003  0.1742
 2229PEP     CB85447  18.030  19.074  12.602 -0.2759  0.0401 -0.2238
 2229PEP     CB85448  17.835  19.187  12.960 -0.2306  0.4298  0.2767
 2229PEP     CB85449  17.720  19.454  13.300  0.3743 -0.0269  0.4348
 2229PEP     CB85450  17.657  19.794  13.658  0.2843  0.0915  0.0620
 2229PEP     CB85451  17.530  19.709  14.126 -0.1273  0.0214  0.4115
 2229PEP     CB85452  17.481  19.801  14.557 -0.1100  0.1811 -0.0893
 2229PEP     CB85453  17.441  20.112  14.910 -0.3589  0.3353  0.0993
 2229PEP     CB85454  17.367  20.401  15.176  0.1862  0.0598  0.3893
 2229PEP     CB85455  17.233  20.773  15.302  0.2775 -0.2024  0.2731
 2229PEP     CB85456  17.037  21.169  15.342  0.0118 -0.2568 -0.0521
 2229PEP     CB85457  16.987  21.518  15.089 -0.1411 -0.1365  0.2836
 2229PEP     CB85458  16.761  21.883  14.905 -0.0412 -0.3507 -0.2438
 2229PEP     CB85459  16.937  22.245  14.735 -0.2239 -0.2159 -0.1371
 2229PEP     CB85460  17.076  22.639  14.907  0.2100  0.2542  0.1332
 2229PEP     CB85461  16.799  22.847  15.105  0.1594  0.1115 -0.2386
 2229PEP     CB85462  16.636  22.850  15.405 -0.0165 -0.2564  0.2691
 2229PEP     CB85463  16.216  22.869  15.662 -0.2384 -0.1575  0.1198
 2229PEP     CB85464  16.065  22.773  16.083 -0.2699 -0.0919 -0.1774
 2229PEP     CB85465  16.084  22.973  16.481 -0.1723  0.4653 -0.0653
 2229PEP     CB85466  15.980  23.027  16.856 -0.3445  0.0836 -0.3089
 2229PEP     CB85467  15.701  23.224  17.180 -0.1807  0.1653  0.2464
 2229PEP     CB85468  15.786  23.525  17.553 -0.0905  0.4582 -0.2846
 2229PEP     CB85469  15.771  23.876  17.766 -0.2202 -0.0106  0.1427
 2229PEP     CB85470  15.728  24.324  17.780 -0.1534 -0.3244 -0.1340
 2229PEP     CB85471  15.345  24.655  17.838  0.0528 -0.0384 -0.1079
 2229PEP     CB85472  14.891  24.609  17.683 -0.1878  0.2647 -0.3248
 2229PEP     CB85473  14.483  24.446  17.581  0.2688  0.1345 -0.3665
 2229PEP     CB85474  14.373  24.201  17.229 -0.3051  0.6447  0.1418
 2229PEP     CB85475  14.249  23.795  17.116 -0.0648  0.0987 -0.0443
 2229PEP     CB85476  14.269  23.406  16.921  0.2762  0.0247 -0.1233
 2229PEP     CB85477  14.584  23.089  16.759  0.1214 -0.3321  0.0483
 2229PEP     CB85478  14.990  23.288  16.484 -0.6855 -0.0111  0.0397
 2229PEP     CB85479  15.371  23.547  16.142  0.1851 -0.1584 -0.1468
 2229PEP     CB85480  15.825  23.679  16.124  0.2098  0.1391 -0.3913
 2230PEP     CB85481  19.401  16.035  14.600 -0.1747  0.3177  0.0183
 2230PEP     CB85482  19.341  16.283  14.951  0.0001  0.1161 -0.1588
 2230PEP     CB85483  19.229  16.355  15.405 -0.1397 -0.0534 -0.2010
 2230PEP     CB85484  19.058  16.155  15.844 -0.0055  0.0072 -0.3061
 2230PEP     CB85485  18.735  16.110  16.123 -0.1568  0.1156 -0.2950
 2230PEP     CB85486  18.367  16.161  16.269 -0.1223  0.1095  0.4101
 2230PEP     CB85487  18.018  16.333  16.257 -0.2585 -0.1585 -0.0584
 2230PEP     CB85488  17.751  16.473  15.968  0.2024  0.0220  0.3467
 2230PEP     CB85489  17.685  16.848  15.666  0.1853 -0.0265  0.2800
 2230PEP     CB85490  17.624  17.249  15.685 -0.1096  0.3281  0.0396
 2230PEP     CB85491  17.602  17.703  15.852 -0.0358  0.0095 -0.1299
 2230PEP     CB85492  17.822  17.977  16.013  0.0068  0.2255  0.3242
 2230PEP     CB85493  18.189  18.151  16.064 -0.1391 -0.0797 -0.0556
 2230PEP     CB85494  18.583  18.126  16.200  0.1131 -0.0699  0.0084
 2230PEP     CB85495  18.997  18.002  16.397  0.1432 -0.3548 -0.5187
 2230PEP     CB85496  19.284  17.847  16.605  0.0853 -0.2422 -0.1586
 2230PEP     CB85497  19.566  17.731  16.924  0.3682 -0.2464 -0.0239
 2230PEP     CB85498  19.896  17.529  17.014 -0.0652 -0.1471  0.0721
 2230PEP     CB85499  20.099  17.263  17.386  0.1790  0.0739 -0.0415
 2230PEP     CB85500  20.319  16.775  17.372  0.2667  0.2116  0.1972
 2230PEP     CB85501  20.184  16.387  17.521 -0.4809 -0.0526  0.3819
 2230PEP     CB85502  20.114  15.911  17.443  0.0263 -0.0609 -0.2571
 2230PEP     CB85503  20.307  15.594  17.669  0.1734 -0.0678 -0.4766
 2230PEP     CB85504  20.528  15.213  17.474 -0.4366 -0.2035 -0.1435
 2230PEP     CB85505  20.397  15.005  17.163 -0.3970  0.0963  0.2009
 2230PEP     CB85506  20.057  15.136  16.835  0.2108  0.0957 -0.1364
 2230PEP     CB85507  19.706  15.389  16.888  0.0513 -0.1350 -0.0285
 2230PEP     CB85508  19.351  15.586  16.786 -0.2157  0.0162  0.1820
 2230PEP     CB85509  18.982  15.630  16.572  0.1658 -0.0425  0.3775
 2230PEP     CB85510  18.514  15.757  16.621 -0.0688 -0.0429  0.1189
 2230PEP     CB85511  18.274  15.708  16.932  0.2198  0.2950 -0.2248
 2230PEP     CB85512  18.126  15.220  16.939  0.2374 -0.0003  0.0628
 2230PEP     CB85513  18.347  14.882  16.919  0.0388 -0.0234  0.0158
 2230PEP     CB85514  18.462  14.615  17.281 -0.1099 -0.0829 -0.0958
 2230PEP     CB85515  18.187  14.646  17.745 -0.3661 -0.0376 -0.4162
 2230PEP     CB85516  17.768  14.814  17.707  0.1330  0.1241 -0.1528
 2230PEP     CB85517  17.443  14.812  17.429 -0.2121  0.0896 -0.1076
 2230PEP     CB85518  17.239  14.817  17.027 -0.2274 -0.2256  0.0085
 2230PEP     CB85519  17.010  15.027  16.608  0.0034  0.2009 -0.0718
 2230PEP     CB85520  17.132  15.124  16.234  0.1854  0.3178  0.0018
 2231PEP     CB85521   9.921  14.962   1.347  0.3098  0.4733 -0.2162
 2231PEP     CB85522  10.121  15.298   1.190 -0.2805  0.0931  0.0331
 2231PEP     CB85523  10.041  15.774   1.113  0.0121 -0.2211  0.2855
 2231PEP     CB85524   9.988  16.090   0.836  0.2567 -0.3266 -0.1011
 2231PEP     CB85525  10.096  16.557   0.670 -0.1753 -0.4904  0.1059
 2231PEP     CB85526  10.093  16.967   0.702 -0.2191  0.0404  0.4255
 2231PEP     CB85527  10.116  17.393   0.629 -0.2482 -0.2802  0.2887
 2231PEP     CB85528   9.992  17.760   0.362  0.0020 -0.1070 -0.1905
 2231PEP     CB85529  10.138  17.972  -0.029  0.0783 -0.0817 -0.1294
 2231PEP     CB85530  10.266  18.055  -0.449 -0.0955  0.0897  0.0751
 2231PEP     CB85531  10.551  17.956  -0.749 -0.3023 -0.0978  0.3378
 2231PEP     CB85532  10.863  17.589  -0.745  0.2077 -0.0788 -0.1538
 2231PEP     CB85533  10.820  17.441  -0.375 -0.1464 -0.0333  0.2365
 2231PEP     CB85534  10.599  17.725  -0.133  0.1082  0.2447  0.2014
 2231PEP     CB85535  10.588  18.234  -0.068  0.4165  0.1893 -0.1675
 2231PEP     CB85536  10.760  18.628  -0.323  0.4122 -0.6528 -0.1286
 2231PEP     CB85537  11.120  18.944  -0.358  0.2840  0.0809  0.1310
 2231PEP     CB85538  11.184  19.443  -0.374  0.0526  0.4696  0.0992
 2231PEP     CB85539  10.852  19.833  -0.311 -0.3974 -0.0161 -0.2394
 2231PEP     CB85540  10.709  19.972  -0.008  0.3981 -0.0637 -0.1881
 2231PEP     CB85541  10.555  20.141   0.402  0.0718 -0.2778  0.3667
 2231PEP     CB85542  10.340  19.822   0.690  0.0658  0.0569 -0.0596
 2231PEP     CB85543  10.262  19.464   0.570 -0.0338  0.0654 -0.1603
 2231PEP     CB85544  10.614  19.341   0.219  0.1411  0.5905 -0.0788
 2231PEP     CB85545  11.048  19.404   0.085  0.1862  0.0432 -0.0462
 2231PEP     CB85546  11.392  19.483   0.347 -0.4567 -0.1591 -0.1463
 2231PEP     CB85547  11.643  19.678   0.616  0.1546  0.1811 -0.0503
 2231PEP     CB85548  11.439  19.983   0.916  0.0580 -0.0161 -0.2517
 2231PEP     CB85549  11.068  20.249   0.944 -0.2355 -0.5283 -0.1002
 2231PEP     CB85550  10.879  20.506   1.165 -0.0633 -0.1322 -0.4770
 2231PEP     CB85551  10.649  20.791   1.170  0.0404 -0.1068  0.1493
 2231PEP     CB85552  10.299  21.015   1.036 -0.2840  0.0791 -0.1875
 2231PEP     CB85553  10.043  21.056   0.650  0.0848 -0.1528 -0.0941
 2231PEP     CB85554   9.739  21.126   0.210 -0.1592 -0.0229 -0.0292
 2231PEP     CB85555   9.448  21.081  -0.159 -0.0349  0.0309 -0.2562
 2231PEP     CB85556   9.314  21.076  -0.633  0.1847  0.4298  0.2537
 2231PEP     CB85557   9.406  21.211  -1.055  0.1655 -0.2836  0.6405
 2231PEP     CB85558   9.584  21.260  -1.475  0.3433  0.2926 -0.2036
 2231PEP     CB85559   9.636  21.498  -1.776 -0.2878 -0.0448  0.1613
 2231PEP     CB85560   9.588  21.836  -2.120  0.1188 -0.2157  0.1439
 2232PEP     CB85561   4.622   9.561   1.253 -0.5200  0.0910  0.0612
 2232PEP     CB85562   4.212   9.479   1.359 -0.2553 -0.1206 -0.0392
 2232PEP     CB85563   3.875   9.672   1.536 -0.0508 -0.5677 -0.0447
 2232PEP     CB85564   3.727   9.651   2.006 -0.1306  0.3084 -0.1079
 2232PEP     CB85565   3.681   9.382   2.437  0.3647  0.1242  0.1959
 2232PEP     CB85566   3.466   9.014   2.569  0.1190 -0.3487 -0.2279
 2232PEP     CB85567   3.324   8.803   2.247  0.0104 -0.4785  0.0273
 2232PEP     CB85568   3.242   9.025   1.890  0.1118  0.0014 -0.2486
 2232PEP     CB85569   3.636   9.231   1.688 -0.2565 -0.3036  0.3075
 2232PEP     CB85570   4.057   9.284   1.853 -0.0723 -0.0343 -0.0408
 2232PEP     CB85571   4.403   9.149   2.158  0.0926  0.0196 -0.0812
 2232PEP     CB85572   4.687   9.417   2.387  0.9249 -0.2448 -0.3279
 2232PEP     CB85573   4.643   9.757   2.772  0.0795  0.1720  0.1541
 2232PEP     CB85574   4.334   9.992   3.010 -0.0776 -0.3634 -0.4997
 2232PEP     CB85575   4.110  10.455   2.866  0.1856 -0.1163  0.1210
 2232PEP     CB85576   4.059  10.885   2.657 -0.3215 -0.0017  0.1312
 2232PEP     CB85577   3.784  11.163   2.473  0.2740 -0.4428 -0.3693
 2232PEP     CB85578   3.660  11.551   2.503  0.0634 -0.1066 -0.1991
 2232PEP     CB85579   3.727  11.956   2.394 -0.0267 -0.0954 -0.1516
 2232PEP     CB85580   4.040  12.155   2.124  0.2387  0.1574 -0.4974
 2232PEP     CB85581   4.383  12.081   2.044  0.1496 -0.0319 -0.2695
 2232PEP     CB85582   4.762  11.967   2.205 -0.0998  0.0595 -0.1185
 2232PEP     CB85583   4.802  12.101   2.586 -0.2081  0.3636 -0.0073
 2232PEP     CB85584   4.732  12.371   2.842  0.1265 -0.2413 -0.0722
 2232PEP     CB85585   4.521  12.770   2.828  0.2140 -0.5207 -0.1912
 2232PEP     CB85586   4.264  12.895   2.489 -0.3724  0.1560 -0.0532
 2232PEP     CB85587   4.268  12.786   2.124 -0.2203  0.2303  0.0574
 2232PEP     CB85588   4.489  12.972   1.778  0.0923  0.3233 -0.3096
 2232PEP     CB85589   4.485  13.378   1.668 -0.1918 -0.1162 -0.0756
 2232PEP     CB85590   4.338  13.633   1.334 -0.2365 -0.1061  0.5424
 2232PEP     CB85591   4.094  13.633   0.986 -0.3760 -0.0420  0.1122
 2232PEP     CB85592   3.813  13.374   0.821  0.1262 -0.1209  0.1529
 2232PEP     CB85593   3.624  13.058   0.738  0.2114  0.1017  0.2342
 2232PEP     CB85594   3.768  12.690   0.717 -0.0118 -0.3878  0.5469
 2232PEP     CB85595   4.160  12.363   0.800 -0.1123  0.1518  0.0411
 2232PEP     CB85596   4.500  12.247   0.641  0.1420  0.3514 -0.0587
 2232PEP     CB85597   4.862  12.293   0.281  0.1469  0.1258 -0.0098
 2232PEP     CB85598   5.130  12.355  -0.115  0.1980 -0.2980 -0.0332
 2232PEP     CB85599   5.455  12.150  -0.327  0.4460 -0.2458  0.2276
 2232PEP     CB85600   5.541  11.835  -0.707 -0.1739  0.2226 -0.3432
 2233PEP     CB85601  15.310  19.014   1.450 -0.1513  0.4160 -0.2204
 2233PEP     CB85602  15.697  18.827   1.305  0.1858 -0.2503  0.1972
 2233PEP     CB85603  15.980  18.649   1.070  0.1535 -0.0118 -0.1463
 2233PEP     CB85604  16.080  18.558   0.643 -0.1200  0.0244 -0.0122
 2233PEP     CB85605  16.283  18.208   0.428  0.4806  0.0643 -0.0590
 2233PEP     CB85606  16.509  17.845   0.598  0.1395  0.0881 -0.1104
 2233PEP     CB85607  16.845  17.676   0.677 -0.0629  0.0658 -0.1317
 2233PEP     CB85608  17.099  17.381   0.776  0.3143 -0.0628  0.0755
 2233PEP     CB85609  17.512  17.313   1.022  0.3353 -0.1189 -0.4732
 2233PEP     CB85610  17.749  17.629   1.209 -0.2053  0.0161 -0.3630
 2233PEP     CB85611  17.743  17.815   1.647  0.2912  0.1512 -0.2400
 2233PEP     CB85612  17.799  17.749   2.124  0.0337 -0.1143  0.2561
 2233PEP     CB85613  17.698  18.054   2.503  0.2960 -0.1100  0.2841
 2233PEP     CB85614  17.337  18.064   2.586 -0.0579 -0.3978 -0.0529
 2233PEP     CB85615  17.081  17.859   2.378  0.2255 -0.1577  0.1938
 2233PEP     CB85616  16.844  17.573   2.391 -0.0834  0.0580 -0.1798
 2233PEP     CB85617  16.406  17.435   2.164  0.0532 -0.1011 -0.0030
 2233PEP     CB85618  16.480  17.280   1.663  0.0490  0.0069  0.0436
 2233PEP     CB85619  16.699  16.931   1.376 -0.1093  0.0565 -0.0206
 2233PEP     CB85620  16.829  16.508   1.455  0.2210 -0.0773  0.0943
 2233PEP     CB85621  16.813  16.471   1.872 -0.2746  0.2498 -0.1059
 2233PEP     CB85622  16.941  16.745   2.222  0.0135 -0.0576 -0.0529
 2233PEP     CB85623  16.858  17.186   2.161  0.2899  0.3132  0.0482
 2233PEP     CB85624  17.023  17.412   1.824 -0.1597  0.0050  0.1368
 2233PEP     CB85625  17.306  17.243   1.534 -0.0704  0.2304  0.2529
 2233PEP     CB85626  17.712  17.002   1.466 -0.2991  0.2950 -0.0483
 2233PEP     CB85627  18.098  16.815   1.485 -0.3191 -0.1701 -0.1111
 2233PEP     CB85628  18.546  16.895   1.478 -0.4451 -0.3865 -0.2393
 2233PEP     CB85629  18.925  17.060   1.439 -0.0704 -0.2521 -0.0241
 2233PEP     CB85630  19.134  17.345   1.509 -0.1219  0.1946 -0.0516
 2233PEP     CB85631  19.521  17.671   1.522 -0.6311  0.0820 -0.0600
 2233PEP     CB85632  19.657  17.998   1.904  0.4100 -0.1658 -0.0163
 2233PEP     CB85633  19.554  17.883   2.420  0.3048  0.2400  0.1462
 2233PEP     CB85634  19.300  17.473   2.448 -0.0427  0.3297 -0.0641
 2233PEP     CB85635  19.235  17.106   2.194  0.0550  0.1088 -0.1272
 2233PEP     CB85636  19.135  16.948   1.806 -0.2291 -0.1495 -0.2729
 2233PEP     CB85637  18.871  16.529   1.630 -0.0678  0.0763 -0.0766
 2233PEP     CB85638  18.509  16.312   1.549  0.1216 -0.2295 -0.0603
 2233PEP     CB85639  18.233  15.900   1.598  0.0720  0.2521 -0.0986
 2233PEP     CB85640  18.202  15.509   1.573 -0.2339 -0.2183 -0.0029
 2234PEP     CB85641  14.000  10.340  17.468 -0.2259  0.1330 -0.0064
 2234PEP     CB85642  14.231  10.688  17.419 -0.0426  0.8190  0.3179
 2234PEP     CB85643  14.364  11.142  17.104  0.3369 -0.1010 -0.3946
 2234PEP     CB85644  14.615  11.459  16.942 -0.1088 -0.2794  0.4401
 2234PEP     CB85645  15.041  11.517  16.963  0.3846 -0.2978  0.1213
 2234PEP     CB85646  15.343  11.603  17.385 -0.1635 -0.1442 -0.2902
 2234PEP     CB85647  15.442  11.493  17.819 -0.1384 -0.0871  0.0229
 2234PEP     CB85648  15.569  11.622  18.275 -0.1225 -0.0356 -0.0622
 2234PEP     CB85649  15.825  11.837  18.572 -0.3173 -0.1818 -0.0514
 2234PEP     CB85650  16.224  11.982  18.642 -0.2082 -0.0522  0.1170
 2234PEP     CB85651  16.551  11.947  18.731 -0.2504  0.1042 -0.0652
 2234PEP     CB85652  16.881  11.971  18.512  0.0131  0.0196  0.1630
 2234PEP     CB85653  17.058  11.925  18.148  0.3093 -0.2707  0.0502
 2234PEP     CB85654  17.050  11.636  17.921  0.0793 -0.0619  0.1584
 2234PEP     CB85655  16.882  11.290  17.927 -0.1713 -0.3793 -0.1665
 2234PEP     CB85656  16.361  11.347  17.868 -0.0675 -0.0999 -0.1002
 2234PEP     CB85657  15.979  11.603  17.766  0.0645 -0.1222  0.2870
 2234PEP     CB85658  15.701  11.990  17.847  0.0309  0.2231  0.1397
 2234PEP     CB85659  15.300  11.971  17.780 -0.1148 -0.2450 -0.0171
 2234PEP     CB85660  14.988  11.706  17.648 -0.2446  0.0809 -0.0682
 2234PEP     CB85661  14.787  11.287  17.469  0.0471 -0.4882 -0.0870
 2234PEP     CB85662  14.823  11.077  17.116  0.0947 -0.1480  0.0558
 2234PEP     CB85663  14.981  10.731  16.872  0.2835  0.1049  0.3778
 2234PEP     CB85664  15.149  10.287  16.878  0.2606  0.2565  0.1215
 2234PEP     CB85665  15.306   9.966  17.205 -0.1529 -0.4335  0.4804
 2234PEP     CB85666  14.936   9.787  17.439  0.2805 -0.1083  0.3684
 2234PEP     CB85667  14.595   9.751  17.125  0.4448 -0.0609  0.2475
 2234PEP     CB85668  14.735   9.891  16.768 -0.0099 -0.2891 -0.0824
 2234PEP     CB85669  15.198   9.822  16.714 -0.3028 -0.2007  0.2219
 2234PEP     CB85670  15.471   9.615  16.934  0.0528 -0.2131  0.0215
 2234PEP     CB85671  15.457   9.463  17.298  0.0148 -0.1982  0.2010
 2234PEP     CB85672  15.538   9.090  17.535  0.5094 -0.0524  0.2829
 2234PEP     CB85673  15.669   8.673  17.318  0.3237  0.1220  0.0335
 2234PEP     CB85674  15.416   8.335  17.106 -0.3867 -0.3856 -0.1042
 2234PEP     CB85675  15.176   8.101  16.792 -0.0394 -0.5763 -0.0449
 2234PEP     CB85676  14.706   7.995  16.938 -0.0208  0.2458  0.6104
 2234PEP     CB85677  14.358   8.101  17.229 -0.0688  0.0840 -0.0403
 2234PEP     CB85678  14.342   8.282  17.576 -0.0495  0.1346  0.2864
 2234PEP     CB85679  14.643   8.155  17.807  0.1563 -0.1686 -0.1696
 2234PEP     CB85680  14.901   8.002  18.026 -0.1399  0.0766 -0.1476
 2235PEP     CB85681   3.823  12.009   6.275  0.2578 -0.1593  0.4694
 2235PEP     CB85682   3.750  11.914   5.906 -0.0619  0.1675  0.2795
 2235PEP     CB85683   3.654  11.643   5.592  0.1748  0.0047 -0.0230
 2235PEP     CB85684   3.648  11.171   5.658  0.3284  0.3655  0.1788
 2235PEP     CB85685   3.421  10.815   5.760 -0.1796 -0.0039  0.1784
 2235PEP     CB85686   2.968  10.835   5.642 -0.1262 -0.0245  0.2301
 2235PEP     CB85687   2.758  10.792   5.220 -0.0024 -0.2570  0.1477
 2235PEP     CB85688   2.761  10.545   4.840 -0.3039  0.2627 -0.1159
 2235PEP     CB85689   2.458  10.356   4.569 -0.3338  0.1188  0.4461
 2235PEP     CB85690   2.179  10.518   4.209 -0.0709 -0.2103  0.0861
 2235PEP     CB85691   2.124  10.997   4.376 -0.0633 -0.1113 -0.2921
 2235PEP     CB85692   2.225  11.042   4.811  0.7340 -0.1972  0.0394
 2235PEP     CB85693   2.222  10.705   5.146 -0.3462  0.0608 -0.1907
 2235PEP     CB85694   2.047  10.554   5.532  0.4309 -0.2680  0.0115
 2235PEP     CB85695   1.949  10.602   5.916  0.2269 -0.0750 -0.0136
 2235PEP     CB85696   1.866  10.222   6.282  0.2563 -0.1357 -0.0947
 2235PEP     CB85697   1.826   9.795   6.271 -0.0366 -0.0848 -0.2973
 2235PEP     CB85698   2.046   9.448   6.338 -0.1726  0.1778  0.2514
 2235PEP     CB85699   1.979   9.020   6.471 -0.5555 -0.0807 -0.1935
 2235PEP     CB85700   1.722   8.705   6.616 -0.2145  0.1054  0.1614
 2235PEP     CB85701   1.345   8.537   6.812 -0.0469 -0.0881  0.0926
 2235PEP     CB85702   0.964   8.250   6.854 -0.2630 -0.0311 -0.2081
 2235PEP     CB85703   0.697   8.035   6.521 -0.0965  0.3283 -0.2306
 2235PEP     CB85704   0.673   7.914   6.100  0.1241  0.1564 -0.4131
 2235PEP     CB85705   0.740   7.759   5.590 -0.4164  0.4320  0.0534
 2235PEP     CB85706   0.681   7.397   5.285  0.1464  0.1460  0.2612
 2235PEP     CB85707   0.845   6.964   5.142 -0.1809 -0.1467 -0.1129
 2235PEP     CB85708   0.807   6.758   5.535 -0.1994 -0.1327 -0.0734
 2235PEP     CB85709   0.936   6.880   5.953 -0.4931  0.0710  0.1014
 2235PEP     CB85710   0.852   7.063   6.235  0.0345 -0.2133 -0.0158
 2235PEP     CB85711   0.812   7.060   6.671  0.0726  0.1518  0.1424
 2235PEP     CB85712   0.736   7.134   7.099 -0.0366 -0.3544  0.1483
 2235PEP     CB85713   0.609   7.524   7.362  0.3537  0.0283 -0.0754
 2235PEP     CB85714   0.607   7.666   7.802 -0.0762 -0.1978 -0.0461
 2235PEP     CB85715   0.542   8.048   8.046 -0.0735 -0.1229 -0.1439
 2235PEP     CB85716   0.150   8.378   8.091 -0.1530 -0.0645  0.0090
 2235PEP     CB85717  -0.260   8.380   8.165  0.0031  0.1888  0.0485
 2235PEP     CB85718  -0.765   8.332   8.254  0.1275 -0.0601 -0.1406
 2235PEP     CB85719  -1.225   8.484   8.393 -0.1042  0.1854  0.0339
 2235PEP     CB85720  -1.578   8.681   8.542  0.0811 -0.2555  0.2129
 2236PEP     CB85721  21.092   7.135   9.669 -0.4145 -0.1099 -0.1701
 2236PEP     CB85722  20.885   7.484   9.907 -0.1317  0.1457  0.2231
 2236PEP     CB85723  20.876   7.842   9.828 -0.2683  0.0351  0.1931
 2236PEP     CB85724  21.083   8.267   9.647 -0.0348  0.0515 -0.0088
 2236PEP     CB85725  21.305   8.546   9.354 -0.1376 -0.0611 -0.0482
 2236PEP     CB85726  21.413   8.465   8.995 -0.1429 -0.0140  0.2282
 2236PEP     CB85727  21.172   8.340   8.737  0.1160 -0.1344 -0.0777
 2236PEP     CB85728  20.774   8.116   8.704 -0.1858  0.3925  0.1576
 2236PEP     CB85729  20.488   7.791   8.835  0.1833 -0.0041 -0.1396
 2236PEP     CB85730  20.156   7.575   9.143  0.0155 -0.0593 -0.4824
 2236PEP     CB85731  19.918   7.643   9.471 -0.0066  0.2222  0.0028
 2236PEP     CB85732  19.779   7.862   9.735 -0.0154  0.1148 -0.1141
 2236PEP     CB85733  19.685   8.258   9.722 -0.1149  0.0916 -0.1478
 2236PEP     CB85734  19.374   8.524   9.518 -0.2983  0.0981  0.0489
 2236PEP     CB85735  18.922   8.642   9.403  0.1998 -0.2055  0.0228
 2236PEP     CB85736  18.702   8.799   9.021  0.1221 -0.0669 -0.0849
 2236PEP     CB85737  18.263   8.690   8.998  0.0148  0.0782  0.4257
 2236PEP     CB85738  18.053   8.706   9.391 -0.3245 -0.0868 -0.0623
 2236PEP     CB85739  17.976   9.091   9.648  0.2543 -0.1251  0.2859
 2236PEP     CB85740  18.175   9.539   9.570 -0.3307  0.1995 -0.0552
 2236PEP     CB85741  18.448   9.585   9.096  0.2279 -0.0367 -0.1731
 2236PEP     CB85742  18.758   9.319   8.907 -0.0146  0.0015 -0.2084
 2236PEP     CB85743  18.817   9.040   8.515 -0.1173 -0.2434  0.2269
 2236PEP     CB85744  19.116   8.757   8.307  0.0130 -0.0364  0.0655
 2236PEP     CB85745  19.237   8.300   8.294 -0.2825 -0.0934  0.2352
 2236PEP     CB85746  18.988   7.998   8.174 -0.2479  0.2830  0.0567
 2236PEP     CB85747  18.886   7.705   7.816 -0.0067 -0.1205  0.1518
 2236PEP     CB85748  19.193   7.449   7.656  0.0736 -0.1810 -0.0391
 2236PEP     CB85749  19.720   7.424   7.785 -0.4476  0.0485 -0.3189
 2236PEP     CB85750  20.153   7.673   7.740  0.0581  0.0269  0.0986
 2236PEP     CB85751  20.401   8.028   7.841  0.1138  0.0702  0.1169
 2236PEP     CB85752  20.302   8.395   8.108  0.0163  0.1150  0.0184
 2236PEP     CB85753  19.895   8.431   8.389  0.4171  0.0590 -0.1168
 2236PEP     CB85754  19.647   8.122   8.497  0.0621  0.0564  0.0296
 2236PEP     CB85755  19.456   7.743   8.584 -0.0101  0.1802 -0.0164
 2236PEP     CB85756  18.912   7.619   8.526 -0.1278 -0.3055 -0.1430
 2236PEP     CB85757  18.524   7.365   8.469 -0.3138 -0.2037  0.2219
 2236PEP     CB85758  18.209   7.383   8.247 -0.0306 -0.1349 -0.1304
 2236PEP     CB85759  17.796   7.420   8.044  0.2971  0.1414  0.2248
 2236PEP     CB85760  17.443   7.650   7.911  0.1203  0.2267  0.1468
 2237PEP     CB85761  18.983  12.689  16.909  0.2021  0.4957  0.0173
 2237PEP     CB85762  18.585  12.489  17.030 -0.0566 -0.2091 -0.0044
 2237PEP     CB85763  18.273  12.615  17.373 -0.4357 -0.2004 -0.2351
 2237PEP     CB85764  17.981  12.799  17.702  0.6401 -0.1448 -0.0861
 2237PEP     CB85765  17.696  12.796  18.138 -0.0498 -0.1718  0.0363
 2237PEP     CB85766  17.626  12.564  18.512  0.1029  0.2860  0.3388
 2237PEP     CB85767  17.736  12.385  18.852 -0.1851 -0.2479  0.0182
 2237PEP     CB85768  18.031  12.063  18.928  0.0280 -0.2037 -0.2651
 2237PEP     CB85769  18.445  11.947  18.758 -0.1193 -0.1219  0.2829
 2237PEP     CB85770  18.824  11.791  18.720  0.2525  0.2851  0.2650
 2237PEP     CB85771  19.143  11.637  18.490  0.1218  0.1897 -0.0503
 2237PEP     CB85772  19.369  11.332  18.453  0.2301  0.0009  0.2668
 2237PEP     CB85773  19.564  10.918  18.503  0.2879 -0.1542  0.0583
 2237PEP     CB85774  19.649  10.519  18.376  0.0678  0.6175  0.0096
 2237PEP     CB85775  19.640  10.068  18.514  0.1703 -0.2960 -0.1723
 2237PEP     CB85776  19.346   9.709  18.597 -0.0804  0.0987 -0.0220
 2237PEP     CB85777  18.908   9.758  18.618 -0.0270  0.1549 -0.0133
 2237PEP     CB85778  18.704   9.835  18.929 -0.1391  0.0570 -0.0815
 2237PEP     CB85779  18.410   9.909  19.253  0.0760  0.0164 -0.1026
 2237PEP     CB85780  18.047   9.617  19.415 -0.1246 -0.1701  0.1189
 2237PEP     CB85781  17.975   9.091  19.359 -0.1054  0.2492  0.1520
 2237PEP     CB85782  18.157   8.659  19.236 -0.0037  0.6272 -0.2872
 2237PEP     CB85783  18.121   8.272  19.007 -0.1717 -0.1614  0.0484
 2237PEP     CB85784  18.163   7.945  18.672 -0.0114 -0.2930  0.1594
 2237PEP     CB85785  18.122   7.751  18.302  0.5793  0.2825 -0.0374
 2237PEP     CB85786  18.003   7.371  18.225  0.0817 -0.2203 -0.1465
 2237PEP     CB85787  18.209   7.034  18.291  0.0119  0.2326  0.4259
 2237PEP     CB85788  18.489   6.883  18.496  0.1898  0.5393  0.1111
 2237PEP     CB85789  18.784   6.938  18.828 -0.2388 -0.2605  0.3535
 2237PEP     CB85790  18.886   6.999  19.268  0.0749  0.4637  0.2272
 2237PEP     CB85791  19.029   6.885  19.653  0.0448  0.0364  0.1046
 2237PEP     CB85792  19.343   6.603  19.758 -0.1139 -0.0683  0.1029
 2237PEP     CB85793  19.506   6.139  19.742 -0.1247 -0.1345  0.1894
 2237PEP     CB85794  19.860   5.854  19.492 -0.0245  0.3401  0.1692
 2237PEP     CB85795  20.205   5.873  19.207 -0.3607 -0.0070  0.2308
 2237PEP     CB85796  20.568   6.117  19.156  0.0677  0.1416  0.0165
 2237PEP     CB85797  20.984   6.103  19.066 -0.0648  0.2148  0.2329
 2237PEP     CB85798  21.130   6.181  18.601  0.3722  0.0501 -0.3160
 2237PEP     CB85799  21.039   6.106  18.207  0.4403  0.3632  0.0264
 2237PEP     CB85800  20.886   5.815  17.893 -0.1834 -0.2686 -0.3434
 2238PEP     CB85801  19.225  15.358   5.770 -0.0383  0.1040 -0.3553
 2238PEP     CB85802  19.045  15.203   6.164 -0.2133  0.0205 -0.4175
 2238PEP     CB85803  19.042  14.929   6.555 -0.2111 -0.0534 -0.1444
 2238PEP     CB85804  19.133  14.649   6.804 -0.4025  0.0045 -0.1366
 2238PEP     CB85805  18.873  14.485   6.974 -0.1117 -0.1287  0.1011
 2238PEP     CB85806  18.491  14.348   6.857 -0.3886  0.2304  0.1590
 2238PEP     CB85807  18.132  14.376   6.523 -0.1959  0.2148  0.1990
 2238PEP     CB85808  18.110  14.586   6.135  0.1442  0.0993  0.0380
 2238PEP     CB85809  18.275  14.893   5.729  0.2042  0.5250 -0.1289
 2238PEP     CB85810  18.227  15.108   5.301 -0.3272 -0.2521  0.1708
 2238PEP     CB85811  18.383  15.145   4.857  0.0095  0.1436  0.1714
 2238PEP     CB85812  18.063  15.143   4.484 -0.0641  0.0053 -0.2141
 2238PEP     CB85813  17.769  14.788   4.521 -0.2506 -0.1483 -0.0273
 2238PEP     CB85814  17.875  14.277   4.457 -0.3315 -0.2161  0.0149
 2238PEP     CB85815  18.218  14.081   4.320  0.2456 -0.1613  0.2139
 2238PEP     CB85816  18.576  14.248   4.033 -0.5849  0.0314 -0.3839
 2238PEP     CB85817  18.566  14.748   3.885 -0.0763 -0.3261  0.0530
 2238PEP     CB85818  18.413  15.186   4.035 -0.2251  0.3269 -0.2110
 2238PEP     CB85819  18.445  15.496   4.383 -0.3101 -0.3619  0.0334
 2238PEP     CB85820  18.227  15.651   4.742 -0.0890  0.1713  0.1030
 2238PEP     CB85821  17.908  15.394   4.942  0.0200 -0.2327 -0.0037
 2238PEP     CB85822  17.913  14.935   4.982  0.1280 -0.1738 -0.3066
 2238PEP     CB85823  18.135  14.606   5.063  0.0650 -0.3511  0.1426
 2238PEP     CB85824  18.289  14.275   5.368  0.2011 -0.2960  0.0402
 2238PEP     CB85825  18.182  14.199   5.850  0.1799 -0.2577 -0.0624
 2238PEP     CB85826  17.918  14.055   6.148  0.3057  0.1824 -0.0939
 2238PEP     CB85827  17.655  14.113   6.499  0.0748 -0.3372  0.1980
 2238PEP     CB85828  17.471  14.191   6.838  0.4675 -0.0940 -0.3305
 2238PEP     CB85829  17.370  14.128   7.263  0.2477  0.0010  0.0291
 2238PEP     CB85830  17.155  14.203   7.669  0.5591 -0.2612  0.0432
 2238PEP     CB85831  16.647  14.244   7.828  0.1357  0.0564 -0.0313
 2238PEP     CB85832  16.277  14.144   8.082 -0.3727  0.2540  0.3547
 2238PEP     CB85833  16.119  13.874   8.425  0.4090  0.0685 -0.4555
 2238PEP     CB85834  15.911  13.708   8.762 -0.2728 -0.0147 -0.0338
 2238PEP     CB85835  15.652  13.923   9.166 -0.0527  0.1423  0.0618
 2238PEP     CB85836  15.740  14.219   9.628  0.2546  0.3354 -0.1820
 2238PEP     CB85837  15.713  14.478  10.035  0.1334  0.1230  0.1406
 2238PEP     CB85838  15.559  14.773  10.390  0.2101  0.0107 -0.2372
 2238PEP     CB85839  15.196  14.915  10.700  0.0493  0.3665 -0.3322
 2238PEP     CB85840  15.123  14.878  11.029 -0.3687  0.4131 -0.4021
 2239PEP     CB85841  16.642   2.203   7.235  0.0476  0.0838  0.3973
 2239PEP     CB85842  17.106   2.241   7.362 -0.0902  0.3623  0.3818
 2239PEP     CB85843  17.418   2.146   7.691 -0.1644  0.3872  0.3901
 2239PEP     CB85844  17.732   2.530   7.741 -0.1432 -0.1117  0.1939
 2239PEP     CB85845  17.698   2.896   7.499  0.1020  0.3181 -0.2836
 2239PEP     CB85846  17.865   3.343   7.623 -0.3619  0.0611  0.0236
 2239PEP     CB85847  18.138   3.317   8.066  0.2147  0.1655  0.2545
 2239PEP     CB85848  18.230   3.025   8.461  0.0680  0.2007  0.0401
 2239PEP     CB85849  18.251   3.041   8.915 -0.0761 -0.4348  0.0688
 2239PEP     CB85850  18.241   2.944   9.313 -0.1497  0.1596 -0.0524
 2239PEP     CB85851  17.935   2.748   9.660 -0.0356  0.0352 -0.5761
 2239PEP     CB85852  18.029   2.677  10.025  0.0855 -0.2564  0.1859
 2239PEP     CB85853  18.189   2.774  10.400 -0.1171  0.2571 -0.3128
 2239PEP     CB85854  18.262   3.108  10.574 -0.0429  0.3296 -0.2436
 2239PEP     CB85855  18.250   3.542  10.837 -0.2236 -0.2408  0.0571
 2239PEP     CB85856  18.703   3.720  10.905 -0.3529 -0.2566  0.0731
 2239PEP     CB85857  19.194   3.775  10.894  0.1431 -0.2117 -0.0234
 2239PEP     CB85858  19.635   3.867  11.038 -0.0272 -0.0536  0.0276
 2239PEP     CB85859  20.026   3.769  10.936 -0.3654 -0.3277 -0.0070
 2239PEP     CB85860  20.333   3.516  10.765  0.0087 -0.4230  0.5087
 2239PEP     CB85861  20.450   3.095  10.598 -0.0259  0.4051  0.1663
 2239PEP     CB85862  20.737   2.749  10.514 -0.1022 -0.1798 -0.3022
 2239PEP     CB85863  21.095   2.495  10.536  0.1959 -0.2259 -0.1441
 2239PEP     CB85864  21.426   2.231  10.470 -0.1978 -0.3788  0.2721
 2239PEP     CB85865  21.669   2.115  10.079  0.1692 -0.0030  0.1070
 2239PEP     CB85866  22.074   2.359  10.005 -0.2976 -0.2344 -0.1074
 2239PEP     CB85867  22.137   2.768  10.156 -0.2250 -0.1412 -0.0205
 2239PEP     CB85868  22.158   2.809  10.582  0.4437  0.2914  0.1202
 2239PEP     CB85869  22.006   2.672  10.976 -0.0205 -0.1948 -0.2838
 2239PEP     CB85870  21.732   2.950  11.290 -0.0671  0.0062 -0.1206
 2239PEP     CB85871  21.519   3.353  11.141 -0.2861 -0.0385  0.3717
 2239PEP     CB85872  21.719   3.468  10.801 -0.0191 -0.2311 -0.0125
 2239PEP     CB85873  22.199   3.396  10.867 -0.3681 -0.3220 -0.2022
 2239PEP     CB85874  22.369   3.403  11.259  0.1553  0.1933  0.2625
 2239PEP     CB85875  22.449   3.553  11.676 -0.1660 -0.2696 -0.2127
 2239PEP     CB85876  22.762   3.635  11.962 -0.0975  0.0446 -0.4442
 2239PEP     CB85877  23.281   3.678  12.045 -0.0313 -0.0528 -0.2471
 2239PEP     CB85878  23.808   3.495  12.203 -0.0281 -0.0690  0.3112
 2239PEP     CB85879  24.241   3.275  12.239  0.0088 -0.0359 -0.0232
 2239PEP     CB85880  24.502   2.833  12.278  0.2466 -0.1141  0.1343
 2240PEP     CB85881  19.757  20.230  13.552 -0.0901  0.0603  0.3104
 2240PEP     CB85882  19.798  19.844  13.772 -0.0341 -0.3018  0.2932
 2240PEP     CB85883  19.988  19.512  13.984  0.0346 -0.0834 -0.3432
 2240PEP     CB85884  20.090  19.202  14.257  0.0238  0.0802  0.1323
 2240PEP     CB85885  20.278  19.034  14.593  0.2681 -0.0794 -0.1434
 2240PEP     CB85886  20.280  18.934  15.110  0.2118  0.0005  0.0024
 2240PEP     CB85887  19.892  18.950  15.363 -0.1415 -0.0222  0.0041
 2240PEP     CB85888  19.509  18.999  15.299 -0.0295  0.4748  0.0915
 2240PEP     CB85889  19.216  19.206  15.444  0.4640  0.2248 -0.0677
 2240PEP     CB85890  19.211  19.641  15.648 -0.1185  0.0571  0.3580
 2240PEP     CB85891  19.565  19.795  15.816 -0.0139 -0.0628  0.2240
 2240PEP     CB85892  20.099  19.729  15.857  0.1165 -0.0990 -0.0096
 2240PEP     CB85893  20.543  19.539  15.943  0.1452 -0.1664  0.2309
 2240PEP     CB85894  20.834  19.249  15.756  0.0052  0.1499  0.0661
 2240PEP     CB85895  21.075  19.077  15.402  0.0864  0.1811  0.3882
 2240PEP     CB85896  21.201  18.875  14.915 -0.0622 -0.0648  0.0483
 2240PEP     CB85897  21.460  18.936  14.596 -0.1691 -0.1415  0.1933
 2240PEP     CB85898  21.791  19.101  14.293  0.2306 -0.1884 -0.3129
 2240PEP     CB85899  21.753  19.328  13.980 -0.1638 -0.5913  0.0900
 2240PEP     CB85900  21.775  19.616  13.791 -0.6336 -0.0308  0.0134
 2240PEP     CB85901  21.719  20.070  13.609 -0.1825 -0.4100  0.3784
 2240PEP     CB85902  21.453  20.505  13.748  0.2272 -0.7043 -0.1650
 2240PEP     CB85903  21.097  20.501  14.112  0.2954  0.1157 -0.3946
 2240PEP     CB85904  21.207  20.217  14.490  0.2443 -0.1410  0.1606
 2240PEP     CB85905  21.028  19.823  14.539 -0.1521  0.1099 -0.3543
 2240PEP     CB85906  20.908  19.517  14.315 -0.5351  0.0146  0.1530
 2240PEP     CB85907  20.611  19.176  14.236  0.3835 -0.1368 -0.0158
 2240PEP     CB85908  20.403  18.819  14.159  0.0764 -0.0802  0.0271
 2240PEP     CB85909  20.079  18.435  14.178 -0.0429 -0.5688  0.1528
 2240PEP     CB85910  19.721  18.231  14.041  0.1935 -0.2583 -0.3114
 2240PEP     CB85911  19.337  18.104  13.719  0.4626 -0.2212 -0.1917
 2240PEP     CB85912  19.261  17.723  13.513  0.1833  0.1354 -0.3034
 2240PEP     CB85913  19.530  17.370  13.448  0.1149 -0.0792  0.4449
 2240PEP     CB85914  19.972  17.196  13.556  0.1063  0.0178 -0.3330
 2240PEP     CB85915  20.103  17.312  13.927  0.1483  0.0152 -0.0797
 2240PEP     CB85916  19.803  17.380  14.203 -0.0377  0.0629 -0.0182
 2240PEP     CB85917  19.490  17.599  14.480 -0.0749 -0.0203 -0.3565
 2240PEP     CB85918  19.341  17.992  14.754 -0.2525 -0.2020 -0.2111
 2240PEP     CB85919  19.409  18.321  15.018  0.4193 -0.0530 -0.3893
 2240PEP     CB85920  19.561  18.518  15.409  0.4011 -0.1532 -0.1171
 2241PEP     CB85921  12.017  13.407  18.761 -0.0171 -0.1401 -0.1379
 2241PEP     CB85922  11.940  13.062  18.831  0.0308 -0.2769  0.2527
 2241PEP     CB85923  11.609  12.791  18.695  0.2182  0.0339  0.2501
 2241PEP     CB85924  11.408  12.541  18.350  0.0182  0.0044  0.1414
 2241PEP     CB85925  11.183  12.462  18.029 -0.0119 -0.0021 -0.0347
 2241PEP     CB85926  10.750  12.675  17.955  0.2214 -0.0861 -0.2309
 2241PEP     CB85927  10.584  13.007  18.204 -0.2855 -0.1124 -0.4067
 2241PEP     CB85928  10.278  13.156  18.368  0.1149 -0.5315 -0.2555
 2241PEP     CB85929   9.832  12.980  18.396  0.1843 -0.1281  0.0658
 2241PEP     CB85930   9.435  12.941  18.211 -0.0980 -0.1215 -0.0522
 2241PEP     CB85931   9.142  12.695  18.001  0.1058  0.0195  0.2570
 2241PEP     CB85932   9.026  12.331  17.699 -0.1858  0.1271 -0.2049
 2241PEP     CB85933   8.968  11.879  17.591 -0.0884  0.0323 -0.1857
 2241PEP     CB85934   9.194  11.475  17.401 -0.1629  0.0731 -0.2365
 2241PEP     CB85935   9.635  11.514  17.184  0.0122 -0.2515  0.0700
 2241PEP     CB85936   9.858  11.747  17.333  0.4202  0.2647 -0.2162
 2241PEP     CB85937   9.905  12.003  17.723 -0.1417  0.1151 -0.2063
 2241PEP     CB85938   9.826  12.393  17.899 -0.3498  0.2595 -0.0453
 2241PEP     CB85939   9.950  12.787  17.917 -0.2194 -0.2394 -0.1148
 2241PEP     CB85940  10.333  13.040  17.769 -0.0032 -0.0862 -0.2138
 2241PEP     CB85941  10.468  13.360  17.336  0.0217  0.0448 -0.2165
 2241PEP     CB85942  10.375  13.271  16.917  0.0347 -0.0370  0.0432
 2241PEP     CB85943  10.619  12.913  16.857  0.2447  0.0908  0.1330
 2241PEP     CB85944  10.938  12.611  17.006 -0.0443  0.1753  0.3445
 2241PEP     CB85945  11.364  12.698  17.055  0.1359  0.0363 -0.0710
 2241PEP     CB85946  11.783  12.760  16.806 -0.1059  0.0213 -0.1885
 2241PEP     CB85947  12.238  12.853  16.742 -0.1828  0.4164 -0.4355
 2241PEP     CB85948  12.581  13.058  16.763 -0.1561 -0.2779  0.0160
 2241PEP     CB85949  12.525  13.488  16.927  0.0404  0.2778 -0.2516
 2241PEP     CB85950  12.217  13.640  17.239 -0.2825 -0.0917 -0.0762
 2241PEP     CB85951  12.018  13.411  17.580  0.0808 -0.0793 -0.2161
 2241PEP     CB85952  11.624  13.225  17.786  0.1574  0.1763 -0.0633
 2241PEP     CB85953  11.265  13.037  17.953  0.0426 -0.1000 -0.3246
 2241PEP     CB85954  11.057  12.916  18.318  0.0955  0.0965  0.0235
 2241PEP     CB85955  11.108  12.691  18.723  0.1135 -0.0891 -0.1392
 2241PEP     CB85956  11.416  12.342  18.826  0.0560  0.1149  0.4753
 2241PEP     CB85957  11.512  11.910  18.810 -0.0662 -0.0526 -0.3030
 2241PEP     CB85958  11.504  11.521  18.621  0.3396  0.2515  0.0225
 2241PEP     CB85959  11.370  11.147  18.300  0.0100  0.0531  0.6133
 2241PEP     CB85960  11.287  10.753  18.266 -0.4048  0.5435 -0.2498
 2242PEP     CB85961  10.061  21.281   3.481 -0.0098 -0.3351 -0.0864
 2242PEP     CB85962   9.684  21.422   3.642 -0.0340 -0.0366 -0.1149
 2242PEP     CB85963   9.488  21.759   3.627  0.2496 -0.3116 -0.1980
 2242PEP     CB85964   9.642  22.117   3.326  0.0462  0.0367  0.1952
 2242PEP     CB85965   9.870  22.109   2.909  0.0118  0.2386 -0.0342
 2242PEP     CB85966  10.296  21.974   2.717  0.2168  0.0335 -0.1523
 2242PEP     CB85967  10.760  22.043   2.868 -0.1899  0.5364  0.0812
 2242PEP     CB85968  11.160  21.938   3.012  0.0036  0.2142 -0.1662
 2242PEP     CB85969  11.315  21.925   3.383 -0.0697  0.0215 -0.2830
 2242PEP     CB85970  11.195  21.765   3.788 -0.0467  0.1194  0.0807
 2242PEP     CB85971  10.714  21.756   3.943  0.1927 -0.5122 -0.1435
 2242PEP     CB85972  10.475  22.071   3.858 -0.2193 -0.0364  0.2611
 2242PEP     CB85973  10.144  22.407   3.678  0.1506  0.1615  0.0068
 2242PEP     CB85974   9.744  22.532   3.534  0.0571 -0.4963 -0.1046
 2242PEP     CB85975   9.348  22.729   3.702  0.3435 -0.0642 -0.2608
 2242PEP     CB85976   9.338  23.119   3.965 -0.2606 -0.0445  0.0749
 2242PEP     CB85977   9.689  23.410   3.929 -0.0645 -0.3417  0.0425
 2242PEP     CB85978  10.058  23.430   3.773 -0.1428  0.1633  0.0831
 2242PEP     CB85979  10.332  23.672   3.510  0.1956  0.0726  0.0167
 2242PEP     CB85980  10.408  24.108   3.323 -0.1372 -0.1374 -0.4634
 2242PEP     CB85981  10.045  24.434   3.260  0.0232  0.3441 -0.1680
 2242PEP     CB85982   9.593  24.584   3.323  0.1356  0.1993 -0.0840
 2242PEP     CB85983   9.339  24.780   3.635  0.2488 -0.0150 -0.1268
 2242PEP     CB85984   9.067  25.002   3.629  0.1219 -0.0526  0.3977
 2242PEP     CB85985   8.626  25.187   3.800  0.1122 -0.0822  0.0856
 2242PEP     CB85986   8.355  25.335   4.085  0.2841 -0.0277 -0.1498
 2242PEP     CB85987   8.403  25.608   4.378  0.1361 -0.1776  0.1002
 2242PEP     CB85988   8.714  25.654   4.655 -0.0373 -0.1043 -0.0406
 2242PEP     CB85989   8.987  25.353   4.959 -0.1265 -0.0483 -0.1689
 2242PEP     CB85990   9.402  25.271   4.952  0.1164  0.0683  0.0761
 2242PEP     CB85991   9.657  25.262   4.545  0.2062 -0.1962  0.0114
 2242PEP     CB85992   9.753  25.540   4.308  0.4237 -0.2086  0.1671
 2242PEP     CB85993   9.863  26.001   4.335  0.1624  0.1611 -0.0531
 2242PEP     CB85994   9.909  26.481   4.339 -0.0214  0.3014  0.2104
 2242PEP     CB85995   9.622  26.915   4.111 -0.1677 -0.0543 -0.2930
 2242PEP     CB85996   9.375  27.133   3.755 -0.0119 -0.0023 -0.3987
 2242PEP     CB85997   9.101  27.140   3.426 -0.4762  0.1905  0.1525
 2242PEP     CB85998   8.951  26.975   3.058 -0.3358  0.1429 -0.2588
 2242PEP     CB85999   8.679  26.961   2.706 -0.1796 -0.2435  0.0832
 2242PEP     CB86000   8.506  27.306   2.457 -0.2655 -0.1130 -0.2012
 2243PEP     CB86001  11.521   4.622  14.830  0.2064  0.1886 -0.0247
 2243PEP     CB86002  11.971   4.633  14.666 -0.1303  0.0189 -0.2500
 2243PEP     CB86003  12.313   4.723  14.441  0.3426  0.0492  0.3728
 2243PEP     CB86004  12.730   4.510  14.318 -0.3142 -0.1206  0.1615
 2243PEP     CB86005  12.895   4.061  14.267 -0.0857 -0.0799  0.1357
 2243PEP     CB86006  13.085   3.681  14.286 -0.0548  0.5990 -0.0684
 2243PEP     CB86007  13.486   3.414  14.431 -0.0977 -0.5241  0.1641
 2243PEP     CB86008  13.984   3.480  14.445 -0.0859 -0.3482  0.0360
 2243PEP     CB86009  14.346   3.446  14.265 -0.2353  0.4661  0.3347
 2243PEP     CB86010  14.441   3.299  13.786  0.1259  0.0372  0.1464
 2243PEP     CB86011  14.465   3.001  13.405  0.1942  0.4445  0.1055
 2243PEP     CB86012  14.182   2.714  13.204  0.0495  0.0930 -0.1213
 2243PEP     CB86013  14.286   2.322  12.948 -0.0195  0.3689 -0.1023
 2243PEP     CB86014  14.552   1.999  12.753  0.1045  0.0496  0.2095
 2243PEP     CB86015  14.945   1.996  12.451 -0.1606 -0.1278 -0.1618
 2243PEP     CB86016  15.165   2.304  12.162  0.1135  0.1023 -0.1101
 2243PEP     CB86017  15.130   2.759  12.245 -0.1534  0.1331 -0.0952
 2243PEP     CB86018  14.921   2.922  12.661  0.1843 -0.1404 -0.3245
 2243PEP     CB86019  14.491   2.900  12.837  0.4319 -0.0384  0.2819
 2243PEP     CB86020  14.084   2.970  12.639  0.0088  0.2130  0.0421
 2243PEP     CB86021  13.729   3.140  12.465  0.1019 -0.5389 -0.1631
 2243PEP     CB86022  13.425   2.889  12.146  0.3373 -0.2936 -0.2214
 2243PEP     CB86023  13.369   2.480  12.203 -0.2415  0.1434 -0.1123
 2243PEP     CB86024  13.698   2.187  12.319  0.0993  0.3888 -0.1850
 2243PEP     CB86025  13.842   1.799  12.134  0.0662 -0.0617  0.2625
 2243PEP     CB86026  13.705   1.419  12.135 -0.2769 -0.1588  0.0091
 2243PEP     CB86027  13.767   0.984  12.152  0.1188  0.1183 -0.0984
 2243PEP     CB86028  14.131   0.782  12.349  0.0655 -0.2028 -0.2721
 2243PEP     CB86029  14.524   0.993  12.286 -0.1871  0.1485  0.2840
 2243PEP     CB86030  14.583   1.341  12.050  0.1766  0.0304 -0.0253
 2243PEP     CB86031  14.265   1.596  11.785  0.1907 -0.0002  0.2968
 2243PEP     CB86032  14.070   1.717  11.404  0.1220 -0.1691  0.0138
 2243PEP     CB86033  13.827   1.744  11.051 -0.1165 -0.2749 -0.3584
 2243PEP     CB86034  13.595   1.901  10.680  0.0509  0.3876  0.1460
 2243PEP     CB86035  13.484   1.890  10.237 -0.1277 -0.3556 -0.0129
 2243PEP     CB86036  13.613   2.022   9.853 -0.0742  0.2948  0.2728
 2243PEP     CB86037  13.979   2.283   9.755  0.0850 -0.0142 -0.0114
 2243PEP     CB86038  14.452   2.299   9.922 -0.1941 -0.5984 -0.0171
 2243PEP     CB86039  14.843   2.242   9.972  0.7852  0.2545  0.7626
 2243PEP     CB86040  15.214   2.364  10.118 -0.1877 -0.1450 -0.3548
 2244PEP     CB86041  10.646   3.711   5.295  0.0107 -0.0461  0.2469
 2244PEP     CB86042  10.845   4.022   5.629  0.0326  0.0209 -0.0889
 2244PEP     CB86043  10.711   4.293   5.983 -0.2887  0.1621 -0.1101
 2244PEP     CB86044  10.425   4.473   6.189 -0.1976 -0.0139 -0.0362
 2244PEP     CB86045  10.112   4.772   6.192 -0.3233  0.3968 -0.3097
 2244PEP     CB86046   9.762   4.947   6.354  0.1637 -0.1012  0.0836
 2244PEP     CB86047   9.415   5.219   6.308  0.0999  0.2931  0.1104
 2244PEP     CB86048   9.044   5.211   6.480 -0.1435 -0.0842 -0.0377
 2244PEP     CB86049   8.704   5.293   6.734 -0.1196 -0.1153  0.0718
 2244PEP     CB86050   8.460   5.265   6.977 -0.1238 -0.0178  0.2869
 2244PEP     CB86051   8.007   5.346   6.880  0.1393 -0.0926  0.0595
 2244PEP     CB86052   7.669   5.602   6.680  0.2196  0.5773  0.1065
 2244PEP     CB86053   7.299   5.476   6.534 -0.0069 -0.0680 -0.1162
 2244PEP     CB86054   7.129   5.022   6.534  0.4264  0.1485 -0.0025
 2244PEP     CB86055   7.123   4.659   6.843 -0.1398 -0.0064  0.1652
 2244PEP     CB86056   7.058   4.738   7.268  0.1693 -0.0158  0.2522
 2244PEP     CB86057   6.735   5.054   7.463  0.0321  0.1791  0.1522
 2244PEP     CB86058   6.422   5.101   7.648  0.1141 -0.1157 -0.0050
 2244PEP     CB86059   6.305   4.926   8.027 -0.0940 -0.1194 -0.0723
 2244PEP     CB86060   6.646   4.646   8.285 -0.1519 -0.3239  0.3824
 2244PEP     CB86061   7.180   4.707   8.344  0.0275 -0.0602 -0.0427
 2244PEP     CB86062   7.660   4.764   8.478  0.1875  0.0728  0.1370
 2244PEP     CB86063   8.085   4.811   8.289  0.1682 -0.1605  0.0725
 2244PEP     CB86064   8.384   4.753   7.940  0.1941 -0.2639  0.0245
 2244PEP     CB86065   8.619   5.023   7.660  0.3013  0.1702 -0.4883
 2244PEP     CB86066   8.709   4.917   7.210  0.0317 -0.0627 -0.1734
 2244PEP     CB86067   8.394   4.676   6.992 -0.1897  0.2184 -0.2899
 2244PEP     CB86068   7.913   4.770   7.007 -0.1512 -0.1680  0.0609
 2244PEP     CB86069   7.610   5.037   6.758 -0.2614 -0.0207  0.0596
 2244PEP     CB86070   7.501   5.109   6.280 -0.1850  0.2259  0.0340
 2244PEP     CB86071   7.365   5.056   5.798  0.0752  0.3361 -0.1688
 2244PEP     CB86072   7.408   5.218   5.439 -0.0886  0.1719  0.2091
 2244PEP     CB86073   7.731   5.484   5.185 -0.3059  0.4447 -0.2088
 2244PEP     CB86074   8.126   5.437   4.894  0.1563 -0.1110  0.1362
 2244PEP     CB86075   8.435   5.180   4.895  0.0248  0.0145  0.0302
 2244PEP     CB86076   8.571   4.814   5.180  0.1068 -0.3204 -0.0271
 2244PEP     CB86077   8.669   4.809   5.594  0.1264  0.0655  0.1304
 2244PEP     CB86078   8.541   4.791   6.013  0.1599 -0.1858 -0.2354
 2244PEP     CB86079   8.408   4.415   6.202  0.1810  0.2509 -0.1071
 2244PEP     CB86080   8.323   3.986   5.999  0.0198  0.1524  0.0662
 2245PEP     CB86081   4.550  11.123  15.482  0.0864  0.2507 -0.0783
 2245PEP     CB86082   4.585  10.971  15.022  0.4337 -0.3876 -0.1233
 2245PEP     CB86083   4.438  10.995  14.552 -0.2631  0.2816  0.1495
 2245PEP     CB86084   4.360  10.770  14.182 -0.1795 -0.0338  0.0032
 2245PEP     CB86085   4.339  10.593  13.800 -0.1714  0.1965 -0.1311
 2245PEP     CB86086   4.641  10.321  13.627  0.0340  0.2942  0.0401
 2245PEP     CB86087   4.974  10.190  13.901 -0.5948  0.0111  0.1321
 2245PEP     CB86088   4.971  10.097  14.402  0.3022 -0.3416  0.1559
 2245PEP     CB86089   4.898   9.974  14.857 -0.0827  0.0726 -0.1733
 2245PEP     CB86090   4.527  10.160  15.141  0.2997 -0.1480  0.1351
 2245PEP     CB86091   4.057  10.193  15.145 -0.2165 -0.1913  0.2261
 2245PEP     CB86092   3.632  10.125  15.275 -0.3033 -0.0448 -0.5250
 2245PEP     CB86093   3.249  10.097  15.134  0.0006 -0.0861 -0.0436
 2245PEP     CB86094   2.883  10.141  15.299  0.2925 -0.4503 -0.3699
 2245PEP     CB86095   2.561  10.082  15.624  0.0661 -0.0271  0.2223
 2245PEP     CB86096   2.720  10.098  15.984  0.0413  0.0363 -0.1869
 2245PEP     CB86097   3.097   9.975  16.246  0.4060  0.1950 -0.2008
 2245PEP     CB86098   3.508   9.992  16.136  0.1143  0.2352  0.0174
 2245PEP     CB86099   3.632   9.803  15.717  0.2938  0.4873  0.3058
 2245PEP     CB86100   3.373   9.687  15.452  0.1487 -0.2955  0.2543
 2245PEP     CB86101   3.008   9.660  15.156  0.3935 -0.0885 -0.2295
 2245PEP     CB86102   2.518   9.730  15.099  0.1451  0.2662 -0.0338
 2245PEP     CB86103   2.057   9.770  15.314 -0.0135 -0.0158 -0.2148
 2245PEP     CB86104   1.696   9.614  15.660 -0.0983 -0.0969 -0.2291
 2245PEP     CB86105   1.673   9.810  16.098  0.0427 -0.2260 -0.1055
 2245PEP     CB86106   1.785  10.108  16.373  0.3001 -0.4267  0.1509
 2245PEP     CB86107   1.790  10.531  16.446  0.7087 -0.2698 -0.0776
 2245PEP     CB86108   1.812  10.915  16.122 -0.0344 -0.3699  0.0153
 2245PEP     CB86109   1.867  11.253  15.897 -0.2564  0.2433 -0.1489
 2245PEP     CB86110   1.695  11.624  15.841  0.2234 -0.5571 -0.2034
 2245PEP     CB86111   1.711  12.109  15.774  0.0028 -0.3882 -0.1678
 2245PEP     CB86112   1.528  12.522  15.954 -0.0730 -0.0341  0.2513
 2245PEP     CB86113   1.277  12.933  16.036  0.0586 -0.1737  0.3578
 2245PEP     CB86114   1.137  13.324  16.284 -0.4608 -0.0653  0.0965
 2245PEP     CB86115   0.976  13.587  16.518 -0.5050 -0.2236  0.3184
 2245PEP     CB86116   0.815  13.935  16.395 -0.1082 -0.1547 -0.2089
 2245PEP     CB86117   0.376  14.087  16.277  0.2798 -0.2351 -0.1675
 2245PEP     CB86118  -0.068  14.140  16.198  0.6890 -0.4982 -0.2558
 2245PEP     CB86119  -0.493  14.243  16.418 -0.1458 -0.1127  0.2147
 2245PEP     CB86120  -0.756  14.500  16.711  0.2130 -0.0396  0.2049
 2246PEP     CB86121   4.372   4.866   4.522  0.2249 -0.0706  0.3361
 2246PEP     CB86122   4.283   4.852   4.954  0.1233  0.0490  0.1657
 2246PEP     CB86123   4.054   4.815   5.377 -0.2874  0.2795 -0.6289
 2246PEP     CB86124   3.906   4.561   5.717  0.0135  0.2068  0.3399
 2246PEP     CB86125   3.795   4.320   6.026  0.0633  0.0206  0.0160
 2246PEP     CB86126   3.382   4.270   6.295 -0.1836  0.0891 -0.1844
 2246PEP     CB86127   3.057   4.133   6.545  0.3581 -0.2055 -0.2816
 2246PEP     CB86128   2.967   3.664   6.501 -0.4584  0.1112 -0.0523
 2246PEP     CB86129   3.065   3.234   6.303  0.2298 -0.3742 -0.1303
 2246PEP     CB86130   3.410   3.143   6.093 -0.4935  0.1681 -0.1334
 2246PEP     CB86131   3.714   3.340   5.764  0.1045  0.0897 -0.3482
 2246PEP     CB86132   4.028   3.525   5.793  0.2177 -0.4564  0.3567
 2246PEP     CB86133   4.308   3.552   6.152  0.0533 -0.0584 -0.3036
 2246PEP     CB86134   4.398   3.763   6.571  0.1593  0.0155  0.0240
 2246PEP     CB86135   4.388   4.238   6.778  0.1692  0.2236  0.2104
 2246PEP     CB86136   4.314   4.594   6.888 -0.0289  0.1852  0.0815
 2246PEP     CB86137   4.110   4.904   6.772  0.0592  0.0906 -0.0395
 2246PEP     CB86138   4.068   5.355   6.636 -0.2237  0.1338  0.6496
 2246PEP     CB86139   3.942   5.698   6.315 -0.2861  0.2767 -0.3429
 2246PEP     CB86140   3.940   6.080   6.006 -0.0144 -0.0456 -0.0385
 2246PEP     CB86141   3.620   6.109   5.703  0.2173  0.1015  0.0636
 2246PEP     CB86142   3.484   5.828   5.365 -0.1358  0.4638  0.1245
 2246PEP     CB86143   3.421   5.906   4.891 -0.1316 -0.1192 -0.4206
 2246PEP     CB86144   3.103   6.035   4.617  0.3114 -0.0845 -0.1138
 2246PEP     CB86145   2.718   6.215   4.669  0.2183 -0.0357 -0.0713
 2246PEP     CB86146   2.263   6.401   4.710  0.3796 -0.1458 -0.2203
 2246PEP     CB86147   1.888   6.511   4.937 -0.2021 -0.0044  0.0733
 2246PEP     CB86148   1.622   6.466   5.262 -0.0234  0.1892  0.0140
 2246PEP     CB86149   1.273   6.522   5.461 -0.3586  0.2924 -0.0780
 2246PEP     CB86150   0.925   6.254   5.618  0.1265  0.1193 -0.0560
 2246PEP     CB86151   0.508   6.045   5.568  0.2787  0.4139 -0.0846
 2246PEP     CB86152   0.222   5.908   5.914 -0.3275  0.0243  0.2305
 2246PEP     CB86153   0.311   5.691   6.298  0.1702 -0.1348  0.1473
 2246PEP     CB86154   0.539   5.383   6.491 -0.2095 -0.1551 -0.0338
 2246PEP     CB86155   1.004   5.457   6.464  0.4187 -0.1995  0.3116
 2246PEP     CB86156   1.395   5.380   6.754  0.1185  0.3375  0.0090
 2246PEP     CB86157   1.765   5.131   6.828 -0.1207 -0.1182  0.0167
 2246PEP     CB86158   2.151   5.030   6.854 -0.0574  0.2568  0.0275
 2246PEP     CB86159   2.485   4.840   7.031  0.5145  0.3469  0.4296
 2246PEP     CB86160   2.619   4.482   7.355 -0.5797  0.2418 -0.1090
 2247PEP     CB86161   2.973   3.643   3.833  0.1834  0.0063 -0.1100
 2247PEP     CB86162   3.148   3.205   3.931 -0.2965  0.1683 -0.0899
 2247PEP     CB86163   3.581   2.898   3.896  0.1615  0.0889  0.0278
 2247PEP     CB86164   3.871   2.814   3.552  0.2098  0.1428 -0.3976
 2247PEP     CB86165   4.072   2.835   3.207 -0.2307 -0.3767 -0.2503
 2247PEP     CB86166   3.914   2.877   2.798 -0.1108 -0.0041 -0.3026
 2247PEP     CB86167   3.507   3.033   2.648 -0.1761  0.0230  0.1696
 2247PEP     CB86168   3.370   3.467   2.884  0.1895  0.2462  0.1626
 2247PEP     CB86169   3.770   3.660   3.010  0.2880  0.2741  0.0355
 2247PEP     CB86170   4.120   3.422   2.943  0.0198 -0.0113  0.2706
 2247PEP     CB86171   4.490   3.071   2.964  0.2794  0.1851  0.1804
 2247PEP     CB86172   4.686   2.662   3.061  0.0414 -0.1149  0.2842
 2247PEP     CB86173   5.139   2.550   2.910  0.0381  0.2879 -0.1970
 2247PEP     CB86174   5.467   2.623   2.603 -0.3209  0.0095  0.3481
 2247PEP     CB86175   5.819   2.902   2.788  0.3195  0.0492 -0.1225
 2247PEP     CB86176   5.962   3.237   2.965 -0.2827  0.1778 -0.0067
 2247PEP     CB86177   6.321   3.508   3.138 -0.1719 -0.4557  0.1454
 2247PEP     CB86178   6.738   3.668   3.116 -0.2398  0.0762 -0.2953
 2247PEP     CB86179   7.017   3.956   3.138 -0.1021 -0.0636  0.2346
 2247PEP     CB86180   7.306   4.273   3.026 -0.2095 -0.9031  0.0938
 2247PEP     CB86181   7.739   4.291   3.045  0.0096  0.0113 -0.0611
 2247PEP     CB86182   7.940   4.612   2.824  0.0022 -0.4175  0.1725
 2247PEP     CB86183   7.774   4.949   2.853 -0.3340  0.2358  0.2683
 2247PEP     CB86184   7.419   5.129   2.707 -0.1354 -0.1478  0.0573
 2247PEP     CB86185   7.004   5.089   2.585 -0.4036  0.0197 -0.0287
 2247PEP     CB86186   6.627   5.085   2.373 -0.1828  0.0163 -0.2174
 2247PEP     CB86187   6.230   5.116   2.106  0.0731  0.2723 -0.0870
 2247PEP     CB86188   5.796   5.229   2.173 -0.2060  0.0245  0.0540
 2247PEP     CB86189   5.379   5.415   2.332  0.3476 -0.1186  0.2203
 2247PEP     CB86190   5.134   5.444   2.676  0.2438 -0.1847  0.3990
 2247PEP     CB86191   4.825   5.510   3.058  0.1705 -0.0456  0.4504
 2247PEP     CB86192   4.534   5.741   3.269 -0.2609  0.1416  0.0274
 2247PEP     CB86193   4.278   5.929   3.526  0.0735  0.0984  0.1608
 2247PEP     CB86194   4.171   6.110   3.869  0.1637  0.1203  0.1684
 2247PEP     CB86195   3.917   6.040   4.241 -0.0951  0.2400  0.1019
 2247PEP     CB86196   3.576   6.080   4.354  0.0263  0.1575 -0.2870
 2247PEP     CB86197   3.175   6.198   4.132  0.1023 -0.1269  0.1949
 2247PEP     CB86198   3.064   6.351   3.721 -0.1703  0.5099  0.3615
 2247PEP     CB86199   3.241   6.224   3.325  0.1212 -0.2099  0.0262
 2247PEP     CB86200   3.579   6.262   2.945  0.2956  0.0396 -0.1100
 2248PEP     CB86201   2.929   2.255  15.848  0.4480 -0.0526  0.1404
 2248PEP     CB86202   3.331   2.229  15.611  0.2019 -0.1839  0.2117
 2248PEP     CB86203   3.720   2.132  15.624  0.1328 -0.2018 -0.1100
 2248PEP     CB86204   4.028   1.910  15.495  0.0606 -0.0867  0.1420
 2248PEP     CB86205   4.234   1.550  15.734 -0.2035  0.1340  0.2308
 2248PEP     CB86206   4.104   1.133  15.880 -0.3431  0.0567  0.0884
 2248PEP     CB86207   3.918   0.811  16.188 -0.1165 -0.2492  0.0507
 2248PEP     CB86208   3.763   0.714  16.623 -0.3197 -0.1455 -0.1571
 2248PEP     CB86209   3.591   0.534  17.022 -0.0804  0.1441  0.0181
 2248PEP     CB86210   3.411   0.244  17.316 -0.1388 -0.1504 -0.0780
 2248PEP     CB86211   3.325  -0.220  17.485  0.2573  0.0288 -0.1861
 2248PEP     CB86212   3.687  -0.518  17.431 -0.2376 -0.0697 -0.2129
 2248PEP     CB86213   4.109  -0.320  17.463  0.1780  0.1484  0.2354
 2248PEP     CB86214   4.317   0.038  17.698  0.0101 -0.1467 -0.4349
 2248PEP     CB86215   4.613   0.145  17.968  0.0013  0.0708  0.2664
 2248PEP     CB86216   5.008  -0.029  18.063  0.1158 -0.0464  0.0328
 2248PEP     CB86217   5.439  -0.112  18.096  0.0758 -0.2581  0.2073
 2248PEP     CB86218   5.857  -0.270  18.249  0.0385  0.1563  0.1569
 2248PEP     CB86219   6.291  -0.006  18.208  0.3009 -0.0138 -0.4170
 2248PEP     CB86220   6.298   0.459  18.449 -0.2144 -0.1958  0.0338
 2248PEP     CB86221   5.935   0.672  18.641  0.3331  0.2959 -0.1501
 2248PEP     CB86222   5.525   0.692  18.580 -0.0701 -0.0491 -0.2076
 2248PEP     CB86223   5.259   0.831  18.252  0.1047  0.1275  0.3727
 2248PEP     CB86224   5.374   0.916  17.809 -0.1478 -0.0620 -0.4040
 2248PEP     CB86225   5.576   0.856  17.408 -0.0769  0.2915 -0.1300
 2248PEP     CB86226   5.730   0.928  16.936 -0.0550  0.3763  0.8676
 2248PEP     CB86227   5.862   0.897  16.541 -0.3113 -0.5135  0.3544
 2248PEP     CB86228   5.838   0.716  16.185  0.0804  0.0984  0.1339
 2248PEP     CB86229   5.943   0.216  16.173 -0.2108  0.2410  0.1517
 2248PEP     CB86230   5.846  -0.089  16.455 -0.3094 -0.1099 -0.1630
 2248PEP     CB86231   5.769  -0.051  16.924 -0.1534 -0.2877 -0.5101
 2248PEP     CB86232   5.653  -0.160  17.370 -0.1493  0.0655  0.1896
 2248PEP     CB86233   5.482   0.188  17.645  0.2942  0.0312  0.4997
 2248PEP     CB86234   5.286   0.476  17.479  0.3568  0.0209 -0.3253
 2248PEP     CB86235   5.295   0.681  17.026 -0.0940 -0.1855  0.0478
 2248PEP     CB86236   5.284   1.072  16.847 -0.0128 -0.2619 -0.0979
 2248PEP     CB86237   5.480   1.432  16.902 -0.1530  0.2993 -0.1095
 2248PEP     CB86238   5.872   1.614  16.964  0.0514 -0.0654 -0.0456
 2248PEP     CB86239   5.956   2.197  16.931  0.1789  0.1028 -0.1392
 2248PEP     CB86240   5.728   2.560  16.674  0.2444  0.1101 -0.1339
 2249PEP     CB86241  12.579   5.612   6.051 -0.3155  0.3153 -0.2500
 2249PEP     CB86242  12.781   5.359   6.322 -0.0416 -0.1871 -0.2983
 2249PEP     CB86243  12.635   4.865   6.299  0.2547  0.4218  0.1091
 2249PEP     CB86244  12.326   4.696   5.943 -0.3506  0.0765  0.3358
 2249PEP     CB86245  12.140   4.833   5.498  0.0297 -0.1690 -0.0022
 2249PEP     CB86246  12.185   4.928   5.046 -0.2988  0.1216  0.4189
 2249PEP     CB86247  12.324   5.328   4.839  0.1040 -0.1273  0.3347
 2249PEP     CB86248  12.226   5.624   4.403  0.5076 -0.1871  0.1113
 2249PEP     CB86249  12.178   5.523   3.993 -0.1935 -0.3794  0.2517
 2249PEP     CB86250  12.436   5.370   3.500  0.2515  0.1356  0.0531
 2249PEP     CB86251  12.486   5.419   3.088  0.4434 -0.2232  0.1387
 2249PEP     CB86252  12.696   5.267   2.766 -0.1278 -0.0969  0.1503
 2249PEP     CB86253  12.940   4.895   2.752 -0.1376  0.2155 -0.4484
 2249PEP     CB86254  13.122   4.776   3.092 -0.1303  0.1063 -0.1321
 2249PEP     CB86255  13.308   4.677   3.495 -0.2786 -0.3586  0.3891
 2249PEP     CB86256  13.405   4.516   3.890  0.0278 -0.3160 -0.3324
 2249PEP     CB86257  13.193   4.533   4.332  0.0277  0.0639 -0.0495
 2249PEP     CB86258  13.316   4.448   4.734  0.0380  0.2504  0.0967
 2249PEP     CB86259  13.670   4.463   4.922 -0.1185  0.2850  0.5946
 2249PEP     CB86260  14.077   4.628   4.802  0.2439  0.2777  0.0830
 2249PEP     CB86261  14.314   5.005   4.785 -0.1709 -0.2613 -0.0536
 2249PEP     CB86262  14.344   5.317   5.017 -0.2088 -0.3316 -0.1374
 2249PEP     CB86263  14.085   5.627   5.264  0.2702 -0.1077  0.2018
 2249PEP     CB86264  13.895   5.963   5.022  0.2006  0.0218  0.2465
 2249PEP     CB86265  14.024   6.357   4.898  0.0115 -0.1429  0.1930
 2249PEP     CB86266  14.334   6.577   4.851 -0.2613  0.2909 -0.3864
 2249PEP     CB86267  14.686   6.604   4.694 -0.0509 -0.2509 -0.0834
 2249PEP     CB86268  15.085   6.746   4.432 -0.1284  0.0297 -0.2098
 2249PEP     CB86269  15.447   6.624   4.196 -0.5713 -0.0428 -0.0440
 2249PEP     CB86270  15.871   6.638   4.120  0.3719 -0.3478  0.0996
 2249PEP     CB86271  16.222   6.492   3.776 -0.0415  0.1340  0.0773
 2249PEP     CB86272  16.170   6.232   3.458  0.0888  0.2890  0.1002
 2249PEP     CB86273  15.947   5.886   3.202  0.0413  0.0210 -0.0994
 2249PEP     CB86274  15.581   5.607   3.154  0.1270  0.0625 -0.1268
 2249PEP     CB86275  15.147   5.402   3.130 -0.0502  0.3093 -0.4653
 2249PEP     CB86276  14.827   5.452   2.855 -0.1345 -0.2814 -0.0242
 2249PEP     CB86277  14.358   5.591   2.710 -0.3152 -0.3092 -0.0330
 2249PEP     CB86278  13.997   5.414   2.376 -0.2001 -0.1348 -0.0848
 2249PEP     CB86279  13.866   4.987   2.329  0.2108 -0.0496  0.3300
 2249PEP     CB86280  13.724   4.616   2.175  0.1519  0.3003 -0.0160
 2250PEP     CB86281   0.945   0.452   6.660  0.1368  0.1485  0.1101
 2250PEP     CB86282   1.063   0.399   6.259 -0.0677 -0.4821 -0.1454
 2250PEP     CB86283   1.083   0.588   5.846 -0.1260 -0.0220  0.0344
 2250PEP     CB86284   1.387   0.491   5.433 -0.5207 -0.0642 -0.0747
 2250PEP     CB86285   1.773   0.329   5.380  0.3562  0.2754 -0.2938
 2250PEP     CB86286   1.864  -0.057   5.581  0.0582  0.1669  0.4265
 2250PEP     CB86287   1.683  -0.482   5.698  0.1472  0.1995 -0.0567
 2250PEP     CB86288   1.688  -0.953   5.666  0.0520  0.0348 -0.0627
 2250PEP     CB86289   1.479  -1.350   5.675 -0.2487  0.0882  0.0851
 2250PEP     CB86290   1.198  -1.586   5.981  0.1920 -0.3075 -0.0989
 2250PEP     CB86291   0.933  -1.464   6.273 -0.1367 -0.0126 -0.2618
 2250PEP     CB86292   0.777  -1.095   6.415  0.0112 -0.2184  0.2286
 2250PEP     CB86293   0.387  -0.752   6.292 -0.2085 -0.0347 -0.3024
 2250PEP     CB86294   0.216  -0.654   5.861 -0.0807  0.0242 -0.2781
 2250PEP     CB86295  -0.010  -0.530   5.468 -0.0599  0.3856 -0.0697
 2250PEP     CB86296   0.110  -0.629   4.940 -0.0736  0.2963 -0.3730
 2250PEP     CB86297   0.447  -0.536   4.648 -0.2338  0.1268  0.0995
 2250PEP     CB86298   0.872  -0.596   4.577 -0.1174  0.0822  0.1648
 2250PEP     CB86299   1.327  -0.510   4.515  0.1178  0.0861  0.2433
 2250PEP     CB86300   1.584  -0.452   4.091 -0.0079  0.3394 -0.0430
 2250PEP     CB86301   1.750  -0.409   3.637 -0.2811 -0.0698  0.1908
 2250PEP     CB86302   2.129  -0.327   3.406  0.0032  0.2763  0.0829
 2250PEP     CB86303   2.324  -0.243   2.981  0.1961  0.3642 -0.1831
 2250PEP     CB86304   2.099   0.016   2.721 -0.0712 -0.2322  0.0925
 2250PEP     CB86305   1.639   0.037   2.671 -0.0787 -0.0433 -0.1861
 2250PEP     CB86306   1.222  -0.219   2.799  0.0001  0.0202 -0.1546
 2250PEP     CB86307   1.281  -0.543   3.001  0.3693  0.1804  0.3269
 2250PEP     CB86308   1.453  -0.677   3.344  0.0230  0.4286 -0.1489
 2250PEP     CB86309   1.413  -0.908   3.748 -0.0050 -0.2219 -0.2545
 2250PEP     CB86310   1.458  -0.935   4.193 -0.1226 -0.2811 -0.2115
 2250PEP     CB86311   1.070  -1.143   4.363 -0.2000  0.1448 -0.1542
 2250PEP     CB86312   1.041  -1.681   4.427 -0.4448 -0.2327  0.2280
 2250PEP     CB86313   1.427  -1.787   4.692  0.3909  0.0339  0.7157
 2250PEP     CB86314   1.550  -2.101   5.070 -0.1360 -0.1411  0.1330
 2250PEP     CB86315   1.725  -2.162   5.448 -0.0640  0.5204  0.0463
 2250PEP     CB86316   1.877  -2.379   5.763 -0.1570 -0.0288  0.0707
 2250PEP     CB86317   1.539  -2.785   5.739 -0.0277 -0.0477 -0.0346
 2250PEP     CB86318   1.154  -2.623   5.525  0.0452 -0.1810 -0.2212
 2250PEP     CB86319   1.157  -2.196   5.590 -0.5429 -0.1428  0.0243
 2250PEP     CB86320   1.437  -1.993   5.771 -0.0644 -0.2143  0.0659
 2251PEP     CB86321  14.760  21.054  12.364  0.1586  0.4857 -0.5904
 2251PEP     CB86322  15.220  21.188  12.276 -0.3022  0.5810 -0.1323
 2251PEP     CB86323  15.670  21.260  12.407  0.0503 -0.2179 -0.4188
 2251PEP     CB86324  15.988  21.512  12.605  0.2739  0.3679 -0.3960
 2251PEP     CB86325  15.943  22.012  12.729 -0.0841  0.0915 -0.1061
 2251PEP     CB86326  15.697  22.225  12.511  0.0553  0.1399 -0.2894
 2251PEP     CB86327  15.703  22.036  12.125 -0.0932  0.0122 -0.0154
 2251PEP     CB86328  16.038  21.886  11.818  0.2415  0.3483 -0.2817
 2251PEP     CB86329  16.508  21.656  11.801  0.0353  0.1479 -0.4110
 2251PEP     CB86330  16.710  21.300  11.704  0.1617 -0.3552  0.1811
 2251PEP     CB86331  16.742  20.861  11.653 -0.2244 -0.1651  0.1250
 2251PEP     CB86332  16.854  20.699  11.262  0.1402  0.3427  0.1011
 2251PEP     CB86333  16.909  21.025  10.899 -0.1971 -0.2115  0.0298
 2251PEP     CB86334  16.914  21.403  10.869  0.1662  0.1810 -0.1799
 2251PEP     CB86335  17.279  21.704  10.867  0.0471  0.1379 -0.4161
 2251PEP     CB86336  17.659  21.910  10.979 -0.2860 -0.3039  0.1798
 2251PEP     CB86337  18.084  22.012  10.826  0.0814  0.0962 -0.1074
 2251PEP     CB86338  18.184  22.335  10.491 -0.2011  0.2096 -0.2086
 2251PEP     CB86339  18.071  22.694  10.404 -0.0352 -0.0985 -0.0897
 2251PEP     CB86340  17.973  22.991  10.094 -0.1743  0.3293 -0.1492
 2251PEP     CB86341  17.820  23.102   9.726  0.5622  0.0496  0.2700
 2251PEP     CB86342  17.859  23.523   9.452  0.1093 -0.3819  0.0466
 2251PEP     CB86343  18.156  23.803   9.639  0.1045  0.1511  0.0725
 2251PEP     CB86344  18.534  23.842  10.016 -0.2369  0.1846  0.0794
 2251PEP     CB86345  18.965  23.664   9.973 -0.2056 -0.0044  0.5023
 2251PEP     CB86346  19.313  23.385  10.001  0.3209 -0.1637 -0.1188
 2251PEP     CB86347  19.723  23.390   9.887  0.1710  0.0117  0.1214
 2251PEP     CB86348  20.057  23.347   9.572  0.2524 -0.0072 -0.0566
 2251PEP     CB86349  20.396  23.146   9.318  0.1805  0.3393 -0.4393
 2251PEP     CB86350  20.798  22.839   9.323  0.3034  0.2572  0.2439
 2251PEP     CB86351  21.207  22.853   9.420  0.0601  0.1644  0.0385
 2251PEP     CB86352  21.548  22.943   9.148 -0.0421  0.2693 -0.0853
 2251PEP     CB86353  21.528  23.261   8.797 -0.4608 -0.1127  0.4169
 2251PEP     CB86354  21.142  23.505   8.657 -0.1115  0.0890 -0.2371
 2251PEP     CB86355  20.639  23.368   8.606  0.1183 -0.0478 -0.3029
 2251PEP     CB86356  20.550  23.027   8.814 -0.2340 -0.0403  0.2013
 2251PEP     CB86357  20.774  22.584   8.772  0.1719 -0.1157  0.2214
 2251PEP     CB86358  20.917  22.329   8.449 -0.2244  0.0481  0.3359
 2251PEP     CB86359  21.237  22.320   8.138  0.0091 -0.3261 -0.2256
 2251PEP     CB86360  21.673  22.105   8.034  0.2650  0.3319  0.3399
 2252PEP     CB86361  17.955   5.928   5.398  0.0888 -0.1919 -0.1055
 2252PEP     CB86362  18.210   5.972   5.082  0.0156  0.0852 -0.0610
 2252PEP     CB86363  18.252   5.903   4.705 -0.7007 -0.0206  0.0604
 2252PEP     CB86364  18.343   5.990   4.302 -0.0746  0.1917 -0.0591
 2252PEP     CB86365  18.399   6.239   3.974  0.0465 -0.3970 -0.2860
 2252PEP     CB86366  18.618   6.569   3.761  0.2679  0.1880  0.0384
 2252PEP     CB86367  18.734   7.020   3.821  0.4335  0.1556  0.1764
 2252PEP     CB86368  18.684   7.482   3.604 -0.2005 -0.0362 -0.1842
 2252PEP     CB86369  18.949   7.719   3.427 -0.2674  0.0374 -0.3411
 2252PEP     CB86370  19.339   7.715   3.297 -0.1296  0.2006  0.0888
 2252PEP     CB86371  19.693   7.816   2.974 -0.0702 -0.5204  0.2584
 2252PEP     CB86372  19.840   8.202   2.808 -0.1159 -0.0430  0.0602
 2252PEP     CB86373  19.785   8.613   2.795 -0.2877 -0.1148  0.0666
 2252PEP     CB86374  19.720   8.982   2.480  0.0842  0.1236 -0.6105
 2252PEP     CB86375  19.597   9.302   2.141  0.0328 -0.6875 -0.0806
 2252PEP     CB86376  19.704   9.169   1.616 -0.1269  0.3313  0.0050
 2252PEP     CB86377  19.758   8.829   1.350 -0.1654 -0.2897  0.0411
 2252PEP     CB86378  19.864   8.720   0.971  0.3613 -0.1345 -0.0444
 2252PEP     CB86379  20.205   8.819   0.684 -0.0596  0.3006 -0.1745
 2252PEP     CB86380  20.636   8.989   0.531  0.0788 -0.2000 -0.5329
 2252PEP     CB86381  21.004   9.198   0.430 -0.0265 -0.0907  0.0575
 2252PEP     CB86382  21.313   9.509   0.517 -0.3762  0.0245 -0.2093
 2252PEP     CB86383  21.440   9.663   0.845  0.3013 -0.1391  0.4061
 2252PEP     CB86384  21.609   9.340   1.251  0.0735 -0.2037  0.4627
 2252PEP     CB86385  21.752   8.959   1.319  0.1098 -0.0872 -0.2408
 2252PEP     CB86386  22.065   8.667   1.398 -0.1195  0.2532  0.1423
 2252PEP     CB86387  22.475   8.855   1.523 -0.0858 -0.0733 -0.4333
 2252PEP     CB86388  22.779   8.830   1.821  0.4133  0.0303  0.2727
 2252PEP     CB86389  22.948   8.595   2.066 -0.0384  0.0403 -0.2453
 2252PEP     CB86390  23.228   8.465   2.260  0.0433  0.1240  0.5427
 2252PEP     CB86391  23.418   8.277   2.624 -0.0347 -0.5700 -0.0102
 2252PEP     CB86392  23.287   8.166   3.032  0.3711  0.0346  0.0924
 2252PEP     CB86393  23.322   7.996   3.344  0.3141 -0.1095  0.0183
 2252PEP     CB86394  23.373   7.821   3.798 -0.0113 -0.0982 -0.1166
 2252PEP     CB86395  23.583   7.514   4.039  0.0616 -0.2643 -0.1401
 2252PEP     CB86396  23.700   7.385   4.484 -0.3549  0.2929  0.0853
 2252PEP     CB86397  23.891   7.469   4.818  0.1296 -0.0376 -0.0673
 2252PEP     CB86398  23.699   7.925   5.022  0.1421  0.0910 -0.3099
 2252PEP     CB86399  23.498   8.256   4.903 -0.1479  0.1689  0.2317
 2252PEP     CB86400  23.443   8.644   4.651  0.0894  0.2211 -0.1068
 2253PEP     CB86401   9.984   8.112  21.042  0.1056  0.1224  0.0406
 2253PEP     CB86402   9.872   7.820  20.699 -0.1009  0.0569 -0.0215
 2253PEP     CB86403   9.770   7.575  20.289  0.0897 -0.0285  0.1412
 2253PEP     CB86404   9.853   7.686  19.875  0.3583  0.1616 -0.3760
 2253PEP     CB86405   9.837   8.019  19.491  0.3049 -0.2175 -0.0938
 2253PEP     CB86406   9.972   8.071  19.074  0.4006  0.0757  0.1061
 2253PEP     CB86407   9.851   8.366  18.666 -0.1123  0.1794  0.1387
 2253PEP     CB86408   9.476   8.563  18.501 -0.0156 -0.0284  0.0232
 2253PEP     CB86409   9.258   8.824  18.719  0.2668 -0.4869  0.1639
 2253PEP     CB86410   9.462   9.153  19.001  0.0399  0.0057 -0.1960
 2253PEP     CB86411   9.844   9.415  19.063  0.1578  0.3938 -0.1511
 2253PEP     CB86412  10.014   9.703  18.837  0.0040 -0.1749  0.2369
 2253PEP     CB86413  10.074  10.138  18.656  0.3686  0.0576  0.4867
 2253PEP     CB86414  10.202  10.622  18.557  0.2083  0.3501 -0.2789
 2253PEP     CB86415  10.435  11.039  18.464 -0.0223 -0.2080 -0.2320
 2253PEP     CB86416  10.394  11.466  18.359  0.3055  0.1427  0.3842
 2253PEP     CB86417  10.065  11.709  18.576  0.1787 -0.1675  0.0706
 2253PEP     CB86418   9.781  11.582  18.915 -0.0334  0.1035  0.0030
 2253PEP     CB86419   9.698  11.423  19.301  0.1503  0.1037  0.1703
 2253PEP     CB86420   9.777  11.448  19.767 -0.0388  0.2444 -0.2535
 2253PEP     CB86421   9.833  11.372  20.248 -0.6162 -0.5154 -0.3548
 2253PEP     CB86422   9.955  11.168  20.608 -0.2674 -0.0914  0.0933
 2253PEP     CB86423  10.323  10.993  20.845 -0.0605  0.1394  0.0397
 2253PEP     CB86424  10.744  10.954  20.823  0.4229 -0.0431 -0.2683
 2253PEP     CB86425  11.033  11.007  20.454 -0.0402  0.2050  0.0995
 2253PEP     CB86426  11.036  10.800  20.065  0.0257 -0.2392  0.3759
 2253PEP     CB86427  10.937  10.566  19.640  0.0983 -0.3173  0.0952
 2253PEP     CB86428  10.919  10.489  19.174 -0.0691  0.0597 -0.2364
 2253PEP     CB86429  11.099  10.408  18.738  0.1227  0.3535 -0.0506
 2253PEP     CB86430  11.505  10.490  18.648  0.1240  0.1938 -0.4358
 2253PEP     CB86431  11.806  10.538  19.014 -0.2419 -0.3227  0.1462
 2253PEP     CB86432  12.015  10.399  19.421 -0.1048 -0.1086 -0.1607
 2253PEP     CB86433  12.245  10.505  19.877 -0.2259  0.3618 -0.1755
 2253PEP     CB86434  12.048  10.300  20.248 -0.2403 -0.0728  0.1889
 2253PEP     CB86435  11.713  10.140  20.341 -0.2379  0.1337  0.0179
 2253PEP     CB86436  11.458  10.010  20.601 -0.1963 -0.0461 -0.2747
 2253PEP     CB86437  11.224   9.802  20.957 -0.0316  0.3634 -0.0813
 2253PEP     CB86438  11.286   9.508  21.115 -0.1062  0.0354  0.4293
 2253PEP     CB86439  11.296   9.170  20.904 -0.1273 -0.0658  0.1716
 2253PEP     CB86440  11.327   8.821  20.650  0.0643  0.0596  0.0102
 2254PEP     CB86441   6.562  17.445   6.153  0.3548 -0.1757  0.0773
 2254PEP     CB86442   6.115  17.542   6.214  0.2120 -0.7132 -0.2102
 2254PEP     CB86443   5.939  17.626   6.597  0.1297 -0.1288 -0.0067
 2254PEP     CB86444   6.082  17.637   7.042 -0.3402 -0.2770 -0.1616
 2254PEP     CB86445   6.368  17.435   7.317 -0.0972 -0.3569 -0.2281
 2254PEP     CB86446   6.698  17.601   7.533  0.0103 -0.1557  0.1488
 2254PEP     CB86447   6.700  17.804   7.945  0.0509  0.3366 -0.2101
 2254PEP     CB86448   6.374  17.965   8.205 -0.3229 -0.1775  0.1437
 2254PEP     CB86449   5.917  18.099   8.357  0.1248 -0.2648 -0.2253
 2254PEP     CB86450   5.419  17.872   8.375  0.0829  0.0932  0.0372
 2254PEP     CB86451   5.033  17.660   8.207 -0.1889  0.0231  0.3954
 2254PEP     CB86452   4.880  17.438   7.779 -0.0502  0.2918  0.0709
 2254PEP     CB86453   4.699  17.019   7.544  0.0527 -0.0104  0.4383
 2254PEP     CB86454   4.382  16.843   7.334 -0.3116 -0.1584  0.0973
 2254PEP     CB86455   4.115  17.016   7.074  0.1932  0.3061 -0.0919
 2254PEP     CB86456   4.079  17.347   6.862  0.0440 -0.1216  0.3019
 2254PEP     CB86457   4.149  17.724   6.477  0.2854  0.1153 -0.0675
 2254PEP     CB86458   4.037  17.911   6.092 -0.0000 -0.0276  0.1748
 2254PEP     CB86459   4.179  18.143   5.716 -0.3293  0.2133  0.4419
 2254PEP     CB86460   4.646  18.095   5.548 -0.3955  0.0487  0.2345
 2254PEP     CB86461   4.966  17.901   5.371 -0.3455 -0.0225 -0.0057
 2254PEP     CB86462   5.261  17.749   5.192  0.2258  0.1265  0.2602
 2254PEP     CB86463   5.668  17.627   5.092 -0.2147 -0.2295 -0.3081
 2254PEP     CB86464   5.906  17.425   4.864 -0.0985 -0.0059 -0.1710
 2254PEP     CB86465   6.164  17.254   4.646 -0.0322 -0.0886 -0.1798
 2254PEP     CB86466   6.088  16.995   4.358  0.2977 -0.2357  0.0148
 2254PEP     CB86467   6.171  16.642   4.080  0.1333 -0.1706  0.0899
 2254PEP     CB86468   6.221  16.389   3.696  0.3114 -0.0761  0.2336
 2254PEP     CB86469   6.051  16.289   3.317  0.1091 -0.0560  0.1441
 2254PEP     CB86470   5.970  16.442   2.980 -0.2095  0.0125  0.2342
 2254PEP     CB86471   6.040  16.902   2.758  0.0345  0.1202  0.0553
 2254PEP     CB86472   6.128  17.203   2.548  0.0057 -0.0263  0.0222
 2254PEP     CB86473   6.317  17.577   2.455  0.0660 -0.1371 -0.2244
 2254PEP     CB86474   6.372  17.931   2.153 -0.2106  0.1748  0.2384
 2254PEP     CB86475   6.662  18.260   1.934 -0.4453  0.1499  0.0379
 2254PEP     CB86476   6.708  18.465   1.580 -0.0033  0.1735  0.1456
 2254PEP     CB86477   6.546  18.879   1.441 -0.0542  0.2388  0.0399
 2254PEP     CB86478   6.466  19.091   1.838 -0.0975 -0.2038  0.1282
 2254PEP     CB86479   6.345  19.044   2.221  0.0201  0.1551  0.2907
 2254PEP     CB86480   6.005  18.919   2.518  0.0632 -0.2527 -0.1047
 2255PEP     CB86481   5.763   0.819   9.471  0.0227 -0.1085  0.1906
 2255PEP     CB86482   6.039   0.678   9.182  0.3115 -0.0158  0.0245
 2255PEP     CB86483   6.255   0.305   9.161  0.1208  0.4501  0.0423
 2255PEP     CB86484   6.430  -0.044   9.356 -0.1338 -0.5956 -0.0827
 2255PEP     CB86485   6.519  -0.485   9.562  0.3051 -0.1853 -0.0816
 2255PEP     CB86486   6.556  -0.665   9.995 -0.2437  0.2456 -0.0434
 2255PEP     CB86487   6.432  -0.463  10.400 -0.1406 -0.1188 -0.0187
 2255PEP     CB86488   6.256  -0.371  10.769 -0.1483 -0.0115 -0.1640
 2255PEP     CB86489   5.964  -0.321  11.087  0.2021  0.3258 -0.0987
 2255PEP     CB86490   5.623  -0.080  11.402 -0.2574  0.0383 -0.1549
 2255PEP     CB86491   5.170  -0.189  11.459  0.4726  0.2771  0.0850
 2255PEP     CB86492   4.960  -0.510  11.417  0.1452 -0.2847 -0.1054
 2255PEP     CB86493   4.883  -0.975  11.302 -0.4151 -0.0336  0.3327
 2255PEP     CB86494   4.543  -1.316  11.281  0.0239  0.0331 -0.3660
 2255PEP     CB86495   4.273  -1.508  11.628  0.2289 -0.2581 -0.2756
 2255PEP     CB86496   4.320  -1.339  12.058 -0.0206  0.0835  0.2206
 2255PEP     CB86497   4.651  -1.039  12.233 -0.0722  0.1667  0.4901
 2255PEP     CB86498   5.098  -1.016  12.076 -0.3308  0.2675 -0.1434
 2255PEP     CB86499   5.575  -1.020  11.962 -0.0504  0.2622 -0.0735
 2255PEP     CB86500   5.875  -1.405  11.876  0.2791 -0.3350  0.0062
 2255PEP     CB86501   6.064  -1.744  11.982 -0.1484 -0.2348 -0.0698
 2255PEP     CB86502   6.214  -1.914  12.433  0.0998 -0.3240  0.2784
 2255PEP     CB86503   6.034  -1.983  12.825 -0.2728  0.0407  0.0162
 2255PEP     CB86504   5.692  -1.899  13.231  0.1351 -0.0898 -0.0995
 2255PEP     CB86505   5.271  -1.728  13.468  0.2999 -0.2403 -0.4046
 2255PEP     CB86506   4.892  -1.880  13.369  0.1409 -0.1302 -0.1402
 2255PEP     CB86507   4.855  -2.182  13.052  0.4643  0.2932  0.0416
 2255PEP     CB86508   4.813  -2.400  12.629  0.3462 -0.1574  0.0222
 2255PEP     CB86509   4.690  -2.617  12.249  0.1062 -0.2107 -0.0185
 2255PEP     CB86510   4.551  -2.954  12.035  0.1963 -0.1930 -0.0243
 2255PEP     CB86511   4.518  -3.463  11.786  0.0490  0.4037 -0.0162
 2255PEP     CB86512   4.770  -3.760  11.809 -0.1674 -0.1586 -0.1774
 2255PEP     CB86513   5.241  -3.965  12.011 -0.0314  0.2753  0.2837
 2255PEP     CB86514   5.589  -4.163  11.817 -0.0066  0.1623 -0.2185
 2255PEP     CB86515   5.695  -4.123  11.478  0.0230  0.1123  0.1585
 2255PEP     CB86516   5.492  -3.917  11.064  0.1112 -0.1892  0.1881
 2255PEP     CB86517   5.136  -3.800  10.824  0.1500  0.2294 -0.0284
 2255PEP     CB86518   4.873  -3.924  10.511 -0.1600 -0.0717 -0.4014
 2255PEP     CB86519   4.522  -3.938  10.294  0.1738  0.1315 -0.1576
 2255PEP     CB86520   3.998  -4.030  10.244 -0.2323 -0.0716 -0.0871
 2256PEP     CB86521   2.684  15.395  20.833 -0.2088 -0.3344  0.2574
 2256PEP     CB86522   2.977  15.660  20.978  0.2288  0.0634 -0.0581
 2256PEP     CB86523   3.344  15.791  20.712 -0.1049 -0.3369  0.1116
 2256PEP     CB86524   3.607  15.946  20.420 -0.0753 -0.1080 -0.3619
 2256PEP     CB86525   4.020  15.860  20.309 -0.0101  0.2928 -0.1041
 2256PEP     CB86526   4.209  15.555  20.192 -0.2671 -0.0798  0.0909
 2256PEP     CB86527   4.279  15.140  19.921  0.0050 -0.2844  0.0541
 2256PEP     CB86528   4.338  14.759  19.852  0.0953 -0.0501 -0.1821
 2256PEP     CB86529   4.354  14.322  20.063  0.2551  0.4026  0.0069
 2256PEP     CB86530   4.237  13.949  20.231 -0.1395  0.3735 -0.2939
 2256PEP     CB86531   4.327  13.726  20.509  0.0321 -0.0916 -0.3593
 2256PEP     CB86532   4.743  13.633  20.586  0.0343  0.5447  0.0065
 2256PEP     CB86533   5.113  13.629  21.005  0.3289  0.1164 -0.0481
 2256PEP     CB86534   5.250  13.883  21.332 -0.1113  0.1267  0.0033
 2256PEP     CB86535   5.002  14.236  21.521  0.0120  0.4458 -0.0091
 2256PEP     CB86536   4.562  14.237  21.638 -0.0068  0.2485  0.3779
 2256PEP     CB86537   4.324  14.272  21.290 -0.3291  0.1119  0.1993
 2256PEP     CB86538   4.314  14.188  20.852 -0.2273 -0.1189  0.3123
 2256PEP     CB86539   4.606  14.229  20.510 -0.1704  0.0486 -0.2235
 2256PEP     CB86540   4.843  14.386  20.157  0.0546 -0.1902 -0.0447
 2256PEP     CB86541   5.213  14.441  19.907 -0.1920  0.0436  0.1286
 2256PEP     CB86542   5.661  14.237  19.895  0.2160  0.1218 -0.1914
 2256PEP     CB86543   6.114  14.183  19.949 -0.1759  0.1828 -0.1992
 2256PEP     CB86544   6.481  14.062  19.950 -0.2065  0.7150  0.4100
 2256PEP     CB86545   6.896  13.874  20.114  0.1085  0.1935  0.0196
 2256PEP     CB86546   7.019  13.999  20.445 -0.1322  0.2777 -0.3489
 2256PEP     CB86547   6.854  14.095  20.837  0.0225  0.1379 -0.0745
 2256PEP     CB86548   6.956  13.808  21.149  0.2073 -0.0196  0.1514
 2256PEP     CB86549   7.181  13.436  21.281  0.0943  0.2951  0.2992
 2256PEP     CB86550   7.325  13.081  21.373 -0.0236  0.4933  0.0534
 2256PEP     CB86551   7.537  12.679  21.352  0.1310  0.3153  0.3305
 2256PEP     CB86552   7.834  12.449  21.689 -0.2248 -0.0504 -0.0099
 2256PEP     CB86553   8.123  12.597  21.980 -0.1388  0.0636 -0.0753
 2256PEP     CB86554   8.244  13.024  21.996 -0.0245  0.1434 -0.1446
 2256PEP     CB86555   7.963  13.321  21.872 -0.2210  0.2029 -0.0034
 2256PEP     CB86556   7.723  13.344  21.437 -0.0108  0.1203  0.1459
 2256PEP     CB86557   7.729  13.079  21.063  0.1504  0.1500  0.2440
 2256PEP     CB86558   7.761  13.030  20.616 -0.4506 -0.0826  0.0034
 2256PEP     CB86559   7.640  13.317  20.305  0.0603 -0.3045 -0.2852
 2256PEP     CB86560   7.422  13.732  20.332 -0.2220 -0.3483 -0.0076
 2257PEP     CB86561  19.790  19.690   9.842 -0.1727  0.0680 -0.0223
 2257PEP     CB86562  20.261  19.703   9.796 -0.2882  0.3516  0.2237
 2257PEP     CB86563  20.691  19.809   9.798  0.2545 -0.4377  0.1620
 2257PEP     CB86564  20.950  20.235   9.925 -0.2237  0.2909  0.1422
 2257PEP     CB86565  20.914  20.686   9.829 -0.2112 -0.0667  0.0348
 2257PEP     CB86566  20.985  21.156   9.589  0.1887  0.0326  0.2475
 2257PEP     CB86567  20.915  21.561   9.495 -0.2533  0.2787 -0.2834
 2257PEP     CB86568  20.675  22.042   9.425  0.0505  0.0100  0.0107
 2257PEP     CB86569  20.521  22.302   9.076 -0.1574 -0.0755 -0.2265
 2257PEP     CB86570  20.383  22.341   8.716  0.0574 -0.1268  0.4073
 2257PEP     CB86571  20.497  22.328   8.194 -0.2952 -0.1497 -0.1371
 2257PEP     CB86572  20.799  22.482   7.941  0.0244  0.2982 -0.3200
 2257PEP     CB86573  21.116  22.503   7.701 -0.1085  0.2777  0.3840
 2257PEP     CB86574  21.517  22.511   7.806  0.1179  0.4425 -0.1056
 2257PEP     CB86575  21.682  22.557   8.174 -0.1919 -0.1792  0.1099
 2257PEP     CB86576  21.691  22.937   8.475  0.1300 -0.1950  0.2005
 2257PEP     CB86577  21.384  23.317   8.289 -0.2148 -0.1588 -0.0821
 2257PEP     CB86578  21.350  23.389   7.872  0.5782 -0.0035  0.1935
 2257PEP     CB86579  21.599  23.220   7.518 -0.2528  0.0098  0.6203
 2257PEP     CB86580  21.647  22.787   7.371  0.1548  0.1324 -0.1299
 2257PEP     CB86581  21.524  22.397   7.314 -0.2480 -0.3193  0.2106
 2257PEP     CB86582  21.416  21.968   7.533  0.1304  0.2038  0.0670
 2257PEP     CB86583  21.215  21.513   7.688  0.0622  0.0168  0.0298
 2257PEP     CB86584  20.837  21.365   7.957  0.1571  0.1869  0.0292
 2257PEP     CB86585  20.613  21.283   8.332 -0.3515 -0.1685  0.0553
 2257PEP     CB86586  20.438  20.995   8.676  0.3987 -0.0520  0.0092
 2257PEP     CB86587  20.307  20.868   9.128 -0.1066 -0.1575 -0.2612
 2257PEP     CB86588  20.152  20.469   9.231 -0.0569  0.5291  0.1751
 2257PEP     CB86589  19.897  20.231   8.962 -0.0518  0.0169 -0.0963
 2257PEP     CB86590  19.807  20.423   8.508  0.0665  0.2391 -0.2805
 2257PEP     CB86591  20.158  20.520   8.213  0.1702  0.2608 -0.0899
 2257PEP     CB86592  20.255  20.431   7.722  0.0330  0.3634  0.1241
 2257PEP     CB86593  20.508  20.169   7.426  0.0637 -0.3879  0.1137
 2257PEP     CB86594  20.801  19.890   7.290 -0.0435 -0.0969 -0.3117
 2257PEP     CB86595  21.143  19.817   6.970  0.1368 -0.3294  0.1892
 2257PEP     CB86596  21.178  19.822   6.495 -0.1952  0.3143  0.0338
 2257PEP     CB86597  21.219  19.699   6.008  0.0041 -0.1981 -0.0530
 2257PEP     CB86598  21.367  19.832   5.575 -0.1681  0.0650 -0.0600
 2257PEP     CB86599  21.518  20.177   5.329 -0.1508 -0.1464 -0.4799
 2257PEP     CB86600  21.845  20.442   5.392  0.0488  0.1224  0.1504
 2258PEP     CB86601  20.742  17.339   7.722  0.1039  0.3316 -0.0561
 2258PEP     CB86602  20.922  17.035   8.046 -0.0892  0.2955 -0.3827
 2258PEP     CB86603  20.747  16.705   8.220 -0.0245  0.4341 -0.2522
 2258PEP     CB86604  20.365  16.492   8.254 -0.5186 -0.1451 -0.4756
 2258PEP     CB86605  20.192  16.357   7.905 -0.0573  0.1083  0.1397
 2258PEP     CB86606  20.402  16.497   7.521  0.2350  0.2562 -0.0369
 2258PEP     CB86607  20.675  16.565   7.147 -0.0756  0.1057 -0.0713
 2258PEP     CB86608  20.564  16.775   6.678  0.1494 -0.4587 -0.2984
 2258PEP     CB86609  20.614  16.835   6.218  0.1359 -0.1271 -0.2590
 2258PEP     CB86610  20.340  16.801   5.815 -0.0269  0.0206  0.1548
 2258PEP     CB86611  20.058  17.115   5.696 -0.2295 -0.2218 -0.0687
 2258PEP     CB86612  20.259  17.572   5.542  0.1496  0.1691  0.1169
 2258PEP     CB86613  20.453  17.949   5.631  0.3353 -0.0312 -0.1709
 2258PEP     CB86614  20.733  18.278   5.534 -0.0549  0.1558  0.4499
 2258PEP     CB86615  21.134  18.384   5.654 -0.1142  0.0607 -0.0437
 2258PEP     CB86616  21.443  18.116   5.875  0.0037 -0.0639  0.3237
 2258PEP     CB86617  21.517  17.711   5.895  0.0081 -0.2358  0.1409
 2258PEP     CB86618  21.820  17.349   6.055  0.0136  0.0784  0.1927
 2258PEP     CB86619  22.171  17.086   6.189  0.3159 -0.2492 -0.2281
 2258PEP     CB86620  22.544  16.756   6.300  0.1429  0.1658  0.0985
 2258PEP     CB86621  22.868  16.415   6.380  0.3682 -0.1163 -0.1462
 2258PEP     CB86622  23.117  16.045   6.474 -0.0720  0.0793  0.6267
 2258PEP     CB86623  23.255  15.883   6.794  0.0980  0.0826 -0.3209
 2258PEP     CB86624  23.210  16.103   7.240 -0.0810  0.5071 -0.2687
 2258PEP     CB86625  23.021  16.472   7.241  0.1815  0.0388  0.2254
 2258PEP     CB86626  23.205  16.765   7.490  0.2866 -0.1669  0.2642
 2258PEP     CB86627  23.361  16.853   7.928  0.0168 -0.0044 -0.0418
 2258PEP     CB86628  23.279  17.239   8.233 -0.1828 -0.0411  0.3945
 2258PEP     CB86629  23.326  17.558   8.377 -0.0739  0.1536  0.2343
 2258PEP     CB86630  23.353  17.932   8.511 -0.3162  0.1694 -0.1963
 2258PEP     CB86631  23.648  18.141   8.676 -0.2762  0.4116 -0.0651
 2258PEP     CB86632  24.003  18.172   8.532  0.0226  0.4052 -0.2250
 2258PEP     CB86633  24.119  18.074   8.096 -0.0480 -0.3118 -0.1192
 2258PEP     CB86634  24.528  18.047   7.818 -0.0860 -0.0542  0.3170
 2258PEP     CB86635  24.969  18.022   7.665  0.0667 -0.2957  0.3304
 2258PEP     CB86636  25.334  18.029   7.449  0.1275 -0.0285  0.1847
 2258PEP     CB86637  25.776  17.936   7.484  0.0683 -0.5070  0.1837
 2258PEP     CB86638  26.172  17.900   7.280  0.2207  0.0406 -0.1705
 2258PEP     CB86639  26.351  17.750   6.976 -0.0156  0.4236  0.2033
 2258PEP     CB86640  26.644  17.556   6.650 -0.0120 -0.1273  0.4343
 2259PEP     CB86641   3.154   2.399  18.788  0.2028 -0.1420 -0.0887
 2259PEP     CB86642   3.537   2.338  18.579 -0.3108 -0.2379  0.1563
 2259PEP     CB86643   3.722   1.979  18.224  0.0285  0.2689 -0.1437
 2259PEP     CB86644   3.655   1.805  17.805 -0.1876  0.2665  0.0071
 2259PEP     CB86645   3.264   1.896  17.522  0.1161  0.4084  0.1125
 2259PEP     CB86646   2.988   2.163  17.703  0.0226 -0.0972 -0.0700
 2259PEP     CB86647   2.712   2.030  18.037 -0.1094 -0.0047 -0.1651
 2259PEP     CB86648   2.531   1.663  18.247  0.0704 -0.2883 -0.0074
 2259PEP     CB86649   2.531   1.184  18.377  0.0750  0.1713  0.1912
 2259PEP     CB86650   2.516   0.790  18.251  0.3374 -0.1441 -0.0327
 2259PEP     CB86651   2.800   0.506  17.889 -0.6090 -0.0940  0.0865
 2259PEP     CB86652   3.174   0.467  17.815 -0.1796  0.3187  0.0581
 2259PEP     CB86653   3.632   0.530  17.802  0.1263  0.5046 -0.0885
 2259PEP     CB86654   3.995   0.931  17.822 -0.4601  0.4242  0.0982
 2259PEP     CB86655   4.468   1.099  17.705 -0.0308 -0.0543 -0.3468
 2259PEP     CB86656   4.673   1.470  17.592 -0.5555  0.2467 -0.4128
 2259PEP     CB86657   4.992   1.880  17.453 -0.2257  0.0611  0.0199
 2259PEP     CB86658   5.032   2.036  17.076  0.2326 -0.0584 -0.2075
 2259PEP     CB86659   4.689   1.930  16.699  0.2631  0.0726  0.1623
 2259PEP     CB86660   4.709   1.550  16.437 -0.4873 -0.0068 -0.1305
 2259PEP     CB86661   4.715   1.154  16.747  0.2223 -0.1056 -0.2431
 2259PEP     CB86662   4.505   1.266  17.148 -0.2207  0.1553  0.5231
 2259PEP     CB86663   4.505   1.713  17.192  0.0405  0.0844  0.1424
 2259PEP     CB86664   4.171   2.001  17.176 -0.2234 -0.0955 -0.1901
 2259PEP     CB86665   3.772   2.045  17.108 -0.0971  0.4486  0.0840
 2259PEP     CB86666   3.358   2.327  17.031 -0.1482  0.1898 -0.0582
 2259PEP     CB86667   3.094   2.587  16.780  0.0971 -0.0392 -0.1931
 2259PEP     CB86668   3.015   2.750  16.367  0.4794 -0.0001  0.2035
 2259PEP     CB86669   2.732   2.867  16.133 -0.1039 -0.2719 -0.0800
 2259PEP     CB86670   2.469   2.822  15.805 -0.0031 -0.1316  0.2550
 2259PEP     CB86671   2.206   2.567  15.601 -0.1783  0.0516 -0.0550
 2259PEP     CB86672   2.170   2.218  15.381  0.0174  0.0221 -0.0110
 2259PEP     CB86673   2.046   1.948  15.056 -0.3486  0.3247  0.0734
 2259PEP     CB86674   1.950   2.084  14.621 -0.1324 -0.0354  0.3483
 2259PEP     CB86675   1.893   2.462  14.418  0.1171 -0.0518  0.6750
 2259PEP     CB86676   2.063   2.786  14.410  0.1492 -0.1206  0.0643
 2259PEP     CB86677   2.406   3.078  14.286  0.2375 -0.2398  0.4747
 2259PEP     CB86678   2.792   3.372  14.262  0.1139 -0.0567 -0.3902
 2259PEP     CB86679   3.088   3.727  14.290 -0.1506 -0.1673 -0.3794
 2259PEP     CB86680   3.088   4.090  14.474 -0.1282 -0.1612 -0.2280
 2260PEP     CB86681   3.659  15.667   2.115  0.4004 -0.0096  0.2080
 2260PEP     CB86682   3.938  16.007   2.328 -0.0859 -0.0823  0.0660
 2260PEP     CB86683   4.273  16.182   2.541  0.3344  0.1558 -0.3793
 2260PEP     CB86684   4.671  16.059   2.811  0.2563  0.0190  0.2715
 2260PEP     CB86685   5.121  16.142   2.817  0.1130  0.2443 -0.0188
 2260PEP     CB86686   5.278  16.562   2.928 -0.7107 -0.1610  0.1626
 2260PEP     CB86687   5.485  16.935   2.839  0.0707 -0.1027 -0.3673
 2260PEP     CB86688   5.667  17.075   2.567 -0.0884  0.0151 -0.3102
 2260PEP     CB86689   5.781  17.409   2.279 -0.3188 -0.0530 -0.0881
 2260PEP     CB86690   6.155  17.526   1.982 -0.0077  0.2944  0.1888
 2260PEP     CB86691   6.450  17.523   1.699 -0.2048 -0.1354 -0.2241
 2260PEP     CB86692   6.659  17.526   1.273  0.3889  0.1317  0.0118
 2260PEP     CB86693   6.661  17.524   0.855 -0.3057  0.3561  0.0646
 2260PEP     CB86694   6.876  17.353   0.552 -0.0303 -0.0380 -0.0061
 2260PEP     CB86695   7.196  17.071   0.605  0.3016 -0.0156  0.2108
 2260PEP     CB86696   7.240  16.655   0.583  0.0824 -0.1599 -0.1457
 2260PEP     CB86697   7.362  16.303   0.540  0.0984  0.4142  0.0636
 2260PEP     CB86698   7.416  15.802   0.639  0.0537  0.0607 -0.2057
 2260PEP     CB86699   7.573  15.461   0.749 -0.1298  0.0400 -0.4144
 2260PEP     CB86700   7.711  15.008   0.768 -0.0609  0.1105 -0.3872
 2260PEP     CB86701   7.604  14.596   0.765 -0.5031 -0.2111  0.2125
 2260PEP     CB86702   7.497  14.213   1.002 -0.1302  0.4666  0.2007
 2260PEP     CB86703   7.127  14.021   1.075  0.3181 -0.5324  0.0370
 2260PEP     CB86704   6.762  14.384   1.147  0.0250 -0.2715  0.0468
 2260PEP     CB86705   6.763  14.817   1.336  0.0635 -0.4921  0.0733
 2260PEP     CB86706   7.205  15.086   1.452  0.0568 -0.3607  0.2804
 2260PEP     CB86707   7.611  15.101   1.260 -0.0600  0.0493 -0.4066
 2260PEP     CB86708   8.088  15.260   1.370  0.5097 -0.3326 -0.4332
 2260PEP     CB86709   8.225  15.476   1.674  0.0833  0.4602 -0.2205
 2260PEP     CB86710   8.566  15.593   1.867 -0.0178 -0.1457 -0.1532
 2260PEP     CB86711   8.780  15.160   2.085 -0.2499  0.1043 -0.5119
 2260PEP     CB86712   8.858  14.807   2.347  0.2002 -0.0673  0.0406
 2260PEP     CB86713   8.929  14.378   2.504 -0.3829  0.4180  0.0147
 2260PEP     CB86714   8.859  14.136   2.836 -0.3417 -0.1003 -0.1520
 2260PEP     CB86715   8.880  13.671   2.870  0.0280  0.0845  0.0211
 2260PEP     CB86716   9.097  13.445   2.604 -0.0016 -0.3992 -0.0132
 2260PEP     CB86717   9.387  13.563   2.423  0.2937 -0.3949 -0.2897
 2260PEP     CB86718   9.656  13.953   2.404 -0.3168  0.1667 -0.1587
 2260PEP     CB86719   9.881  14.391   2.485  0.0465 -0.2526 -0.1333
 2260PEP     CB86720  10.116  14.823   2.379  0.2201 -0.3246  0.0730
 2261PEP     CB86721  17.358  19.872  11.845  0.1245 -0.1285  0.0335
 2261PEP     CB86722  17.612  19.748  12.182 -0.1184 -0.0945 -0.1635
 2261PEP     CB86723  17.728  19.565  12.602 -0.2630  0.1168  0.4893
 2261PEP     CB86724  18.063  19.653  12.957  0.0076 -0.3030 -0.0400
 2261PEP     CB86725  18.396  19.889  12.857 -0.0245  0.1559  0.1131
 2261PEP     CB86726  18.896  20.095  12.791  0.0248 -0.1060 -0.0815
 2261PEP     CB86727  19.114  20.340  12.666  0.0995  0.6732  0.2407
 2261PEP     CB86728  19.310  20.788  12.823  0.0897 -0.0125  0.0451
 2261PEP     CB86729  19.355  21.096  13.140  0.3095  0.2664 -0.2894
 2261PEP     CB86730  19.481  21.237  13.483  0.0229 -0.0020  0.3244
 2261PEP     CB86731  19.363  21.694  13.645  0.0047 -0.0921  0.0523
 2261PEP     CB86732  19.278  21.931  13.912  0.0187  0.2990 -0.2928
 2261PEP     CB86733  19.462  21.983  14.180 -0.1491 -0.1202  0.0997
 2261PEP     CB86734  19.723  22.056  14.512  0.4677 -0.0756  0.0911
 2261PEP     CB86735  19.971  21.856  14.825  0.0552 -0.0343  0.1500
 2261PEP     CB86736  20.365  21.805  14.983 -0.1575 -0.2451 -0.1446
 2261PEP     CB86737  20.489  22.007  15.347 -0.3623  0.4938 -0.0638
 2261PEP     CB86738  20.293  22.418  15.500 -0.3289 -0.3623 -0.0774
 2261PEP     CB86739  19.886  22.603  15.416  0.3552 -0.3041  0.1196
 2261PEP     CB86740  19.634  22.767  15.060 -0.0004 -0.0604 -0.2938
 2261PEP     CB86741  19.750  22.850  14.588  0.2315 -0.2048  0.0213
 2261PEP     CB86742  20.205  22.976  14.329 -0.2682  0.2182  0.1049
 2261PEP     CB86743  20.387  23.386  14.361 -0.1950 -0.1729 -0.3301
 2261PEP     CB86744  20.196  23.771  14.109  0.1333  0.2821 -0.2071
 2261PEP     CB86745  20.065  24.198  13.943 -0.0389 -0.3670 -0.0652
 2261PEP     CB86746  19.684  24.539  13.842 -0.1020  0.1239 -0.1679
 2261PEP     CB86747  19.634  25.007  13.630  0.2791  0.0197 -0.2314
 2261PEP     CB86748  19.519  25.426  13.653  0.5149  0.0735 -0.0464
 2261PEP     CB86749  19.503  25.623  14.127  0.4978 -0.0280  0.1403
 2261PEP     CB86750  19.766  25.396  14.470  0.1410 -0.3179  0.0948
 2261PEP     CB86751  20.136  25.177  14.534  0.1128  0.0130 -0.2828
 2261PEP     CB86752  20.252  24.960  14.926 -0.3727  0.1378  0.1301
 2261PEP     CB86753  20.111  24.668  15.317  0.0220 -0.4818  0.3404
 2261PEP     CB86754  19.962  24.484  15.659 -0.0009 -0.0773 -0.0442
 2261PEP     CB86755  19.815  24.095  15.676  0.1297  0.4837  0.0078
 2261PEP     CB86756  19.934  23.722  15.437 -0.0211 -0.1786  0.1050
 2261PEP     CB86757  20.223  23.736  15.035  0.0678 -0.2996  0.3107
 2261PEP     CB86758  19.989  23.854  14.587  0.1313  0.0078  0.0102
 2261PEP     CB86759  19.683  24.090  14.275  0.0211 -0.2322 -0.1889
 2261PEP     CB86760  19.283  24.178  14.191 -0.2696  0.2049 -0.3483
 2262PEP     CB86761  18.320  15.993  10.555  0.2910  0.0655 -0.0248
 2262PEP     CB86762  18.544  15.685  10.942  0.0356 -0.0230 -0.3674
 2262PEP     CB86763  18.648  15.652  11.391  0.1699 -0.0553  0.2030
 2262PEP     CB86764  18.990  15.626  11.761  0.4697 -0.1262  0.3420
 2262PEP     CB86765  19.164  15.418  12.127  0.2334  0.0942 -0.1579
 2262PEP     CB86766  19.507  15.099  12.118 -0.2088  0.1634  0.3316
 2262PEP     CB86767  19.988  14.993  12.047 -0.0369 -0.1640 -0.0059
 2262PEP     CB86768  20.336  15.331  12.076  0.0782 -0.1406 -0.1146
 2262PEP     CB86769  20.691  15.569  11.781  0.0425  0.0443  0.0386
 2262PEP     CB86770  20.682  15.706  11.366  0.2055  0.5481  0.0356
 2262PEP     CB86771  20.555  15.597  10.942 -0.2903  0.3461  0.0544
 2262PEP     CB86772  20.386  15.483  10.492  0.2159  0.0932  0.0253
 2262PEP     CB86773  20.435  15.217  10.173 -0.1519 -0.0228 -0.3487
 2262PEP     CB86774  20.644  14.856  10.002 -0.1070  0.0882  0.2909
 2262PEP     CB86775  21.023  14.666  10.017 -0.2284  0.3054  0.1813
 2262PEP     CB86776  21.396  14.338  10.040  0.1382 -0.1835 -0.0453
 2262PEP     CB86777  21.649  14.074   9.811  0.7673 -0.2622 -0.4167
 2262PEP     CB86778  21.917  13.819   9.676 -0.1126  0.1497  0.2743
 2262PEP     CB86779  22.207  13.963   9.449 -0.3028  0.0022 -0.0174
 2262PEP     CB86780  22.368  14.439   9.476  0.0216  0.3863  0.1119
 2262PEP     CB86781  22.147  14.755   9.468  0.0322  0.0610 -0.2585
 2262PEP     CB86782  22.147  15.208   9.575 -0.0407 -0.3187  0.5042
 2262PEP     CB86783  22.220  15.439   9.977  0.3063 -0.1200  0.0017
 2262PEP     CB86784  22.192  15.294  10.461  0.1456 -0.1125 -0.1079
 2262PEP     CB86785  22.316  14.933  10.709 -0.0113  0.3652  0.0893
 2262PEP     CB86786  22.413  14.731  11.169 -0.1183  0.0363  0.0076
 2262PEP     CB86787  22.439  14.599  11.551 -0.1983 -0.0709  0.3174
 2262PEP     CB86788  22.620  14.599  11.950 -0.0561  0.0849 -0.0261
 2262PEP     CB86789  23.070  14.805  12.085 -0.0539 -0.1211  0.2998
 2262PEP     CB86790  23.467  14.536  12.277 -0.6258 -0.4314  0.1320
 2262PEP     CB86791  23.417  14.083  12.263  0.2952  0.2443  0.0684
 2262PEP     CB86792  23.420  13.698  12.197 -0.1207  0.0784  0.2119
 2262PEP     CB86793  23.477  13.250  12.207 -0.0878  0.2522  0.1812
 2262PEP     CB86794  23.480  12.856  12.521 -0.1995  0.0157  0.2142
 2262PEP     CB86795  23.400  12.457  12.565  0.0978 -0.4259 -0.4998
 2262PEP     CB86796  23.469  12.010  12.257 -0.0915  0.0722 -0.0493
 2262PEP     CB86797  23.378  11.947  11.825  0.0714  0.1447  0.2934
 2262PEP     CB86798  23.120  12.182  11.602  0.3671 -0.3234 -0.0401
 2262PEP     CB86799  22.785  12.284  11.332  0.0315 -0.0734  0.1401
 2262PEP     CB86800  22.871  12.394  10.960  0.1759 -0.3475  0.0167
 2263PEP     CB86801  11.941   3.792   9.810  0.1545  0.4785 -0.3384
 2263PEP     CB86802  12.305   3.560   9.670 -0.1242  0.2607 -0.4151
 2263PEP     CB86803  12.550   3.370   9.347 -0.3273 -0.2543  0.2642
 2263PEP     CB86804  12.848   3.263   9.062  0.1964  0.1418 -0.1468
 2263PEP     CB86805  13.356   3.277   9.093  0.0760 -0.3501  0.1434
 2263PEP     CB86806  13.789   3.321   8.748  0.2853  0.1403 -0.0008
 2263PEP     CB86807  14.203   3.363   8.576  0.1902 -0.1703 -0.5916
 2263PEP     CB86808  14.460   3.583   8.226  0.1816  0.0537 -0.1572
 2263PEP     CB86809  14.823   3.395   7.990 -0.1986 -0.0572  0.0550
 2263PEP     CB86810  15.031   3.050   7.641  0.1124 -0.0209  0.1031
 2263PEP     CB86811  14.846   2.623   7.477 -0.1868  0.2000  0.1018
 2263PEP     CB86812  14.529   2.389   7.564 -0.1076 -0.1321 -0.0950
 2263PEP     CB86813  14.041   2.545   7.546 -0.4686 -0.0567  0.0482
 2263PEP     CB86814  14.001   2.989   7.493  0.1027  0.0922  0.1586
 2263PEP     CB86815  14.260   3.303   7.702  0.0250  0.0486 -0.1604
 2263PEP     CB86816  14.330   3.096   8.095 -0.2736 -0.1568  0.3368
 2263PEP     CB86817  14.354   2.672   8.285  0.1366 -0.2086 -0.0454
 2263PEP     CB86818  14.249   2.268   7.988 -0.0478  0.2255 -0.1210
 2263PEP     CB86819  14.473   1.929   7.813 -0.3519  0.0988  0.1947
 2263PEP     CB86820  14.718   1.538   7.906 -0.1273  0.0964  0.5042
 2263PEP     CB86821  14.877   1.130   7.772  0.0828  0.2076  0.2818
 2263PEP     CB86822  15.158   0.829   7.542  0.0055  0.4390 -0.1219
 2263PEP     CB86823  15.338   0.864   7.087 -0.0174 -0.1370  0.0664
 2263PEP     CB86824  15.176   0.773   6.692 -0.1989  0.1239 -0.0752
 2263PEP     CB86825  15.013   0.753   6.195  0.0121  0.1512  0.2103
 2263PEP     CB86826  14.815   0.707   5.933  0.3952  0.1473 -0.4041
 2263PEP     CB86827  14.421   0.558   5.778  0.0885 -0.2631  0.0023
 2263PEP     CB86828  14.180   0.446   5.408  0.2160 -0.2753 -0.2436
 2263PEP     CB86829  13.986   0.442   5.028 -0.0123  0.2454 -0.0927
 2263PEP     CB86830  14.144   0.406   4.588 -0.2196 -0.0921 -0.2317
 2263PEP     CB86831  14.555   0.103   4.386 -0.2643  0.0249 -0.3334
 2263PEP     CB86832  14.706  -0.278   4.197 -0.1142  0.1236 -0.1962
 2263PEP     CB86833  14.655  -0.648   4.001 -0.2614 -0.0833  0.2284
 2263PEP     CB86834  14.400  -0.852   3.727  0.2439  0.0696  0.0604
 2263PEP     CB86835  14.233  -1.160   3.498  0.0317  0.0492  0.1099
 2263PEP     CB86836  14.180  -1.306   3.090  0.3323 -0.1702 -0.2916
 2263PEP     CB86837  13.754  -1.276   2.878 -0.1155  0.1169  0.0057
 2263PEP     CB86838  13.401  -1.267   2.650 -0.1312 -0.1292  0.1977
 2263PEP     CB86839  13.168  -1.429   2.434 -0.4061  0.4546 -0.3888
 2263PEP     CB86840  12.790  -1.416   2.276  0.1240  0.1580  0.0410
 2264PEP     CB86841   8.297  12.300   1.776  0.1339 -0.0681  0.1391
 2264PEP     CB86842   8.275  12.088   2.170 -0.2946 -0.0719  0.1181
 2264PEP     CB86843   8.205  11.892   2.544 -0.1858 -0.4198 -0.2829
 2264PEP     CB86844   7.839  11.690   2.661  0.1432  0.0113  0.5897
 2264PEP     CB86845   7.410  11.570   2.548 -0.0084 -0.0431 -0.1283
 2264PEP     CB86846   7.244  11.391   2.192 -0.2392  0.0116 -0.0262
 2264PEP     CB86847   7.086  11.299   1.739  0.0203 -0.0322 -0.2472
 2264PEP     CB86848   6.638  11.513   1.572 -0.3242 -0.2891  0.1446
 2264PEP     CB86849   6.567  11.909   1.749  0.3064  0.1443 -0.1792
 2264PEP     CB86850   6.590  11.965   2.150 -0.1321  0.1791 -0.0322
 2264PEP     CB86851   6.476  12.064   2.469  0.2445  0.0861  0.0512
 2264PEP     CB86852   6.286  12.301   2.794  0.2144  0.5401 -0.4347
 2264PEP     CB86853   6.138  12.720   2.878 -0.0687  0.1986 -0.4788
 2264PEP     CB86854   6.070  13.104   2.832 -0.0382 -0.1621 -0.2576
 2264PEP     CB86855   5.909  13.451   2.779 -0.0133  0.0557 -0.0965
 2264PEP     CB86856   6.055  13.736   2.433  0.0871 -0.4355  0.2511
 2264PEP     CB86857   6.438  13.656   2.125 -0.0153 -0.1343 -0.0467
 2264PEP     CB86858   6.867  13.532   2.251 -0.0221 -0.0378 -0.1185
 2264PEP     CB86859   7.139  13.174   2.240  0.2848 -0.1970 -0.2328
 2264PEP     CB86860   7.398  12.870   1.958  0.3262 -0.1111 -0.2698
 2264PEP     CB86861   7.474  12.697   1.583 -0.1930 -0.2089 -0.1066
 2264PEP     CB86862   7.560  12.312   1.382 -0.0426 -0.1231  0.2054
 2264PEP     CB86863   7.604  11.894   1.632 -0.0091 -0.4846  0.3252
 2264PEP     CB86864   7.548  11.822   2.076 -0.4557 -0.4476 -0.2500
 2264PEP     CB86865   7.666  12.145   2.361 -0.0656 -0.0438 -0.1061
 2264PEP     CB86866   7.670  12.600   2.423  0.2760  0.0027  0.0830
 2264PEP     CB86867   7.500  12.972   2.646 -0.1830  0.0624  0.6034
 2264PEP     CB86868   7.448  13.397   2.834  0.0021 -0.1880 -0.0783
 2264PEP     CB86869   7.642  13.705   2.946  0.1734 -0.2072 -0.0510
 2264PEP     CB86870   7.902  14.003   3.182 -0.0834 -0.1456 -0.1053
 2264PEP     CB86871   7.967  14.321   3.579  0.4960 -0.2714  0.0991
 2264PEP     CB86872   8.182  14.567   3.939  0.0353  0.3927 -0.0564
 2264PEP     CB86873   8.250  14.640   4.390  0.1772 -0.1533  0.0031
 2264PEP     CB86874   8.327  14.330   4.725  0.1088  0.4539 -0.3002
 2264PEP     CB86875   8.419  14.015   4.911  0.1107 -0.3741  0.0078
 2264PEP     CB86876   8.726  13.737   5.113  0.1247 -0.2146  0.0653
 2264PEP     CB86877   9.087  13.772   5.402 -0.2830 -0.2835 -0.0073
 2264PEP     CB86878   9.190  14.063   5.677  0.7075 -0.0250 -0.0351
 2264PEP     CB86879   9.317  14.129   6.197 -0.0440  0.1250  0.1670
 2264PEP     CB86880   9.169  14.227   6.639 -0.2399  0.3296 -0.2530
 2265PEP     CB86881   7.804   3.117  11.908  0.0940 -0.0217  0.0034
 2265PEP     CB86882   8.105   3.342  11.501  0.3054 -0.0706 -0.1642
 2265PEP     CB86883   8.356   3.631  11.327  0.0323 -0.0207  0.1427
 2265PEP     CB86884   8.677   3.853  11.117 -0.2574  0.0621 -0.0086
 2265PEP     CB86885   8.853   3.733  10.676  0.2652  0.2980 -0.0416
 2265PEP     CB86886   8.655   3.876  10.296 -0.1942 -0.1327  0.4411
 2265PEP     CB86887   8.578   4.092  10.003 -0.3832  0.0871 -0.3726
 2265PEP     CB86888   8.747   4.188   9.532  0.2229  0.1082 -0.1014
 2265PEP     CB86889   8.776   3.885   9.144  0.3337 -0.2874 -0.2193
 2265PEP     CB86890   9.031   3.474   9.274  0.1038  0.1372 -0.4014
 2265PEP     CB86891   9.276   3.436   9.681  0.4349  0.1452 -0.0765
 2265PEP     CB86892   9.500   3.643   9.941  0.1547 -0.1395  0.2657
 2265PEP     CB86893   9.871   3.550  10.266  0.1872 -0.1349 -0.2407
 2265PEP     CB86894  10.278   3.384  10.382  0.0424  0.3456 -0.0045
 2265PEP     CB86895  10.674   3.100  10.220 -0.1069 -0.2132  0.0427
 2265PEP     CB86896  11.036   2.854  10.044  0.1710  0.2084  0.2144
 2265PEP     CB86897  11.443   2.789  10.076  0.2306  0.2804 -0.0872
 2265PEP     CB86898  11.921   2.663   9.947 -0.0862  0.1952  0.0183
 2265PEP     CB86899  12.287   2.580  10.096 -0.0314  0.0968 -0.0268
 2265PEP     CB86900  12.520   2.415  10.443 -0.2846 -0.1393  0.2534
 2265PEP     CB86901  12.546   2.221  10.821 -0.1878  0.1513 -0.2177
 2265PEP     CB86902  12.743   2.170  11.223  0.0948  0.2444  0.1302
 2265PEP     CB86903  12.649   2.465  11.522 -0.0588 -0.0773  0.1242
 2265PEP     CB86904  12.290   2.731  11.450 -0.1285 -0.1032  0.2620
 2265PEP     CB86905  12.236   2.795  11.044  0.0113  0.2183 -0.1403
 2265PEP     CB86906  12.192   2.538  10.809 -0.5308 -0.2583 -0.0852
 2265PEP     CB86907  12.102   2.156  10.517  0.1504  0.1958  0.0144
 2265PEP     CB86908  12.356   1.953  10.146 -0.1524  0.2625 -0.0374
 2265PEP     CB86909  12.633   2.104   9.944 -0.1414 -0.1883  0.2871
 2265PEP     CB86910  12.748   2.528   9.933 -0.0709 -0.0207  0.0539
 2265PEP     CB86911  12.425   2.774   9.618 -0.0253  0.0326 -0.0435
 2265PEP     CB86912  12.052   2.439   9.576  0.2163 -0.0115 -0.0467
 2265PEP     CB86913  12.176   1.987   9.656 -0.0625 -0.1295  0.1395
 2265PEP     CB86914  12.260   1.506   9.422  0.2419  0.0552 -0.3820
 2265PEP     CB86915  12.194   1.021   9.476 -0.0315  0.0300  0.0866
 2265PEP     CB86916  12.227   0.558   9.656 -0.3065  0.2926 -0.0957
 2265PEP     CB86917  12.359   0.195   9.877  0.2365  0.2471  0.1679
 2265PEP     CB86918  12.654  -0.177  10.068 -0.0842 -0.1898 -0.1805
 2265PEP     CB86919  13.052  -0.446  10.093  0.3449 -0.1106 -0.0005
 2265PEP     CB86920  13.477  -0.669  10.153 -0.1603 -0.1638  0.4577
 2266PEP     CB86921  21.305   6.488  20.605  0.1758 -0.1149  0.2507
 2266PEP     CB86922  21.371   6.784  20.345 -0.1195  0.3408 -0.1521
 2266PEP     CB86923  21.255   6.896  19.906  0.1203  0.4068 -0.1995
 2266PEP     CB86924  21.199   7.112  19.576 -0.0578 -0.1061 -0.0799
 2266PEP     CB86925  21.031   7.345  19.282 -0.1999 -0.0079  0.2307
 2266PEP     CB86926  20.793   7.238  18.963  0.2077  0.1011  0.1213
 2266PEP     CB86927  20.684   7.112  18.554  0.1182 -0.0732  0.2045
 2266PEP     CB86928  20.397   7.072  18.234  0.1777  0.0127 -0.3870
 2266PEP     CB86929  20.426   7.020  17.831 -0.1434 -0.1770  0.2842
 2266PEP     CB86930  20.718   6.754  17.613 -0.2145 -0.1280  0.3988
 2266PEP     CB86931  20.960   6.557  17.300  0.2575 -0.1269  0.2851
 2266PEP     CB86932  21.467   6.462  17.248 -0.0828  0.1381  0.1456
 2266PEP     CB86933  21.702   6.836  17.139  0.1346  0.2129 -0.3310
 2266PEP     CB86934  21.513   7.320  17.239 -0.1884  0.1759 -0.1028
 2266PEP     CB86935  21.069   7.455  17.209  0.2576 -0.0261  0.2602
 2266PEP     CB86936  20.640   7.270  17.361  0.0700  0.0641  0.0194
 2266PEP     CB86937  20.378   6.917  17.280  0.0706  0.2932 -0.2192
 2266PEP     CB86938  20.041   6.562  17.279  0.1506 -0.2431 -0.1184
 2266PEP     CB86939  20.000   6.231  17.451  0.0050 -0.0822  0.1060
 2266PEP     CB86940  19.977   5.877  17.696 -0.0937 -0.3052 -0.0780
 2266PEP     CB86941  19.876   5.487  17.797  0.3636  0.3085 -0.0257
 2266PEP     CB86942  19.660   5.144  17.753  0.0720  0.1260  0.0703
 2266PEP     CB86943  19.525   4.759  17.696  0.1037 -0.0905 -0.1394
 2266PEP     CB86944  19.562   4.341  17.623 -0.1206  0.2113  0.0491
 2266PEP     CB86945  19.714   4.061  17.321  0.2413  0.1886 -0.0693
 2266PEP     CB86946  19.990   4.176  16.924 -0.0085  0.5555  0.1555
 2266PEP     CB86947  20.359   4.349  16.904 -0.3287  0.3537  0.0836
 2266PEP     CB86948  20.678   4.366  17.112 -0.3655 -0.3005  0.3076
 2266PEP     CB86949  21.138   4.239  17.222  0.0278 -0.0238 -0.0469
 2266PEP     CB86950  21.589   4.132  17.139  0.4747  0.0113  0.3316
 2266PEP     CB86951  21.917   3.898  16.973  0.2349 -0.4528 -0.1950
 2266PEP     CB86952  21.963   3.499  16.733 -0.0790 -0.1242 -0.5268
 2266PEP     CB86953  21.950   3.168  16.468 -0.2821  0.2236  0.4710
 2266PEP     CB86954  21.798   3.141  16.081 -0.1060  0.1621  0.3301
 2266PEP     CB86955  21.638   3.438  15.750  0.1631 -0.1340  0.1815
 2266PEP     CB86956  21.391   3.821  15.669 -0.1544 -0.0539  0.3770
 2266PEP     CB86957  21.084   4.118  15.597 -0.4856 -0.0190  0.2016
 2266PEP     CB86958  20.854   4.475  15.347 -0.0041 -0.2777 -0.0208
 2266PEP     CB86959  20.632   4.871  15.401 -0.2841 -0.3443  0.2429
 2266PEP     CB86960  20.223   5.053  15.276 -0.1164  0.4094 -0.2403
 2267PEP     CB86961  11.438  12.789  19.149 -0.0498 -0.0951  0.3808
 2267PEP     CB86962  11.072  12.458  19.143 -0.0294 -0.0450  0.1081
 2267PEP     CB86963  10.958  12.101  18.929 -0.3456  0.3809  0.3309
 2267PEP     CB86964  11.136  11.684  19.008 -0.0823  0.2821  0.0688
 2267PEP     CB86965  11.239  11.392  19.015 -0.0243  0.0089 -0.0090
 2267PEP     CB86966  11.123  11.029  19.184 -0.0337  0.0288 -0.0871
 2267PEP     CB86967  11.341  10.663  19.291 -0.3983  0.0428 -0.1931
 2267PEP     CB86968  11.321  10.213  19.115 -0.0019  0.0433  0.2500
 2267PEP     CB86969  11.051   9.942  18.846  0.1348 -0.0050 -0.0203
 2267PEP     CB86970  10.595   9.905  18.844 -0.3928  0.1385  0.3380
 2267PEP     CB86971  10.477  10.244  18.897  0.1806 -0.2598 -0.0074
 2267PEP     CB86972  10.572  10.720  18.822  0.2406  0.0808 -0.0664
 2267PEP     CB86973  10.570  11.056  19.010 -0.1258  0.2155  0.1755
 2267PEP     CB86974  10.762  11.397  19.200 -0.0169 -0.1529  0.2959
 2267PEP     CB86975  11.054  11.557  19.556 -0.0044  0.1192  0.2156
 2267PEP     CB86976  11.126  11.856  19.814 -0.2188  0.0005  0.0703
 2267PEP     CB86977  11.385  12.106  20.178 -0.1818 -0.2417  0.3821
 2267PEP     CB86978  11.806  12.237  20.395  0.2050  0.0495  0.2169
 2267PEP     CB86979  11.911  12.650  20.509 -0.4334  0.1020  0.0015
 2267PEP     CB86980  12.161  13.025  20.574 -0.0561 -0.1022  0.1957
 2267PEP     CB86981  12.335  13.398  20.798  0.1932  0.0496  0.0597
 2267PEP     CB86982  12.352  13.880  20.775  0.0089 -0.1752  0.2491
 2267PEP     CB86983  12.052  14.122  20.562  0.2370 -0.1077  0.0738
 2267PEP     CB86984  11.989  14.198  20.223 -0.2315 -0.2347  0.2029
 2267PEP     CB86985  11.560  14.201  20.002 -0.0126 -0.0467 -0.2190
 2267PEP     CB86986  11.349  14.554  19.890 -0.2362 -0.3775  0.1890
 2267PEP     CB86987  11.229  14.983  19.889 -0.1636  0.3401 -0.1180
 2267PEP     CB86988  10.947  15.385  19.904 -0.3413  0.1225  0.2181
 2267PEP     CB86989  10.748  15.593  19.727  0.0127  0.2056 -0.4456
 2267PEP     CB86990  10.368  15.628  19.585  0.2523 -0.3115 -0.1913
 2267PEP     CB86991  10.106  15.396  19.387  0.0912  0.0800 -0.1355
 2267PEP     CB86992  10.184  15.301  18.947  0.0754 -0.0014  0.1579
 2267PEP     CB86993  10.563  15.474  18.657  0.1573  0.3029 -0.1042
 2267PEP     CB86994  10.886  15.886  18.610  0.1163 -0.1474  0.1321
 2267PEP     CB86995  11.263  16.188  18.510 -0.1314  0.4339  0.2847
 2267PEP     CB86996  11.369  16.632  18.406  0.0262 -0.1854 -0.1283
 2267PEP     CB86997  11.123  17.028  18.212  0.1600  0.1257  0.6346
 2267PEP     CB86998  11.289  17.362  18.022 -0.5315 -0.0596 -0.2549
 2267PEP     CB86999  11.415  17.862  18.140 -0.2026 -0.2967  0.1319
 2267PEP     CB87000  11.638  18.134  18.191  0.0653  0.1004 -0.1195
 2268PEP     CB87001   0.903   5.127  20.814 -0.3184  0.1095 -0.1003
 2268PEP     CB87002   1.201   4.915  20.577  0.2099  0.0423 -0.1067
 2268PEP     CB87003   1.573   4.783  20.506  0.4857  0.0990  0.0165
 2268PEP     CB87004   1.955   4.895  20.331 -0.2039 -0.0391 -0.2149
 2268PEP     CB87005   2.305   5.161  20.114 -0.0515 -0.0970  0.1196
 2268PEP     CB87006   2.550   5.490  19.916  0.3278  0.2690  0.0284
 2268PEP     CB87007   2.742   5.723  19.578  0.0459  0.0155 -0.0829
 2268PEP     CB87008   2.911   6.054  19.322 -0.4323  0.2061  0.2837
 2268PEP     CB87009   2.870   6.244  18.931 -0.0384  0.1140  0.0231
 2268PEP     CB87010   2.684   6.109  18.552  0.0403 -0.1420  0.3102
 2268PEP     CB87011   2.770   6.102  18.123  0.3593  0.1531 -0.4179
 2268PEP     CB87012   2.527   6.227  17.746  0.3425  0.2748 -0.1955
 2268PEP     CB87013   2.477   6.485  17.256  0.0780 -0.0615 -0.2745
 2268PEP     CB87014   2.145   6.786  17.163  0.3937 -0.3636 -0.2510
 2268PEP     CB87015   1.758   6.711  17.351 -0.2698 -0.4471 -0.1728
 2268PEP     CB87016   1.346   6.476  17.414 -0.1585  0.4359 -0.0666
 2268PEP     CB87017   1.019   6.158  17.344 -0.1815  0.4196 -0.0500
 2268PEP     CB87018   0.786   6.288  17.155 -0.0528 -0.4755  0.3346
 2268PEP     CB87019   0.647   6.469  16.744 -0.1523 -0.0436  0.3119
 2268PEP     CB87020   0.516   6.693  16.383  0.1477 -0.0192 -0.2412
 2268PEP     CB87021   0.291   6.993  16.028 -0.2381 -0.2020  0.3054
 2268PEP     CB87022   0.226   7.267  15.698 -0.1108  0.0940 -0.0488
 2268PEP     CB87023  -0.007   7.600  15.468 -0.1791  0.2362  0.0114
 2268PEP     CB87024  -0.090   8.055  15.531  0.2429  0.1664 -0.0945
 2268PEP     CB87025  -0.124   8.207  16.004 -0.1448  0.1085  0.0596
 2268PEP     CB87026  -0.087   8.045  16.361  0.3322  0.2086  0.2732
 2268PEP     CB87027  -0.072   7.617  16.343  0.1589  0.2933 -0.0500
 2268PEP     CB87028  -0.203   7.202  16.066  0.3964  0.1336 -0.1101
 2268PEP     CB87029  -0.218   6.930  15.700  0.1706  0.0724 -0.0342
 2268PEP     CB87030   0.154   6.921  15.349  0.2473 -0.1930 -0.3731
 2268PEP     CB87031   0.601   6.937  15.459  0.4922  0.1087 -0.1377
 2268PEP     CB87032   1.063   6.875  15.391 -0.3380 -0.4484 -0.0074
 2268PEP     CB87033   1.295   6.526  15.631  0.1104  0.2828  0.2924
 2268PEP     CB87034   1.206   6.355  16.059  0.0355 -0.0431  0.1485
 2268PEP     CB87035   1.102   6.542  16.465 -0.1806  0.3047  0.6030
 2268PEP     CB87036   1.006   6.927  16.567  0.1839  0.1625  0.0660
 2268PEP     CB87037   0.850   7.282  16.432  0.0182 -0.1688  0.0787
 2268PEP     CB87038   0.912   7.651  16.276  0.0439 -0.4733  0.0197
 2268PEP     CB87039   1.045   7.855  15.939  0.2110 -0.3723 -0.2985
 2268PEP     CB87040   1.022   7.991  15.539 -0.1812  0.1034  0.5336
 2269PEP     CB87041  21.920  12.052   9.576  0.1801  0.1545 -0.2653
 2269PEP     CB87042  22.092  11.675   9.476  0.1428 -0.0712  0.4588
 2269PEP     CB87043  22.153  11.216   9.398  0.4614 -0.1220  0.6190
 2269PEP     CB87044  21.973  10.881   9.118 -0.3630  0.0981 -0.0861
 2269PEP     CB87045  21.900  10.544   8.832 -0.3294 -0.1155 -0.2341
 2269PEP     CB87046  21.857  10.417   8.419  0.0983 -0.0353  0.2618
 2269PEP     CB87047  21.764  10.739   8.092  0.0998  0.4469  0.2175
 2269PEP     CB87048  21.490  10.990   7.851  0.2214 -0.0247  0.0972
 2269PEP     CB87049  21.238  11.297   7.554  0.3530  0.2458  0.2238
 2269PEP     CB87050  21.071  11.518   7.197 -0.1692 -0.3551 -0.0873
 2269PEP     CB87051  21.038  11.813   6.865  0.1259 -0.1845 -0.5896
 2269PEP     CB87052  21.165  12.186   6.843 -0.2479  0.3382  0.0499
 2269PEP     CB87053  21.321  12.217   7.128 -0.0595 -0.1774  0.3777
 2269PEP     CB87054  21.299  12.012   7.473  0.0777 -0.1281  0.1232
 2269PEP     CB87055  21.038  11.834   7.811 -0.0282  0.5972  0.2968
 2269PEP     CB87056  20.788  12.126   8.128 -0.0755  0.5507 -0.3537
 2269PEP     CB87057  20.980  12.549   8.269 -0.1265 -0.0399  0.0554
 2269PEP     CB87058  21.308  12.594   8.506  0.0176  0.1958  0.3113
 2269PEP     CB87059  21.605  12.327   8.678  0.2411 -0.5785 -0.6082
 2269PEP     CB87060  21.681  11.930   8.535  0.0070 -0.0109 -0.1562
 2269PEP     CB87061  21.968  11.837   8.128 -0.1541 -0.1798 -0.0665
 2269PEP     CB87062  22.147  12.070   7.844 -0.0020 -0.0557 -0.3985
 2269PEP     CB87063  22.115  12.510   7.814  0.2256  0.1554 -0.2440
 2269PEP     CB87064  21.823  12.822   7.893 -0.1695  0.0431 -0.0984
 2269PEP     CB87065  21.435  12.736   7.943  0.1011 -0.0896  0.0591
 2269PEP     CB87066  21.041  12.936   7.876  0.1470 -0.1566  0.0457
 2269PEP     CB87067  20.917  13.310   7.915 -0.5017  0.0673 -0.3451
 2269PEP     CB87068  20.457  13.614   7.948  0.5533 -0.0394  0.2521
 2269PEP     CB87069  20.156  13.496   8.245 -0.0856 -0.1934 -0.1623
 2269PEP     CB87070  20.169  13.080   8.406 -0.0629  0.0431 -0.0102
 2269PEP     CB87071  20.476  12.786   8.667  0.0081 -0.0444  0.3255
 2269PEP     CB87072  20.632  12.387   8.575 -0.4652 -0.0806  0.2544
 2269PEP     CB87073  20.578  11.990   8.509  0.3952  0.3616  0.0320
 2269PEP     CB87074  20.328  11.714   8.685 -0.1287  0.0949  0.2971
 2269PEP     CB87075  20.191  11.298   8.687  0.0598 -0.2574 -0.1313
 2269PEP     CB87076  19.888  11.069   8.600  0.2533 -0.0203  0.4915
 2269PEP     CB87077  19.613  10.906   8.377 -0.1301  0.0843 -0.0700
 2269PEP     CB87078  19.266  10.698   8.357  0.4656 -0.1421  0.0241
 2269PEP     CB87079  19.003  10.516   8.080  0.2285 -0.1909 -0.0987
 2269PEP     CB87080  18.677  10.494   7.776  0.1469 -0.0668  0.0325
 2270PEP     CB87081   3.366  16.721  10.377  0.1616 -0.2516  0.4499
 2270PEP     CB87082   3.213  16.841  10.748 -0.3471  0.5017  0.1362
 2270PEP     CB87083   3.170  16.648  11.120  0.1886  0.3588 -0.1490
 2270PEP     CB87084   3.118  16.378  11.542 -0.0892  0.0708  0.5123
 2270PEP     CB87085   2.981  16.182  11.899  0.0890  0.0379  0.0512
 2270PEP     CB87086   2.742  16.281  12.152  0.0995 -0.0797 -0.1246
 2270PEP     CB87087   2.526  16.656  12.352 -0.1377  0.2583  0.1157
 2270PEP     CB87088   2.497  17.030  12.623 -0.3935 -0.2735  0.1529
 2270PEP     CB87089   2.792  17.313  12.883 -0.0716 -0.2355 -0.2131
 2270PEP     CB87090   3.071  17.620  13.005 -0.4097 -0.2510 -0.3570
 2270PEP     CB87091   3.455  17.874  13.078 -0.3816  0.4241 -0.2218
 2270PEP     CB87092   3.813  17.999  12.862 -0.2657 -0.1556  0.1396
 2270PEP     CB87093   4.143  18.181  12.675 -0.1499  0.3229  0.1561
 2270PEP     CB87094   4.139  18.238  12.258 -0.1605  0.1523 -0.1059
 2270PEP     CB87095   3.941  17.918  12.149  0.0725 -0.1391 -0.1017
 2270PEP     CB87096   3.866  17.513  12.314 -0.1054  0.0007 -0.2589
 2270PEP     CB87097   3.964  17.125  12.407 -0.2960  0.0634 -0.0099
 2270PEP     CB87098   4.239  16.731  12.427 -0.2692  0.0443  0.2783
 2270PEP     CB87099   4.556  16.416  12.620 -0.3184  0.5347  0.0176
 2270PEP     CB87100   4.569  16.071  12.925  0.1950  0.2276  0.3353
 2270PEP     CB87101   4.466  15.730  13.184  0.0327  0.0861 -0.1237
 2270PEP     CB87102   4.418  15.366  13.437 -0.1297  0.0430 -0.0735
 2270PEP     CB87103   4.253  15.421  13.908  0.0398 -0.1719  0.1346
 2270PEP     CB87104   3.887  15.357  14.286 -0.2000  0.1885 -0.0001
 2270PEP     CB87105   3.370  15.201  14.288 -0.2084  0.1220  0.0793
 2270PEP     CB87106   2.943  15.044  14.403 -0.2154  0.1371  0.1172
 2270PEP     CB87107   2.729  14.579  14.309  0.0501  0.3545  0.0262
 2270PEP     CB87108   2.836  14.250  14.489 -0.0739  0.4112 -0.1523
 2270PEP     CB87109   3.333  14.303  14.703 -0.0137  0.2450  0.4376
 2270PEP     CB87110   3.536  14.659  14.797  0.1349  0.1664 -0.1045
 2270PEP     CB87111   3.925  14.938  14.938 -0.2984 -0.0955  0.1244
 2270PEP     CB87112   4.306  15.128  14.989  0.0441  0.6601  0.3660
 2270PEP     CB87113   4.655  15.128  14.747  0.2194  0.1132 -0.0909
 2270PEP     CB87114   4.839  14.685  14.634 -0.2038  0.2279  0.1773
 2270PEP     CB87115   4.803  14.344  14.827 -0.1489 -0.1755  0.3400
 2270PEP     CB87116   4.950  13.993  15.116  0.1659  0.0400 -0.2819
 2270PEP     CB87117   4.768  13.559  15.287 -0.3098 -0.3078  0.0457
 2270PEP     CB87118   4.704  13.173  15.099  0.1980  0.2757 -0.0299
 2270PEP     CB87119   4.793  12.986  14.673  0.3750  0.1793 -0.4994
 2270PEP     CB87120   4.674  12.713  14.357  0.0959 -0.0033 -0.2657
 2271PEP     CB87121   3.669   7.926   5.954 -0.1632  0.2640  0.1269
 2271PEP     CB87122   3.336   7.558   5.869 -0.2218  0.1093 -0.3065
 2271PEP     CB87123   3.184   7.113   5.717  0.0837 -0.1621  0.0685
 2271PEP     CB87124   2.891   6.718   5.623 -0.0682  0.2720  0.0461
 2271PEP     CB87125   2.604   6.403   5.437  0.0869  0.2587 -0.0221
 2271PEP     CB87126   2.229   6.585   5.242 -0.1805  0.3849 -0.1846
 2271PEP     CB87127   2.072   7.038   5.219  0.1114  0.0264 -0.1355
 2271PEP     CB87128   2.296   7.340   5.005 -0.2137  0.1265 -0.1543
 2271PEP     CB87129   2.695   7.324   4.871 -0.2379  0.2388 -0.1093
 2271PEP     CB87130   3.156   7.140   4.983  0.0958  0.1298 -0.0591
 2271PEP     CB87131   3.209   6.842   5.266  0.3016 -0.0025  0.2249
 2271PEP     CB87132   2.996   6.547   5.102 -0.3453  0.1705 -0.0598
 2271PEP     CB87133   3.026   6.060   5.099  0.1927 -0.2700  0.2676
 2271PEP     CB87134   2.964   5.667   5.096  0.0794  0.2462  0.3055
 2271PEP     CB87135   2.952   5.238   5.037  0.2459 -0.0105  0.0443
 2271PEP     CB87136   2.874   4.941   4.751 -0.3767 -0.4886  0.0779
 2271PEP     CB87137   2.988   4.675   4.426  0.1015 -0.0917  0.1118
 2271PEP     CB87138   2.959   4.359   4.138 -0.0865  0.4252  0.0168
 2271PEP     CB87139   2.867   4.150   3.808 -0.0969  0.2965 -0.0224
 2271PEP     CB87140   2.833   4.097   3.365 -0.2789 -0.1592 -0.0489
 2271PEP     CB87141   3.001   4.270   3.042  0.1755 -0.2867 -0.1311
 2271PEP     CB87142   3.184   4.371   2.615 -0.1911  0.3460  0.3240
 2271PEP     CB87143   3.412   4.303   2.278 -0.1216  0.2134 -0.0886
 2271PEP     CB87144   3.420   4.267   1.887  0.2896  0.0923  0.1562
 2271PEP     CB87145   3.718   4.361   1.647 -0.2007 -0.5348 -0.0421
 2271PEP     CB87146   4.105   4.227   1.798 -0.2267 -0.0036  0.2188
 2271PEP     CB87147   4.187   4.145   2.253  0.3086  0.0796  0.2696
 2271PEP     CB87148   4.016   3.987   2.578 -0.3757  0.4420 -0.4818
 2271PEP     CB87149   3.519   3.923   2.597 -0.3651 -0.1512 -0.0928
 2271PEP     CB87150   3.296   3.640   2.266  0.0910  0.1165  0.2829
 2271PEP     CB87151   3.521   3.397   2.036  0.0013 -0.0689  0.1934
 2271PEP     CB87152   3.834   3.290   1.884  0.1655  0.1155  0.3777
 2271PEP     CB87153   4.270   3.256   1.814 -0.0858  0.1541 -0.3169
 2271PEP     CB87154   4.572   3.591   1.684  0.2146 -0.3614  0.0749
 2271PEP     CB87155   4.954   3.807   1.528  0.4050  0.0646  0.6893
 2271PEP     CB87156   5.107   3.934   1.139 -0.2096  0.1648  0.0143
 2271PEP     CB87157   4.811   4.027   0.850  0.3218  0.1673 -0.0464
 2271PEP     CB87158   4.545   3.811   0.546 -0.1757 -0.1469  0.2956
 2271PEP     CB87159   4.278   3.391   0.439 -0.0674 -0.4860 -0.2726
 2271PEP     CB87160   4.068   3.114   0.311  0.2540 -0.0319 -0.0758
 2272PEP     CB87161   2.248   8.677   0.652  0.0994 -0.2362 -0.2218
 2272PEP     CB87162   1.865   8.543   0.584 -0.0510 -0.0994 -0.4963
 2272PEP     CB87163   1.507   8.336   0.741  0.0817  0.5947  0.4603
 2272PEP     CB87164   1.591   8.048   0.991 -0.4706 -0.0957 -0.1432
 2272PEP     CB87165   1.717   7.625   1.051 -0.2749 -0.2491  0.1252
 2272PEP     CB87166   2.179   7.437   1.081 -0.3915  0.0463  0.1763
 2272PEP     CB87167   2.431   7.283   1.454  0.1881 -0.4589  0.0583
 2272PEP     CB87168   2.181   6.848   1.636  0.1906 -0.3785  0.0021
 2272PEP     CB87169   1.674   6.748   1.691 -0.1811  0.0417 -0.1842
 2272PEP     CB87170   1.360   6.988   1.606 -0.1235 -0.3852 -0.0580
 2272PEP     CB87171   1.403   7.382   1.646  0.2103 -0.1067  0.3243
 2272PEP     CB87172   1.286   7.868   1.601 -0.1353  0.2712  0.1966
 2272PEP     CB87173   1.304   8.296   1.611 -0.4527 -0.1209  0.1479
 2272PEP     CB87174   1.594   8.539   1.348  0.3184 -0.0531 -0.0596
 2272PEP     CB87175   1.944   8.288   1.175 -0.0497 -0.1367 -0.4407
 2272PEP     CB87176   2.286   7.951   1.402  0.0164 -0.1405 -0.3684
 2272PEP     CB87177   2.165   7.833   1.791 -0.3170 -0.3678 -0.1611
 2272PEP     CB87178   1.709   7.664   2.010  0.0848 -0.3413  0.1464
 2272PEP     CB87179   1.271   7.601   2.040 -0.0693  0.1289 -0.0022
 2272PEP     CB87180   0.859   7.550   1.800  0.3331 -0.1673  0.0787
 2272PEP     CB87181   0.494   7.521   1.471 -0.2535  0.0116 -0.4563
 2272PEP     CB87182   0.235   7.648   1.242  0.2194  0.2383  0.0614
 2272PEP     CB87183   0.292   7.986   1.028 -0.1430 -0.0633  0.0717
 2272PEP     CB87184   0.686   8.260   0.902  0.0013  0.1873  0.3046
 2272PEP     CB87185   1.071   8.429   0.607 -0.0703 -0.0132  0.3629
 2272PEP     CB87186   1.393   8.635   0.324 -0.2349 -0.0809 -0.1370
 2272PEP     CB87187   1.684   8.917   0.263 -0.1635 -0.3307  0.0049
 2272PEP     CB87188   1.964   9.134   0.545  0.2184 -0.2544 -0.3919
 2272PEP     CB87189   2.116   9.258   0.929 -0.1978 -0.0849 -0.0788
 2272PEP     CB87190   1.845   9.311   1.219 -0.2953  0.0226  0.3824
 2272PEP     CB87191   1.466   9.158   1.336 -0.0964  0.0809 -0.0476
 2272PEP     CB87192   1.207   8.808   1.292  0.0565  0.3773  0.1157
 2272PEP     CB87193   1.132   8.357   1.153 -0.0930 -0.3288 -0.2269
 2272PEP     CB87194   1.130   8.012   0.909  0.2940 -0.0808 -0.1990
 2272PEP     CB87195   1.398   7.668   0.658  0.2827  0.1350  0.2638
 2272PEP     CB87196   1.837   7.428   0.539  0.2454 -0.0163  0.4749
 2272PEP     CB87197   2.065   7.094   0.366  0.1485 -0.2795  0.3198
 2272PEP     CB87198   2.240   6.760   0.165  0.0436 -0.5280  0.1127
 2272PEP     CB87199   2.349   6.370   0.325 -0.4443 -0.1652 -0.3210
 2272PEP     CB87200   2.406   6.074   0.528  0.0925 -0.1370 -0.2302
 2273PEP     CB87201   5.445   1.089  20.133  0.2581 -0.0149 -0.3477
 2273PEP     CB87202   5.703   0.777  20.331 -0.1198  0.1231  0.2444
 2273PEP     CB87203   5.839   0.396  20.569 -0.1825 -0.0695 -0.2837
 2273PEP     CB87204   5.933  -0.052  20.693  0.2473  0.0625 -0.0495
 2273PEP     CB87205   5.975  -0.465  20.796  0.0812  0.2230 -0.1755
 2273PEP     CB87206   5.891  -0.883  20.977 -0.0142 -0.6511  0.0299
 2273PEP     CB87207   5.983  -1.298  21.014 -0.0805  0.0998  0.1709
 2273PEP     CB87208   6.205  -1.699  21.109  0.3263 -0.3113 -0.2291
 2273PEP     CB87209   6.477  -1.653  21.415 -0.6046 -0.1620 -0.3036
 2273PEP     CB87210   6.716  -1.283  21.393  0.4644 -0.1375  0.0650
 2273PEP     CB87211   6.716  -0.946  21.188  0.0451 -0.3216  0.0899
 2273PEP     CB87212   6.775  -0.499  21.070  0.0545  0.0069 -0.4731
 2273PEP     CB87213   6.690  -0.067  21.346  0.2637 -0.0046 -0.2727
 2273PEP     CB87214   6.343  -0.043  21.668  0.3747  0.0703  0.6435
 2273PEP     CB87215   6.009  -0.355  21.667  0.3530  0.2377  0.0584
 2273PEP     CB87216   5.693  -0.648  21.425  0.0347 -0.0878 -0.0611
 2273PEP     CB87217   5.377  -0.888  21.304 -0.1888 -0.0739  0.0679
 2273PEP     CB87218   4.914  -1.060  21.260  0.1485  0.3748 -0.3121
 2273PEP     CB87219   4.477  -1.107  21.367  0.1348 -0.4851 -0.1136
 2273PEP     CB87220   4.156  -1.029  21.168 -0.1812  0.2665  0.0294
 2273PEP     CB87221   4.122  -0.691  20.859 -0.1046 -0.3467 -0.2676
 2273PEP     CB87222   4.451  -0.405  20.696 -0.2529 -0.4646 -0.1788
 2273PEP     CB87223   4.383   0.092  20.818 -0.1256  0.3221 -0.0214
 2273PEP     CB87224   4.073   0.196  21.063  0.1291  0.2025 -0.2958
 2273PEP     CB87225   3.710   0.158  21.249 -0.0814  0.1449  0.1428
 2273PEP     CB87226   3.464   0.179  21.708 -0.1909  0.0307 -0.3223
 2273PEP     CB87227   3.526   0.537  22.021  0.0870  0.0312  0.1079
 2273PEP     CB87228   3.229   0.769  22.241  0.3587 -0.1493 -0.0301
 2273PEP     CB87229   2.962   0.566  22.509 -0.2923  0.1764  0.4305
 2273PEP     CB87230   3.115   0.314  22.859  0.3657 -0.4540  0.3041
 2273PEP     CB87231   3.422   0.412  23.233  0.2852  0.0250 -0.1731
 2273PEP     CB87232   3.417   0.381  23.691 -0.2314 -0.2873  0.1048
 2273PEP     CB87233   3.564   0.357  24.087  0.4517  0.2311 -0.1013
 2273PEP     CB87234   3.923   0.377  24.383  0.0586 -0.2365  0.2053
 2273PEP     CB87235   4.296   0.408  24.622 -0.1741  0.1612  0.0696
 2273PEP     CB87236   4.618   0.594  24.864 -0.1878 -0.1644  0.5033
 2273PEP     CB87237   4.694   0.587  25.331  0.1515  0.2984  0.1049
 2273PEP     CB87238   4.327   0.554  25.650  0.0938  0.5345 -0.1847
 2273PEP     CB87239   3.949   0.553  25.458 -0.0268 -0.4253  0.2236
 2273PEP     CB87240   3.536   0.330  25.416 -0.0099  0.3710  0.0729
 2274PEP     CB87241  19.011   0.418   8.630  0.2509  0.2905 -0.1553
 2274PEP     CB87242  19.268   0.785   8.777  0.1652  0.1149 -0.0659
 2274PEP     CB87243  19.549   1.035   8.786  0.0509 -0.0541  0.3561
 2274PEP     CB87244  19.592   1.353   8.993 -0.0145  0.0236  0.2565
 2274PEP     CB87245  19.701   1.804   8.900 -0.1051  0.2460 -0.1301
 2274PEP     CB87246  19.742   1.974   8.527 -0.0667 -0.1707  0.2976
 2274PEP     CB87247  19.963   1.643   8.173 -0.0867  0.0659 -0.2252
 2274PEP     CB87248  20.101   1.350   8.323  0.4260  0.2557  0.2776
 2274PEP     CB87249  20.026   1.261   8.751 -0.1027 -0.0728 -0.0387
 2274PEP     CB87250  20.107   1.461   9.033 -0.1063 -0.1363  0.0553
 2274PEP     CB87251  20.409   1.671   9.314  0.2026 -0.0330  0.3632
 2274PEP     CB87252  20.724   1.866   9.495  0.0352 -0.0495 -0.0089
 2274PEP     CB87253  21.034   1.997   9.696 -0.2654 -0.2893 -0.2695
 2274PEP     CB87254  21.393   1.959   9.659 -0.0004 -0.0093  0.0635
 2274PEP     CB87255  21.665   2.015   9.304  0.0871  0.4299  0.2820
 2274PEP     CB87256  22.084   1.925   9.121 -0.1525 -0.3347 -0.0907
 2274PEP     CB87257  22.468   1.872   9.066  0.3641 -0.0001  0.3268
 2274PEP     CB87258  22.833   1.764   9.245 -0.0998  0.0937 -0.0866
 2274PEP     CB87259  23.137   1.515   9.428  0.1807  0.3807  0.5003
 2274PEP     CB87260  23.489   1.171   9.514  0.3282  0.2383 -0.3909
 2274PEP     CB87261  23.751   0.845   9.663 -0.3651 -0.2722 -0.1200
 2274PEP     CB87262  24.118   0.670   9.541  0.0120  0.1746 -0.2227
 2274PEP     CB87263  24.352   0.671   9.184 -0.0976 -0.1333  0.3082
 2274PEP     CB87264  24.728   0.755   8.884  0.3138  0.1863 -0.0485
 2274PEP     CB87265  25.106   0.866   8.577 -0.0200  0.1144  0.1029
 2274PEP     CB87266  25.301   0.838   8.060  0.1614  0.5289  0.1395
 2274PEP     CB87267  25.381   0.807   7.605  0.3161 -0.3355  0.1345
 2274PEP     CB87268  25.655   0.729   7.198 -0.3127  0.0880  0.0888
 2274PEP     CB87269  26.081   0.738   7.102  0.1385 -0.3381  0.0363
 2274PEP     CB87270  26.406   0.854   7.360  0.1015  0.3745 -0.0492
 2274PEP     CB87271  26.445   1.029   7.811  0.0297  0.1209  0.0676
 2274PEP     CB87272  26.441   1.426   7.997 -0.4632  0.4751  0.3301
 2274PEP     CB87273  26.347   1.806   7.774  0.1551  0.1008  0.0649
 2274PEP     CB87274  26.036   1.802   7.470  0.0035  0.3237  0.0379
 2274PEP     CB87275  25.650   1.544   7.460 -0.2808 -0.2444 -0.0022
 2274PEP     CB87276  25.598   1.261   7.730 -0.0015  0.1468  0.1036
 2274PEP     CB87277  25.812   0.861   7.936 -0.1764  0.0728 -0.0084
 2274PEP     CB87278  26.129   0.823   8.316 -0.4450  0.0344 -0.1616
 2274PEP     CB87279  26.419   0.799   8.745  0.1535 -0.2304 -0.1332
 2274PEP     CB87280  26.806   0.821   8.948  0.1419 -0.0853 -0.2472
 2275PEP     CB87281  18.020  12.478  16.819  0.5759  0.0944  0.1149
 2275PEP     CB87282  18.037  12.138  17.146 -0.0895 -0.1194 -0.0427
 2275PEP     CB87283  18.292  12.093  17.437  0.1263  0.0732  0.2702
 2275PEP     CB87284  18.492  11.856  17.816  0.0108 -0.3138 -0.2615
 2275PEP     CB87285  18.718  11.498  17.891  0.1560  0.1529  0.1726
 2275PEP     CB87286  18.628  11.084  17.694 -0.5852 -0.4504 -0.0078
 2275PEP     CB87287  18.231  10.979  17.503 -0.3171  0.1359 -0.1370
 2275PEP     CB87288  17.821  11.213  17.523 -0.0715  0.0149  0.1001
 2275PEP     CB87289  17.530  11.501  17.569 -0.1710  0.1631  0.1199
 2275PEP     CB87290  17.513  11.841  17.845 -0.4945  0.0704  0.1402
 2275PEP     CB87291  17.525  12.138  18.181  0.3149  0.1294 -0.4230
 2275PEP     CB87292  17.448  12.060  18.572 -0.4225 -0.2074 -0.0384
 2275PEP     CB87293  17.147  11.687  18.786 -0.1273 -0.2477  0.3245
 2275PEP     CB87294  16.988  11.353  18.796 -0.3557  0.0572 -0.2760
 2275PEP     CB87295  16.992  10.906  18.776 -0.2767 -0.0179 -0.0960
 2275PEP     CB87296  17.022  10.481  18.685  0.2201  0.2434  0.1031
 2275PEP     CB87297  16.796  10.131  18.721 -0.3822  0.0462 -0.1654
 2275PEP     CB87298  16.543  10.157  18.448  0.1593 -0.2734  0.2732
 2275PEP     CB87299  16.284  10.432  18.177 -0.1306 -0.2352 -0.0326
 2275PEP     CB87300  15.910  10.445  18.249 -0.2938  0.2469  0.1856
 2275PEP     CB87301  15.761  10.248  18.716  0.0402  0.4203  0.0471
 2275PEP     CB87302  15.636   9.827  18.731 -0.1875  0.3534 -0.0324
 2275PEP     CB87303  15.817   9.520  18.469 -0.1817 -0.0186  0.1512
 2275PEP     CB87304  16.225   9.479  18.257 -0.4358 -0.1295 -0.1730
 2275PEP     CB87305  16.572   9.294  18.215  0.3769  0.4954 -0.1355
 2275PEP     CB87306  17.073   9.328  18.392 -0.2619  0.5145 -0.1940
 2275PEP     CB87307  17.520   9.415  18.221 -0.4038  0.0405 -0.0887
 2275PEP     CB87308  17.803   9.605  17.799 -0.0601  0.0987  0.2078
 2275PEP     CB87309  17.966   9.892  17.493  0.1470 -0.1466  0.1827
 2275PEP     CB87310  18.122   9.965  17.050  0.4743  0.2606 -0.1035
 2275PEP     CB87311  18.012   9.980  16.628  0.6251 -0.0290 -0.0051
 2275PEP     CB87312  17.636  10.013  16.500  0.0262 -0.0141 -0.2518
 2275PEP     CB87313  17.253   9.734  16.505  0.0824 -0.0605  0.5335
 2275PEP     CB87314  16.948   9.383  16.308  0.0121  0.0459  0.0113
 2275PEP     CB87315  16.712   9.044  16.511  0.2251 -0.3062  0.3439
 2275PEP     CB87316  16.365   8.796  16.570 -0.2531  0.1883 -0.2396
 2275PEP     CB87317  15.941   8.825  16.341  0.1221 -0.2597 -0.0867
 2275PEP     CB87318  15.668   9.099  16.478 -0.3281 -0.0469 -0.1055
 2275PEP     CB87319  15.214   9.209  16.707 -0.4515 -0.2425  0.0485
 2275PEP     CB87320  14.987   9.507  16.974  0.0336 -0.1961  0.2209
 2276PEP     CB87321   6.827  13.034  19.702  0.1815  0.2421  0.0240
 2276PEP     CB87322   7.250  12.905  19.782  0.2355  0.2036  0.0394
 2276PEP     CB87323   7.610  12.854  19.441 -0.2871 -0.1206  0.3022
 2276PEP     CB87324   7.589  12.954  19.005 -0.0348 -0.0560 -0.0870
 2276PEP     CB87325   7.668  12.836  18.571  0.0105 -0.0529 -0.0086
 2276PEP     CB87326   8.080  12.586  18.443 -0.0054 -0.0647  0.0657
 2276PEP     CB87327   8.476  12.620  18.773 -0.0734  0.0888 -0.4767
 2276PEP     CB87328   8.694  12.664  19.250 -0.0344  0.3914 -0.0963
 2276PEP     CB87329   8.713  12.862  19.645 -0.0403  0.1453 -0.0404
 2276PEP     CB87330   8.622  13.005  20.043 -0.0784 -0.2997  0.1221
 2276PEP     CB87331   8.645  13.171  20.434  0.4616  0.0759 -0.2982
 2276PEP     CB87332   8.718  12.929  20.781  0.1798 -0.3757  0.1995
 2276PEP     CB87333   8.544  12.680  21.122 -0.1460  0.1462  0.1652
 2276PEP     CB87334   8.437  12.597  21.515 -0.1439  0.0490 -0.0491
 2276PEP     CB87335   8.615  12.501  21.958  0.3039  0.3839  0.4234
 2276PEP     CB87336   8.404  12.160  22.260  0.2235  0.0960 -0.1495
 2276PEP     CB87337   8.048  12.021  22.284 -0.0782  0.0807  0.6394
 2276PEP     CB87338   7.647  12.105  22.066  0.3049 -0.3884 -0.2756
 2276PEP     CB87339   7.366  12.514  21.853 -0.1853 -0.3761 -0.0648
 2276PEP     CB87340   7.583  12.923  21.754 -0.0668 -0.0343  0.1003
 2276PEP     CB87341   7.935  12.926  21.492  0.0634  0.2184 -0.0665
 2276PEP     CB87342   8.402  13.214  21.512  0.3399 -0.2049 -0.4898
 2276PEP     CB87343   8.502  13.555  21.812  0.4851 -0.3477 -0.2300
 2276PEP     CB87344   8.575  13.874  22.080 -0.1426  0.3317 -0.0934
 2276PEP     CB87345   8.433  14.386  22.252 -0.4316  0.0288  0.1852
 2276PEP     CB87346   8.592  14.767  22.112  0.0222  0.1630 -0.2674
 2276PEP     CB87347   8.713  14.883  21.655  0.0194  0.4860  0.0163
 2276PEP     CB87348   8.439  15.035  21.307 -0.0815  0.1560 -0.1988
 2276PEP     CB87349   7.975  14.896  21.243 -0.1160  0.1589 -0.6067
 2276PEP     CB87350   7.669  14.865  21.674  0.1627 -0.1397  0.1235
 2276PEP     CB87351   7.703  15.229  21.962 -0.2123  0.0111  0.0267
 2276PEP     CB87352   7.783  15.667  21.973  0.0044 -0.2128  0.2852
 2276PEP     CB87353   7.971  16.157  21.994 -0.3952 -0.0570  0.0214
 2276PEP     CB87354   8.122  16.668  21.972  0.0587  0.4191  0.0334
 2276PEP     CB87355   8.202  16.901  21.617  0.1392 -0.0414  0.1081
 2276PEP     CB87356   8.400  16.658  21.238 -0.2179  0.2367  0.0966
 2276PEP     CB87357   8.680  16.823  20.953 -0.0181  0.0447  0.1947
 2276PEP     CB87358   8.618  17.007  20.543  0.0761 -0.2117 -0.1205
 2276PEP     CB87359   8.234  17.314  20.502 -0.1136 -0.1705  0.0628
 2276PEP     CB87360   8.196  17.599  20.808  0.0220 -0.0803  0.1020
 2277PEP     CB87361   0.640  13.807  12.669  0.2310  0.0513  0.2005
 2277PEP     CB87362   0.297  13.970  12.616  0.0186  0.0195 -0.2939
 2277PEP     CB87363  -0.096  13.980  12.492 -0.1403  0.1123  0.4683
 2277PEP     CB87364  -0.370  14.176  12.339  0.1564  0.0448  0.1568
 2277PEP     CB87365  -0.661  14.279  12.036 -0.0721  0.3701  0.0626
 2277PEP     CB87366  -0.955  14.151  11.689  0.2627 -0.2335  0.1500
 2277PEP     CB87367  -0.947  14.077  11.309  0.1983 -0.0669  0.0145
 2277PEP     CB87368  -1.060  14.408  10.929  0.2647 -0.3554 -0.3338
 2277PEP     CB87369  -1.312  14.780  10.975 -0.1381  0.2585  0.0637
 2277PEP     CB87370  -1.442  15.188  11.186  0.4435 -0.0588 -0.3006
 2277PEP     CB87371  -1.819  15.416  11.213 -0.0778  0.3775 -0.0916
 2277PEP     CB87372  -2.066  15.531  10.813 -0.0795 -0.0040  0.0848
 2277PEP     CB87373  -2.368  15.338  10.500  0.0497 -0.0119 -0.2039
 2277PEP     CB87374  -2.578  14.907  10.347  0.1709 -0.0882  0.0738
 2277PEP     CB87375  -2.907  14.652  10.590 -0.1784 -0.4132  0.1365
 2277PEP     CB87376  -3.200  14.523  10.938  0.0480 -0.3202 -0.1599
 2277PEP     CB87377  -3.387  14.347  11.404 -0.2994 -0.1751  0.3678
 2277PEP     CB87378  -3.525  14.200  11.803  0.4033  0.2227 -0.3090
 2277PEP     CB87379  -3.737  14.165  12.160 -0.2213  0.1082 -0.1609
 2277PEP     CB87380  -3.797  14.007  12.558 -0.0202  0.3627  0.1153
 2277PEP     CB87381  -4.110  13.835  12.860 -0.0183  0.1943 -0.2857
 2277PEP     CB87382  -4.305  13.736  13.293 -0.0062  0.1452 -0.4088
 2277PEP     CB87383  -4.420  13.638  13.788  0.1485  0.2559 -0.6541
 2277PEP     CB87384  -4.633  13.361  14.186  0.2847  0.1157  0.1105
 2277PEP     CB87385  -4.755  13.003  14.324  0.1403  0.2327 -0.1534
 2277PEP     CB87386  -5.198  12.937  14.506  0.3961  0.1250 -0.1406
 2277PEP     CB87387  -5.554  13.130  14.293  0.0200  0.2903 -0.2545
 2277PEP     CB87388  -5.627  13.274  13.918 -0.0706  0.1564  0.2213
 2277PEP     CB87389  -5.334  13.572  13.784 -0.0776  0.0229 -0.0675
 2277PEP     CB87390  -4.979  13.795  14.041  0.1439 -0.3107 -0.1013
 2277PEP     CB87391  -4.969  14.069  14.389 -0.1779  0.1121 -0.2302
 2277PEP     CB87392  -5.194  14.341  14.594 -0.0814  0.1076 -0.1219
 2277PEP     CB87393  -5.381  14.775  14.712 -0.3254  0.2346  0.2602
 2277PEP     CB87394  -5.491  15.079  14.891  0.1728  0.4723  0.1100
 2277PEP     CB87395  -5.681  15.433  14.729  0.0371  0.1801 -0.0422
 2277PEP     CB87396  -5.496  15.553  14.352  0.0194 -0.2765  0.0643
 2277PEP     CB87397  -5.653  15.412  13.888  0.2474  0.3763  0.2147
 2277PEP     CB87398  -5.854  15.066  13.707 -0.2587  0.2596 -0.0496
 2277PEP     CB87399  -6.136  14.708  13.621  0.1416 -0.2552  0.2188
 2277PEP     CB87400  -6.084  14.334  13.676 -0.2046 -0.1940  0.2969
 2278PEP     CB87401  21.976   3.567  16.060  0.1109  0.2556  0.1328
 2278PEP     CB87402  22.366   3.458  16.014 -0.8600 -0.0287  0.0883
 2278PEP     CB87403  22.521   3.064  16.242 -0.0075 -0.0918  0.2203
 2278PEP     CB87404  22.455   3.042  16.714  0.2095  0.1742 -0.0120
 2278PEP     CB87405  22.339   3.425  16.933  0.5011  0.0553 -0.1157
 2278PEP     CB87406  22.448   3.908  16.961 -0.1577  0.0211 -0.0770
 2278PEP     CB87407  22.250   4.308  16.973 -0.1281  0.1499  0.2992
 2278PEP     CB87408  21.937   4.649  17.123  0.3850 -0.2223  0.2766
 2278PEP     CB87409  21.936   5.052  17.391 -0.2593  0.4488  0.1821
 2278PEP     CB87410  21.956   5.304  17.749 -0.2251 -0.1303 -0.0114
 2278PEP     CB87411  21.984   5.313  18.192 -0.3710 -0.1993  0.0280
 2278PEP     CB87412  22.245   5.419  18.615 -0.0085 -0.1276 -0.0733
 2278PEP     CB87413  22.139   5.603  19.052 -0.2739  0.3757  0.1982
 2278PEP     CB87414  21.881   5.774  19.403  0.1374  0.1956  0.2412
 2278PEP     CB87415  21.785   5.951  19.843  0.3989 -0.1589  0.0551
 2278PEP     CB87416  21.784   6.118  20.234 -0.0629  0.3493  0.3599
 2278PEP     CB87417  21.858   6.306  20.541 -0.1740 -0.2630  0.0394
 2278PEP     CB87418  21.847   6.725  20.685  0.1993  0.0017 -0.2011
 2278PEP     CB87419  21.823   6.939  21.071  0.1163  0.7631  0.1314
 2278PEP     CB87420  22.208   6.910  21.454 -0.3571  0.1667  0.0908
 2278PEP     CB87421  22.604   7.001  21.654 -0.1452  0.0038 -0.2062
 2278PEP     CB87422  22.943   6.953  21.994  0.1928 -0.0015 -0.2763
 2278PEP     CB87423  23.233   7.039  22.210 -0.5721  0.2432 -0.4422
 2278PEP     CB87424  23.483   6.959  22.505  0.2056  0.1052  0.2790
 2278PEP     CB87425  23.528   7.040  22.891  0.0193 -0.2418 -0.0771
 2278PEP     CB87426  23.358   7.237  23.163 -0.0252 -0.2121 -0.1352
 2278PEP     CB87427  23.222   7.584  23.218 -0.1000 -0.1519  0.0020
 2278PEP     CB87428  22.929   7.770  23.313  0.1009 -0.0101 -0.2105
 2278PEP     CB87429  22.647   8.065  23.448 -0.1738  0.0598 -0.0290
 2278PEP     CB87430  22.326   8.318  23.652  0.2049 -0.0435 -0.1937
 2278PEP     CB87431  22.312   8.637  23.930 -0.3982 -0.1107  0.0384
 2278PEP     CB87432  22.545   8.888  24.284  0.1562 -0.1527  0.0644
 2278PEP     CB87433  22.636   9.125  24.584  0.2909 -0.2434  0.0742
 2278PEP     CB87434  22.592   9.386  24.945 -0.4424 -0.1519  0.2624
 2278PEP     CB87435  22.568   9.690  25.259  0.0722 -0.2847 -0.0528
 2278PEP     CB87436  22.318   9.865  25.601  0.0946 -0.0766 -0.0812
 2278PEP     CB87437  21.950  10.143  25.622  0.1606 -0.1064  0.1930
 2278PEP     CB87438  21.606  10.441  25.746 -0.4829  0.0648 -0.0703
 2278PEP     CB87439  21.180  10.509  25.934  0.0700  0.0174 -0.0793
 2278PEP     CB87440  20.947  10.618  26.268 -0.4744  0.1200 -0.3044
 2279PEP     CB87441  13.978  20.641   0.264  0.5043  0.1705  0.0091
 2279PEP     CB87442  13.963  20.743   0.655  0.1034  0.0201  0.4109
 2279PEP     CB87443  13.816  20.990   1.023  0.1784  0.0301 -0.2681
 2279PEP     CB87444  13.572  21.169   1.319  0.0255  0.1301 -0.0728
 2279PEP     CB87445  13.277  21.378   1.694 -0.2123  0.3253 -0.1170
 2279PEP     CB87446  13.131  21.824   1.860  0.0381 -0.1003  0.0417
 2279PEP     CB87447  13.207  22.169   1.855  0.0178  0.0897 -0.5144
 2279PEP     CB87448  13.572  22.414   1.769 -0.1302  0.1449 -0.3204
 2279PEP     CB87449  13.825  22.659   2.056 -0.1526 -0.1322 -0.0079
 2279PEP     CB87450  14.027  22.944   2.410 -0.0501 -0.0787 -0.2082
 2279PEP     CB87451  14.213  22.944   2.808  0.1859  0.0718 -0.3980
 2279PEP     CB87452  14.270  23.144   3.193 -0.0016 -0.0047  0.0541
 2279PEP     CB87453  14.311  22.861   3.530 -0.2242 -0.4850  0.2178
 2279PEP     CB87454  14.285  22.381   3.634 -0.0825  0.0740  0.4975
 2279PEP     CB87455  14.419  22.126   3.383 -0.2100  0.0957  0.1569
 2279PEP     CB87456  14.410  21.684   3.328  0.3416  0.1226  0.1963
 2279PEP     CB87457  14.505  21.265   3.293 -0.2137 -0.3719  0.1208
 2279PEP     CB87458  14.534  20.999   2.936 -0.0105  0.0158 -0.3110
 2279PEP     CB87459  14.309  20.648   2.617 -0.1506  0.4897 -0.1267
 2279PEP     CB87460  14.425  20.204   2.531 -0.1823  0.2170  0.0543
 2279PEP     CB87461  14.430  19.774   2.310 -0.1922 -0.2147 -0.1293
 2279PEP     CB87462  14.623  19.368   2.233  0.6154 -0.1457 -0.4402
 2279PEP     CB87463  14.658  18.989   2.398 -0.0605  0.2281  0.4923
 2279PEP     CB87464  14.458  18.598   2.680 -0.0427  0.0643  0.0829
 2279PEP     CB87465  14.205  18.452   3.124 -0.1322 -0.0178 -0.2431
 2279PEP     CB87466  13.839  18.241   3.294  0.3786 -0.1201  0.1755
 2279PEP     CB87467  13.472  18.186   3.152 -0.0234 -0.0040  0.4315
 2279PEP     CB87468  13.331  18.292   2.699 -0.4767  0.1875 -0.4182
 2279PEP     CB87469  13.361  18.195   2.286 -0.1038  0.0321 -0.2898
 2279PEP     CB87470  13.337  18.082   1.861  0.0982  0.0666  0.1121
 2279PEP     CB87471  13.411  17.958   1.484 -0.2605  0.4394  0.3214
 2279PEP     CB87472  13.227  17.641   1.147 -0.2585  0.2535 -0.0393
 2279PEP     CB87473  12.898  17.324   1.125 -0.2263  0.1973 -0.0123
 2279PEP     CB87474  12.521  17.332   0.931 -0.4309 -0.1250  0.3584
 2279PEP     CB87475  12.336  17.341   0.574  0.2347  0.0599 -0.1315
 2279PEP     CB87476  12.325  17.008   0.168 -0.0273  0.0219 -0.3462
 2279PEP     CB87477  12.675  16.906  -0.198  0.1622  0.1865 -0.1813
 2279PEP     CB87478  13.115  17.105  -0.338 -0.1064 -0.2602  0.1777
 2279PEP     CB87479  13.409  17.404  -0.372 -0.0102  0.0007 -0.0922
 2279PEP     CB87480  13.715  17.747  -0.464 -0.1239 -0.3603 -0.0490
 2280PEP     CB87481   2.103   9.568  16.008  0.1128 -0.1108  0.2760
 2280PEP     CB87482   2.317   9.353  16.342  0.0925  0.0817 -0.0866
 2280PEP     CB87483   2.405   9.054  16.736  0.0765  0.0981 -0.0371
 2280PEP     CB87484   2.137   8.768  16.995  0.1113 -0.0447 -0.2796
 2280PEP     CB87485   2.212   8.510  17.318 -0.6682  0.2945 -0.1931
 2280PEP     CB87486   2.568   8.274  17.501 -0.1214 -0.0178 -0.4784
 2280PEP     CB87487   2.890   7.994  17.589 -0.0301  0.2579  0.1354
 2280PEP     CB87488   3.326   7.982  17.717  0.0087 -0.0842  0.0141
 2280PEP     CB87489   3.559   8.191  17.451 -0.1121 -0.1287 -0.1405
 2280PEP     CB87490   3.337   8.495  17.180 -0.2742  0.0711  0.3029
 2280PEP     CB87491   2.983   8.577  17.286  0.3427 -0.1112  0.0962
 2280PEP     CB87492   2.852   8.550  17.723 -0.3623 -0.3475  0.2445
 2280PEP     CB87493   3.002   8.802  18.122  0.0501 -0.3227  0.0667
 2280PEP     CB87494   3.427   8.818  18.223 -0.0795 -0.1482 -0.0879
 2280PEP     CB87495   3.706   8.511  18.191  0.0873 -0.2504  0.0569
 2280PEP     CB87496   3.792   8.174  17.904  0.0315  0.2461  0.3669
 2280PEP     CB87497   4.015   7.973  17.572 -0.1122 -0.2813  0.2466
 2280PEP     CB87498   4.243   7.665  17.208 -0.0894  0.3889  0.5006
 2280PEP     CB87499   4.664   7.520  17.226 -0.0528 -0.2453 -0.2171
 2280PEP     CB87500   4.920   7.510  17.623 -0.0540  0.2372 -0.2015
 2280PEP     CB87501   4.850   7.819  17.963  0.1220  0.2256  0.1894
 2280PEP     CB87502   4.861   7.861  18.350  0.3451  0.3320  0.2842
 2280PEP     CB87503   4.935   7.796  18.856  0.2297 -0.1926  0.1428
 2280PEP     CB87504   5.083   7.690  19.270 -0.0274  0.0084  0.4041
 2280PEP     CB87505   5.297   7.836  19.630 -0.1142  0.1385 -0.1116
 2280PEP     CB87506   5.586   7.938  19.817 -0.0667 -0.3020 -0.0332
 2280PEP     CB87507   5.864   7.988  20.151 -0.1708 -0.1659 -0.0315
 2280PEP     CB87508   6.241   7.847  20.408  0.0732 -0.1205 -0.1100
 2280PEP     CB87509   6.548   7.526  20.625  0.4648 -0.1619  0.0298
 2280PEP     CB87510   6.689   7.224  20.929 -0.1689 -0.1465 -0.2184
 2280PEP     CB87511   6.729   6.830  20.964  0.1210 -0.0686 -0.5295
 2280PEP     CB87512   6.865   6.442  20.676  0.0199 -0.2109  0.2382
 2280PEP     CB87513   6.801   6.017  20.565  0.1228  0.1415 -0.1307
 2280PEP     CB87514   6.432   5.725  20.619 -0.0722  0.2101 -0.2274
 2280PEP     CB87515   6.297   5.361  20.920  0.4446 -0.0620 -0.5080
 2280PEP     CB87516   5.965   5.111  21.233  0.1087  0.3342  0.1762
 2280PEP     CB87517   5.694   4.732  21.420  0.2387 -0.3170 -0.3025
 2280PEP     CB87518   5.680   4.436  21.649 -0.3213 -0.5417 -0.2523
 2280PEP     CB87519   5.271   4.173  21.741  0.0389 -0.1937 -0.1135
 2280PEP     CB87520   4.789   4.224  21.756  0.0200 -0.1367  0.0564
 2281PEP     CB87521   7.478  10.845  15.655  0.0956 -0.1938  0.1222
 2281PEP     CB87522   7.333  10.383  15.760  0.0920 -0.1960  0.2589
 2281PEP     CB87523   7.344  10.031  16.110 -0.1815  0.4367  0.1355
 2281PEP     CB87524   7.368   9.887  16.556 -0.3695  0.0301  0.1825
 2281PEP     CB87525   7.365   9.532  16.852  0.3955 -0.3644  0.2193
 2281PEP     CB87526   7.386   9.296  17.194  0.1752 -0.2826 -0.0790
 2281PEP     CB87527   7.271   8.965  17.522  0.1781  0.3404  0.1659
 2281PEP     CB87528   7.121   8.832  17.920  0.0551  0.0116  0.1331
 2281PEP     CB87529   6.899   8.558  18.143 -0.2454  0.0523  0.3524
 2281PEP     CB87530   6.676   8.269  18.394  0.0849  0.2326  0.2321
 2281PEP     CB87531   6.411   8.258  18.870 -0.2591  0.2628 -0.0861
 2281PEP     CB87532   6.069   8.365  19.142  0.0747 -0.2754  0.0959
 2281PEP     CB87533   6.085   8.688  19.309 -0.2331 -0.2565  0.0447
 2281PEP     CB87534   5.701   8.959  19.290 -0.2051 -0.3306  0.1965
 2281PEP     CB87535   5.320   8.871  19.462 -0.2442  0.0543  0.1367
 2281PEP     CB87536   5.061   8.591  19.792  0.0684 -0.4629  0.1317
 2281PEP     CB87537   4.921   8.273  19.660 -0.0272  0.5634  0.1417
 2281PEP     CB87538   4.999   8.192  19.237  0.2816  0.0424  0.1795
 2281PEP     CB87539   4.783   8.355  18.767  0.0178  0.2027 -0.1804
 2281PEP     CB87540   4.444   8.157  18.604  0.4705  0.1003  0.1722
 2281PEP     CB87541   4.101   7.946  18.441 -0.0951  0.2577  0.3100
 2281PEP     CB87542   3.868   7.659  18.501  0.4645  0.1112 -0.2550
 2281PEP     CB87543   3.615   7.681  18.725  0.0978 -0.0524 -0.4748
 2281PEP     CB87544   3.325   7.991  18.978 -0.2393 -0.4431 -0.4006
 2281PEP     CB87545   3.211   7.964  19.453 -0.0191  0.0822  0.1388
 2281PEP     CB87546   3.363   7.602  19.686 -0.0211 -0.0522  0.0667
 2281PEP     CB87547   3.730   7.478  19.705  0.3021 -0.3444  0.1489
 2281PEP     CB87548   4.142   7.485  19.833  0.0203 -0.2076  0.0973
 2281PEP     CB87549   4.584   7.635  19.900 -0.1307 -0.0719  0.1670
 2281PEP     CB87550   5.018   7.761  20.105  0.2214 -0.0429 -0.1975
 2281PEP     CB87551   5.430   7.639  20.323 -0.1645  0.4883  0.1100
 2281PEP     CB87552   5.748   7.692  20.580 -0.1234 -0.0016  0.0942
 2281PEP     CB87553   5.982   7.982  20.835  0.0448  0.0719 -0.2138
 2281PEP     CB87554   5.972   8.255  21.094  0.2643  0.1428 -0.2235
 2281PEP     CB87555   5.969   8.632  21.405  0.1592 -0.0073 -0.0380
 2281PEP     CB87556   5.702   8.900  21.699  0.1949 -0.1340  0.1581
 2281PEP     CB87557   5.277   9.105  21.781  0.0140  0.2576  0.0001
 2281PEP     CB87558   5.072   9.445  21.823 -0.1259  0.2589  0.0903
 2281PEP     CB87559   4.822   9.776  22.048 -0.1139  0.0093  0.1751
 2281PEP     CB87560   4.740  10.225  22.224 -0.2206 -0.0394  0.2729
 2282PEP     CB87561  17.301  19.624  20.794 -0.2111  0.1184 -0.2535
 2282PEP     CB87562  17.071  19.256  20.915  0.1159 -0.1022  0.1693
 2282PEP     CB87563  16.986  18.910  21.198 -0.0584  0.1022  0.0047
 2282PEP     CB87564  16.829  18.740  21.665  0.5668  0.0501 -0.1026
 2282PEP     CB87565  16.876  18.690  22.134 -0.1818 -0.1077  0.0705
 2282PEP     CB87566  16.757  18.387  22.478 -0.2134  0.1255 -0.0876
 2282PEP     CB87567  16.491  18.403  22.869  0.3645  0.3166 -0.3996
 2282PEP     CB87568  16.465  18.622  23.239 -0.3809  0.0620  0.0741
 2282PEP     CB87569  16.870  18.874  23.369 -0.2141  0.0935 -0.1204
 2282PEP     CB87570  17.196  18.962  23.076 -0.0256  0.1464 -0.1315
 2282PEP     CB87571  17.444  18.589  22.873 -0.3407 -0.2958 -0.2935
 2282PEP     CB87572  17.610  18.207  23.053  0.0945 -0.7039 -0.2175
 2282PEP     CB87573  17.411  17.946  23.394 -0.3035 -0.0036 -0.5162
 2282PEP     CB87574  17.143  17.930  23.782 -0.1590  0.0567  0.1364
 2282PEP     CB87575  16.678  17.838  23.903 -0.0957  0.7649  0.0077
 2282PEP     CB87576  16.396  17.773  23.522 -0.2521  0.1754 -0.0729
 2282PEP     CB87577  16.552  17.947  23.131  0.0119 -0.3700 -0.3179
 2282PEP     CB87578  16.896  18.308  23.117 -0.4738 -0.0194  0.0101
 2282PEP     CB87579  17.219  18.427  23.356  0.1219 -0.1953 -0.3441
 2282PEP     CB87580  17.446  18.360  23.763 -0.1195  0.5829  0.1380
 2282PEP     CB87581  17.855  18.213  23.978 -0.1807  0.0829 -0.0478
 2282PEP     CB87582  18.308  18.299  23.966 -0.2874 -0.0775  0.3453
 2282PEP     CB87583  18.695  18.278  24.238  0.0229 -0.4226 -0.0243
 2282PEP     CB87584  18.910  17.916  24.339 -0.0857 -0.2217 -0.4177
 2282PEP     CB87585  18.833  17.425  24.220  0.2101  0.0407  0.0075
 2282PEP     CB87586  18.640  17.262  23.902 -0.3676  0.0196  0.2377
 2282PEP     CB87587  18.630  17.466  23.500  0.2610  0.2958  0.1438
 2282PEP     CB87588  18.454  17.464  23.130 -0.0810 -0.1790 -0.0385
 2282PEP     CB87589  18.066  17.670  22.779  0.0635 -0.0009  0.1120
 2282PEP     CB87590  17.681  17.790  22.799  0.4544 -0.0960  0.1988
 2282PEP     CB87591  17.258  17.881  22.901  0.1302  0.1454 -0.0620
 2282PEP     CB87592  16.968  17.745  23.274  0.0492  0.2386  0.1436
 2282PEP     CB87593  16.853  17.372  23.315 -0.0960  0.0517  0.1128
 2282PEP     CB87594  17.088  16.972  23.188 -0.0155 -0.3211 -0.0140
 2282PEP     CB87595  17.584  16.859  23.058 -0.0033 -0.1815  0.2409
 2282PEP     CB87596  17.833  16.578  23.155 -0.2261 -0.2805 -0.3176
 2282PEP     CB87597  18.102  16.194  23.190 -0.0980 -0.2145  0.0210
 2282PEP     CB87598  18.046  15.764  23.173  0.2148  0.0068  0.0652
 2282PEP     CB87599  18.129  15.286  23.141 -0.0135 -0.0283  0.0691
 2282PEP     CB87600  18.443  15.094  23.244  0.2498 -0.1952 -0.0866
 2283PEP     CB87601  15.188  14.122  17.738 -0.2230 -0.0985  0.1228
 2283PEP     CB87602  15.683  14.031  17.741 -0.0423  0.0895  0.0051
 2283PEP     CB87603  16.043  13.799  17.750 -0.0282  0.1846 -0.2447
 2283PEP     CB87604  16.286  13.489  17.691  0.0528  0.0778  0.1082
 2283PEP     CB87605  16.463  13.106  17.701 -0.4877  0.1348  0.1980
 2283PEP     CB87606  16.292  12.627  17.653  0.0574 -0.0488 -0.2170
 2283PEP     CB87607  15.885  12.500  17.360  0.3717  0.0831 -0.1792
 2283PEP     CB87608  15.495  12.284  17.369  0.1968  0.0880  0.0543
 2283PEP     CB87609  15.095  12.067  17.201 -0.4458 -0.6593 -0.3565
 2283PEP     CB87610  14.748  11.947  17.163 -0.0374  0.0486  0.1442
 2283PEP     CB87611  14.322  11.570  17.346  0.5297 -0.0347 -0.0753
 2283PEP     CB87612  13.926  11.395  17.192  0.1715  0.4183 -0.4739
 2283PEP     CB87613  13.705  11.068  16.962  0.1034  0.1338 -0.2940
 2283PEP     CB87614  13.519  10.962  16.567  0.1127 -0.2751 -0.0962
 2283PEP     CB87615  13.177  11.021  16.335  0.3466 -0.2703  0.0572
 2283PEP     CB87616  12.802  11.320  16.496  0.0234  0.2367  0.1230
 2283PEP     CB87617  12.561  11.659  16.598 -0.0371 -0.1552 -0.0511
 2283PEP     CB87618  12.265  11.886  16.786 -0.1382 -0.2711 -0.1878
 2283PEP     CB87619  12.149  11.748  17.164  0.1421  0.1712  0.0069
 2283PEP     CB87620  12.229  11.366  17.513 -0.0632  0.1941 -0.3032
 2283PEP     CB87621  12.646  11.068  17.522 -0.0564 -0.1916  0.2071
 2283PEP     CB87622  13.128  11.148  17.502 -0.0031  0.0191 -0.1172
 2283PEP     CB87623  13.434  11.302  17.415  0.0952  0.5268  0.0853
 2283PEP     CB87624  13.473  11.718  17.600  0.0514 -0.0158 -0.0704
 2283PEP     CB87625  13.288  12.099  17.648  0.0217  0.0265 -0.0870
 2283PEP     CB87626  13.101  12.550  17.584  0.0780 -0.0629  0.0139
 2283PEP     CB87627  13.305  13.003  17.444  0.3925  0.2951  0.1720
 2283PEP     CB87628  13.370  13.238  17.076  0.0418 -0.0747 -0.0851
 2283PEP     CB87629  13.653  13.470  16.798  0.0940  0.2983 -0.4643
 2283PEP     CB87630  14.117  13.632  16.777 -0.1000 -0.3771  0.3075
 2283PEP     CB87631  14.547  13.637  16.637 -0.0469  0.2014 -0.0580
 2283PEP     CB87632  14.674  13.371  16.324 -0.0849 -0.6059 -0.0707
 2283PEP     CB87633  14.614  13.148  15.907 -0.3703 -0.3708  0.0728
 2283PEP     CB87634  14.830  13.184  15.624 -0.3353  0.1428  0.2818
 2283PEP     CB87635  15.123  13.459  15.733  0.2220  0.1221 -0.0772
 2283PEP     CB87636  15.457  13.598  15.862  0.3097 -0.0675 -0.0903
 2283PEP     CB87637  15.826  13.566  16.205 -0.1085  0.2097 -0.0470
 2283PEP     CB87638  16.031  13.224  16.412  0.0051  0.6076 -0.2196
 2283PEP     CB87639  16.273  13.239  16.765 -0.1074  0.1907 -0.0267
 2283PEP     CB87640  16.163  13.556  17.013 -0.4253 -0.0893  0.0123
 2284PEP     CB87641  17.853  10.046   1.530 -0.0692  0.1328 -0.0199
 2284PEP     CB87642  17.463  10.245   1.324  0.4375  0.3484  0.1013
 2284PEP     CB87643  17.255  10.596   1.049 -0.1292  0.3142  0.2337
 2284PEP     CB87644  17.412  10.761   0.640 -0.1246 -0.0060 -0.2585
 2284PEP     CB87645  17.417  10.680   0.171 -0.2819 -0.3467 -0.2924
 2284PEP     CB87646  17.482  10.971  -0.161  0.0651  0.3483  0.2055
 2284PEP     CB87647  17.482  11.351  -0.407  0.1698  0.2225 -0.0374
 2284PEP     CB87648  17.187  11.492  -0.729  0.0649  0.5079  0.3294
 2284PEP     CB87649  16.843  11.601  -1.017 -0.3149  0.2058  0.0759
 2284PEP     CB87650  16.473  11.379  -1.169  0.3720  0.1679  0.2453
 2284PEP     CB87651  16.083  11.234  -0.987 -0.1890  0.1091 -0.2171
 2284PEP     CB87652  15.982  11.320  -0.561  0.0030  0.3186 -0.2265
 2284PEP     CB87653  16.183  11.485  -0.213 -0.1439  0.1860 -0.1297
 2284PEP     CB87654  16.101  11.707   0.174  0.1570  0.0981 -0.0089
 2284PEP     CB87655  15.823  12.021   0.379 -0.3504 -0.2336  0.5474
 2284PEP     CB87656  15.641  12.356   0.553  0.1264  0.4675  0.3601
 2284PEP     CB87657  15.347  12.442   0.873 -0.0695 -0.0672 -0.0687
 2284PEP     CB87658  14.920  12.470   0.774 -0.2836 -0.3777 -0.0493
 2284PEP     CB87659  14.614  12.181   0.467  0.1473 -0.1307 -0.2064
 2284PEP     CB87660  14.487  11.997   0.076  0.5372 -0.1300  0.2062
 2284PEP     CB87661  14.077  12.146  -0.162  0.1239  0.0112  0.4573
 2284PEP     CB87662  13.925  12.489  -0.532  0.0686 -0.1384 -0.0592
 2284PEP     CB87663  13.678  12.544  -0.776  0.1756  0.3118 -0.0553
 2284PEP     CB87664  13.289  12.651  -1.000  0.0560 -0.3482 -0.1764
 2284PEP     CB87665  13.191  12.865  -1.360 -0.0594  0.1801  0.1816
 2284PEP     CB87666  13.115  12.968  -1.722 -0.1118 -0.1190 -0.2522
 2284PEP     CB87667  13.122  12.722  -2.107  0.1996  0.1430  0.2308
 2284PEP     CB87668  12.873  12.478  -2.315 -0.0898  0.0434 -0.0963
 2284PEP     CB87669  12.729  12.342  -2.686  0.0424 -0.0569 -0.1938
 2284PEP     CB87670  12.443  12.232  -2.973  0.2500  0.3897 -0.1393
 2284PEP     CB87671  12.289  12.412  -3.338  0.1361  0.0562  0.2370
 2284PEP     CB87672  12.331  12.809  -3.438 -0.0321  0.0187 -0.0059
 2284PEP     CB87673  12.546  13.132  -3.232  0.2085  0.0701  0.1061
 2284PEP     CB87674  12.650  13.427  -3.008 -0.1788 -0.3268 -0.2434
 2284PEP     CB87675  12.485  13.697  -2.821 -0.4179 -0.0371  0.1900
 2284PEP     CB87676  12.297  13.986  -2.529 -0.4271  0.2066  0.2230
 2284PEP     CB87677  12.391  14.234  -2.202 -0.1527 -0.1464 -0.2104
 2284PEP     CB87678  12.559  14.384  -1.795 -0.3081  0.2378  0.3430
 2284PEP     CB87679  12.539  14.366  -1.378  0.0404 -0.3284  0.2328
 2284PEP     CB87680  12.239  14.264  -1.006 -0.2003  0.1878  0.0466
 2285PEP     CB87681  18.478  17.163  15.258 -0.1648  0.3466 -0.1107
 2285PEP     CB87682  18.721  17.102  15.596  0.1420  0.0830  0.0879
 2285PEP     CB87683  19.021  17.084  16.054 -0.0077  0.2989 -0.1608
 2285PEP     CB87684  19.118  17.197  16.423 -0.6415  0.0676 -0.0511
 2285PEP     CB87685  19.013  17.395  16.601  0.2010 -0.4513 -0.3006
 2285PEP     CB87686  18.836  17.677  16.937  0.0280 -0.3203 -0.0546
 2285PEP     CB87687  18.611  17.627  17.312  0.1411  0.1488 -0.1629
 2285PEP     CB87688  18.348  17.361  17.572  0.1262  0.2817  0.1256
 2285PEP     CB87689  17.886  17.477  17.813 -0.0846  0.1639  0.2537
 2285PEP     CB87690  17.903  17.920  18.026 -0.0912 -0.0703  0.1642
 2285PEP     CB87691  18.022  18.269  17.883  0.0745 -0.0105  0.0739
 2285PEP     CB87692  18.038  18.709  17.958 -0.0419  0.1717  0.0036
 2285PEP     CB87693  17.873  19.169  17.941 -0.0968 -0.0954 -0.1192
 2285PEP     CB87694  17.753  19.478  17.755  0.0481  0.1182 -0.0378
 2285PEP     CB87695  17.824  19.758  17.322 -0.1388 -0.1292 -0.0895
 2285PEP     CB87696  17.823  20.122  17.085 -0.1148  0.1939  0.0038
 2285PEP     CB87697  17.817  20.474  16.909 -0.0847  0.2550 -0.0625
 2285PEP     CB87698  17.645  20.863  16.869  0.6857  0.1440  0.0319
 2285PEP     CB87699  17.714  21.255  16.595 -0.1059 -0.0196  0.3898
 2285PEP     CB87700  18.108  21.445  16.692  0.4118 -0.0520 -0.0350
 2285PEP     CB87701  18.622  21.559  16.787  0.3543 -0.2446  0.0542
 2285PEP     CB87702  18.767  21.724  17.161 -0.0687 -0.5296  0.3137
 2285PEP     CB87703  19.066  21.630  17.458 -0.1476  0.0381 -0.2990
 2285PEP     CB87704  19.536  21.617  17.392  0.0503 -0.1075  0.4140
 2285PEP     CB87705  19.707  21.905  17.095 -0.0003  0.2710 -0.1201
 2285PEP     CB87706  19.745  22.331  17.054 -0.2562 -0.2101 -0.2874
 2285PEP     CB87707  19.467  22.560  17.273  0.4268  0.1585  0.0634
 2285PEP     CB87708  19.191  22.443  17.654  0.0232  0.2728 -0.2981
 2285PEP     CB87709  19.280  22.255  17.945  0.0987 -0.2327 -0.1242
 2285PEP     CB87710  19.494  21.839  17.908  0.0424  0.0157  0.2784
 2285PEP     CB87711  19.746  21.485  17.815  0.1494 -0.0770 -0.3661
 2285PEP     CB87712  20.027  21.137  17.930 -0.3517 -0.0004 -0.2737
 2285PEP     CB87713  20.323  20.961  17.806  0.0277 -0.0128  0.2387
 2285PEP     CB87714  20.377  20.833  17.439  0.2528  0.3370 -0.0370
 2285PEP     CB87715  20.173  20.826  16.977  0.4639 -0.4027  0.2948
 2285PEP     CB87716  19.786  20.791  16.792  0.7240  0.3819 -0.2433
 2285PEP     CB87717  19.365  20.911  16.604 -0.2520  0.0180  0.0402
 2285PEP     CB87718  18.995  20.818  16.381 -0.1528 -0.2497 -0.3341
 2285PEP     CB87719  18.695  20.984  16.050  0.0464 -0.2020  0.3079
 2285PEP     CB87720  18.375  20.924  15.817  0.3697 -0.3391 -0.0854
 2286PEP     CB87721  18.676  15.116  13.728 -0.4363  0.1682 -0.2987
 2286PEP     CB87722  18.659  14.770  14.020 -0.0695  0.2180 -0.2092
 2286PEP     CB87723  18.366  14.418  14.148  0.2225 -0.1021  0.0470
 2286PEP     CB87724  18.071  14.336  14.519 -0.0299  0.1466  0.0886
 2286PEP     CB87725  17.884  14.259  14.928 -0.3020 -0.1926  0.0195
 2286PEP     CB87726  17.507  14.364  15.230 -0.1251 -0.1917  0.0615
 2286PEP     CB87727  17.286  14.665  15.553  0.2687  0.7113  0.1757
 2286PEP     CB87728  17.118  15.098  15.775 -0.1687  0.1241 -0.1470
 2286PEP     CB87729  17.028  15.534  15.783 -0.0313  0.1793  0.0004
 2286PEP     CB87730  17.461  15.774  15.693 -0.2313 -0.0711 -0.1486
 2286PEP     CB87731  17.733  15.777  15.309  0.2403 -0.0918 -0.0038
 2286PEP     CB87732  17.857  15.872  14.964  0.4503 -0.1867 -0.0526
 2286PEP     CB87733  17.808  15.801  14.528  0.0641 -0.0884 -0.1921
 2286PEP     CB87734  17.910  15.366  14.274  0.0164 -0.1077 -0.2254
 2286PEP     CB87735  18.148  14.918  14.358 -0.0527  0.0335  0.0919
 2286PEP     CB87736  18.103  14.767  14.701 -0.2117  0.2762 -0.0785
 2286PEP     CB87737  17.756  14.835  14.957 -0.0994  0.1399 -0.3397
 2286PEP     CB87738  17.579  15.129  15.202 -0.1972 -0.0280 -0.3042
 2286PEP     CB87739  17.433  15.525  15.029  0.0491 -0.0262 -0.1865
 2286PEP     CB87740  17.398  15.565  14.567 -0.5113  0.1092  0.3510
 2286PEP     CB87741  17.031  15.435  14.268  0.0376  0.2036  0.3854
 2286PEP     CB87742  16.798  15.144  14.170  0.5560 -0.3811  0.1417
 2286PEP     CB87743  16.492  14.835  14.004 -0.4118  0.0829 -0.0750
 2286PEP     CB87744  16.238  14.453  14.140  0.5879  0.4302  0.1335
 2286PEP     CB87745  16.160  14.045  14.285 -0.2516 -0.1747  0.2862
 2286PEP     CB87746  15.816  13.843  14.488  0.1482 -0.2739  0.0369
 2286PEP     CB87747  15.541  13.769  14.824 -0.0373  0.0098  0.0953
 2286PEP     CB87748  15.603  13.364  15.051 -0.0648  0.3259 -0.0151
 2286PEP     CB87749  15.533  13.057  15.336  0.1812  0.2188  0.0889
 2286PEP     CB87750  15.334  12.989  15.726  0.2409 -0.0559  0.1814
 2286PEP     CB87751  15.175  13.115  16.075 -0.0803  0.1326  0.2835
 2286PEP     CB87752  15.020  13.030  16.445 -0.3845 -0.0116 -0.1885
 2286PEP     CB87753  14.933  13.319  16.815  0.3627  0.3161 -0.0983
 2286PEP     CB87754  15.006  13.800  16.775  0.1233 -0.0380 -0.0947
 2286PEP     CB87755  15.154  13.972  16.471  0.1518 -0.0657  0.1623
 2286PEP     CB87756  15.523  14.068  16.294 -0.3194 -0.1735  0.0578
 2286PEP     CB87757  15.833  14.370  16.446  0.1776  0.0326  0.0789
 2286PEP     CB87758  15.719  14.664  16.640 -0.4195  0.0053  0.1306
 2286PEP     CB87759  15.509  15.130  16.562  0.3138 -0.2852 -0.0917
 2286PEP     CB87760  15.615  15.502  16.302  0.1755  0.1258  0.0582
 2287PEP     CB87761  16.447   2.773   2.052  0.0389 -0.1442 -0.0492
 2287PEP     CB87762  16.425   2.325   1.942 -0.2089 -0.2778  0.4250
 2287PEP     CB87763  16.444   1.858   1.912 -0.3726  0.4883 -0.1315
 2287PEP     CB87764  16.420   1.495   2.150  0.0050 -0.1186  0.0176
 2287PEP     CB87765  16.161   1.131   2.425 -0.2655  0.2669 -0.2070
 2287PEP     CB87766  15.774   1.169   2.558  0.0467  0.1459  0.0347
 2287PEP     CB87767  15.450   1.374   2.392 -0.0570  0.0416 -0.0684
 2287PEP     CB87768  15.376   1.638   2.107 -0.3643 -0.2442 -0.0573
 2287PEP     CB87769  15.428   1.846   1.680  0.0213  0.0219  0.3111
 2287PEP     CB87770  15.180   2.155   1.392  0.0447 -0.2823  0.0068
 2287PEP     CB87771  15.134   2.533   1.242 -0.1457 -0.1771  0.0651
 2287PEP     CB87772  15.468   2.749   1.038 -0.0198 -0.0350  0.1670
 2287PEP     CB87773  15.730   3.047   1.129  0.1750  0.3122 -0.3845
 2287PEP     CB87774  16.076   3.338   1.420  0.0870  0.2255  0.1094
 2287PEP     CB87775  16.350   3.332   1.732 -0.3818 -0.2975 -0.2535
 2287PEP     CB87776  16.521   3.346   2.145  0.0673  0.2132  0.1078
 2287PEP     CB87777  16.504   3.697   2.384 -0.4133 -0.1263  0.1650
 2287PEP     CB87778  16.809   4.091   2.444  0.1076  0.1069  0.2424
 2287PEP     CB87779  17.159   4.128   2.328 -0.1657 -0.0876 -0.3669
 2287PEP     CB87780  17.578   3.861   2.373 -0.1887 -0.1645 -0.0127
 2287PEP     CB87781  17.843   3.543   2.253 -0.1454 -0.0640 -0.3179
 2287PEP     CB87782  17.761   3.086   2.165  0.4078 -0.2245  0.0800
 2287PEP     CB87783  17.361   2.924   2.059  0.0527 -0.1234  0.1099
 2287PEP     CB87784  17.076   2.886   2.374  0.2844 -0.2865 -0.5272
 2287PEP     CB87785  16.861   3.275   2.537 -0.0342  0.1580  0.1101
 2287PEP     CB87786  17.052   3.655   2.701 -0.1596  0.2519 -0.0232
 2287PEP     CB87787  17.298   4.070   2.799 -0.0776  0.1258 -0.1788
 2287PEP     CB87788  17.404   4.360   3.149  0.2591  0.0514  0.0576
 2287PEP     CB87789  17.453   4.468   3.595  0.0349  0.2672  0.3274
 2287PEP     CB87790  17.250   4.399   3.971  0.1577 -0.0192 -0.2836
 2287PEP     CB87791  17.108   4.090   4.208  0.0145 -0.2191  0.0671
 2287PEP     CB87792  17.152   3.763   4.598 -0.2288 -0.2649 -0.0565
 2287PEP     CB87793  16.909   3.510   4.846 -0.0836 -0.4035 -0.0006
 2287PEP     CB87794  16.609   3.340   4.930  0.3266  0.4314  0.1371
 2287PEP     CB87795  16.158   3.291   4.894 -0.0138  0.1184  0.1357
 2287PEP     CB87796  15.879   2.999   4.993  0.2830  0.3177  0.1778
 2287PEP     CB87797  15.996   2.548   5.088  0.2213  0.1925 -0.2841
 2287PEP     CB87798  16.331   2.288   4.942  0.2839  0.0725  0.0402
 2287PEP     CB87799  16.733   2.260   4.746  0.0476 -0.2015 -0.1824
 2287PEP     CB87800  16.915   2.432   4.506  0.0086 -0.0911  0.1475
 2288PEP     CB87801   5.798  15.377   7.377 -0.4608  0.0344  0.0755
 2288PEP     CB87802   6.009  15.647   7.569  0.1525  0.4286  0.1633
 2288PEP     CB87803   6.296  15.785   7.791  0.0302  0.0447 -0.4870
 2288PEP     CB87804   6.518  16.202   7.829 -0.2200  0.1686 -0.0277
 2288PEP     CB87805   6.738  16.654   7.819 -0.0183  0.0007 -0.0713
 2288PEP     CB87806   6.933  16.970   8.006  0.1799  0.0922  0.1028
 2288PEP     CB87807   7.206  17.297   8.067 -0.1931 -0.1954  0.1794
 2288PEP     CB87808   7.461  17.634   7.905 -0.0810  0.1898 -0.3170
 2288PEP     CB87809   7.721  17.758   8.157 -0.0599 -0.1368  0.2181
 2288PEP     CB87810   8.143  17.955   8.413 -0.0264 -0.3047  0.1382
 2288PEP     CB87811   8.339  18.227   8.255 -0.5066  0.0541  0.1135
 2288PEP     CB87812   8.261  18.662   8.071  0.2534  0.5461  0.0273
 2288PEP     CB87813   7.905  18.746   7.845 -0.1399 -0.1320 -0.0414
 2288PEP     CB87814   7.646  19.024   7.753 -0.2299  0.1393 -0.2555
 2288PEP     CB87815   7.425  19.486   7.822 -0.4422 -0.6733 -0.0422
 2288PEP     CB87816   7.094  19.687   7.886  0.0035 -0.2164  0.0263
 2288PEP     CB87817   6.718  19.986   7.873 -0.1860  0.0186  0.1396
 2288PEP     CB87818   6.338  20.028   8.122 -0.1076  0.3543 -0.3586
 2288PEP     CB87819   6.108  19.715   8.237 -0.0073  0.4042 -0.3016
 2288PEP     CB87820   5.851  19.334   8.028  0.1087 -0.3298  0.0662
 2288PEP     CB87821   5.871  19.235   7.584  0.0867  0.0051 -0.3068
 2288PEP     CB87822   5.791  19.182   7.055 -0.1649  0.0544 -0.0014
 2288PEP     CB87823   6.022  19.323   6.753 -0.1028  0.5872 -0.1769
 2288PEP     CB87824   6.430  19.568   6.751 -0.0858  0.0474  0.2138
 2288PEP     CB87825   6.551  19.873   7.088 -0.0356  0.1854 -0.1345
 2288PEP     CB87826   6.479  20.182   7.439 -0.2384  0.0491 -0.1831
 2288PEP     CB87827   6.061  20.294   7.651 -0.1556  0.5334 -0.0372
 2288PEP     CB87828   5.689  20.294   7.316 -0.2034 -0.0607  0.0433
 2288PEP     CB87829   5.604  20.056   7.005 -0.1104 -0.0909  0.1133
 2288PEP     CB87830   5.845  19.825   6.738 -0.1746  0.1799 -0.0579
 2288PEP     CB87831   6.104  19.764   6.428  0.4317 -0.1994 -0.2831
 2288PEP     CB87832   6.326  19.342   6.283 -0.0580  0.4514 -0.1187
 2288PEP     CB87833   6.634  19.057   6.112 -0.1093 -0.3905  0.0687
 2288PEP     CB87834   6.691  18.868   5.717 -0.2672 -0.1160  0.3161
 2288PEP     CB87835   6.719  18.541   5.462 -0.3887  0.1076 -0.0436
 2288PEP     CB87836   6.733  18.591   5.021  0.0296  0.2041 -0.1744
 2288PEP     CB87837   6.983  18.493   4.748 -0.0135 -0.1416  0.3652
 2288PEP     CB87838   7.338  18.333   4.564  0.1763  0.2173 -0.2061
 2288PEP     CB87839   7.741  17.988   4.589  0.2388  0.1572  0.1468
 2288PEP     CB87840   8.095  17.724   4.522 -0.4303  0.2197 -0.0083
 2289PEP     CB87841  19.090  19.619   0.722 -0.0419  0.2534 -0.3709
 2289PEP     CB87842  19.198  19.432   1.100 -0.1273 -0.4989  0.0253
 2289PEP     CB87843  19.160  19.408   1.522 -0.0076 -0.1464 -0.1504
 2289PEP     CB87844  19.004  19.386   1.946  0.0493  0.5722  0.0724
 2289PEP     CB87845  19.096  19.181   2.326 -0.3222  0.0592 -0.1813
 2289PEP     CB87846  19.402  18.910   2.481 -0.1119 -0.3990  0.3830
 2289PEP     CB87847  19.557  18.841   2.851  0.1409  0.2692 -0.0300
 2289PEP     CB87848  19.399  18.850   3.288 -0.0651 -0.0136  0.1070
 2289PEP     CB87849  19.354  19.080   3.684 -0.6372 -0.2956  0.2569
 2289PEP     CB87850  18.959  19.424   3.830  0.0464 -0.2897 -0.1541
 2289PEP     CB87851  18.599  19.545   4.102  0.1817 -0.2939  0.1003
 2289PEP     CB87852  18.315  19.851   4.062 -0.3454  0.1863 -0.1927
 2289PEP     CB87853  18.056  20.123   3.716  0.0127  0.0627 -0.0221
 2289PEP     CB87854  18.179  20.170   3.299 -0.1586 -0.1293 -0.0654
 2289PEP     CB87855  18.501  20.052   3.051 -0.3868  0.0730  0.2714
 2289PEP     CB87856  18.799  20.001   2.677 -0.0369  0.2118  0.0859
 2289PEP     CB87857  19.084  19.778   2.381 -0.4945  0.0861  0.2040
 2289PEP     CB87858  19.428  19.670   2.140  0.4748 -0.2095  0.2074
 2289PEP     CB87859  19.531  19.273   2.004 -0.4161  0.1775  0.0424
 2289PEP     CB87860  19.439  18.865   1.982 -0.0184  0.1643 -0.3669
 2289PEP     CB87861  19.147  18.784   1.628  0.0550 -0.1116 -0.0037
 2289PEP     CB87862  19.208  18.981   1.182 -0.0040  0.1216 -0.0577
 2289PEP     CB87863  19.604  19.088   0.898  0.4700 -0.1247  0.2778
 2289PEP     CB87864  20.032  19.182   0.908  0.3364  0.1086 -0.0699
 2289PEP     CB87865  20.274  19.432   0.804  0.3720 -0.0306 -0.0408
 2289PEP     CB87866  20.558  19.721   0.889 -0.0936 -0.0107  0.3169
 2289PEP     CB87867  20.819  20.050   0.990  0.2146 -0.2084 -0.0873
 2289PEP     CB87868  21.119  20.300   1.177  0.1162  0.5067 -0.1082
 2289PEP     CB87869  21.602  20.456   1.039  0.0646  0.0026  0.0964
 2289PEP     CB87870  21.778  20.500   0.666 -0.0845  0.2299  0.3192
 2289PEP     CB87871  21.812  20.257   0.258  0.1863  0.5297 -0.0640
 2289PEP     CB87872  21.465  19.883   0.170 -0.0883 -0.1595 -0.0021
 2289PEP     CB87873  21.273  19.481   0.163 -0.2287 -0.1715  0.1082
 2289PEP     CB87874  21.109  19.161   0.343 -0.2113  0.0324 -0.1586
 2289PEP     CB87875  20.822  18.911   0.245  0.0139  0.3208 -0.3685
 2289PEP     CB87876  20.511  18.835   0.062 -0.5140  0.1831 -0.0701
 2289PEP     CB87877  20.118  18.627  -0.135  0.3485 -0.1076  0.2944
 2289PEP     CB87878  19.758  18.717  -0.386  0.1630  0.1443 -0.3941
 2289PEP     CB87879  19.388  18.326  -0.477  0.0473 -0.2588 -0.0381
 2289PEP     CB87880  19.178  17.993  -0.200  0.1348 -0.1371 -0.0672
 2290PEP     CB87881  20.834   8.151   2.750 -0.0747 -0.2097  0.2021
 2290PEP     CB87882  20.693   8.214   3.215  0.1961  0.1079  0.0368
 2290PEP     CB87883  20.457   8.117   3.609 -0.3525 -0.4419  0.0924
 2290PEP     CB87884  20.236   7.825   3.778  0.2928  0.3763  0.0238
 2290PEP     CB87885  20.182   7.478   4.135 -0.0498  0.1257 -0.0273
 2290PEP     CB87886  20.355   7.048   4.292  0.1899 -0.3722 -0.2709
 2290PEP     CB87887  20.601   6.644   4.321 -0.0589 -0.1534 -0.0634
 2290PEP     CB87888  20.570   6.307   4.674  0.1909  0.2569  0.0499
 2290PEP     CB87889  20.330   5.969   4.916  0.0770 -0.0006 -0.1807
 2290PEP     CB87890  20.126   6.031   5.333 -0.0953 -0.1375 -0.0676
 2290PEP     CB87891  19.775   6.123   5.433 -0.3206  0.3452 -0.2004
 2290PEP     CB87892  19.434   6.301   5.664 -0.5758 -0.0687 -0.3302
 2290PEP     CB87893  19.105   6.289   6.014  0.2254  0.1986  0.0809
 2290PEP     CB87894  19.045   6.565   6.338  0.1534 -0.0886  0.0687
 2290PEP     CB87895  18.864   6.916   6.620 -0.0044 -0.3301 -0.0498
 2290PEP     CB87896  18.823   7.322   6.821 -0.2568  0.0248 -0.1849
 2290PEP     CB87897  18.890   7.715   6.570  0.0467  0.1980  0.0427
 2290PEP     CB87898  18.948   7.634   6.083 -0.1427  0.0801  0.0541
 2290PEP     CB87899  18.963   7.283   5.770  0.0868 -0.0445  0.1375
 2290PEP     CB87900  18.802   6.960   5.523 -0.0579  0.4050  0.1344
 2290PEP     CB87901  18.532   6.626   5.326 -0.0507  0.0303  0.1587
 2290PEP     CB87902  18.306   6.799   5.001  0.3788  0.1297  0.1564
 2290PEP     CB87903  17.858   6.979   5.109 -0.3222  0.1068 -0.0256
 2290PEP     CB87904  17.703   7.253   5.498 -0.2467  0.2672 -0.0902
 2290PEP     CB87905  17.574   7.525   5.853  0.0910 -0.0847  0.3454
 2290PEP     CB87906  17.305   7.859   5.919  0.0225  0.4681  0.1266
 2290PEP     CB87907  16.906   7.808   5.944 -0.1120  0.1789 -0.2632
 2290PEP     CB87908  16.471   7.740   5.985  0.2705 -0.0562  0.0530
 2290PEP     CB87909  16.088   7.596   5.835 -0.1900  0.0878 -0.1922
 2290PEP     CB87910  15.848   7.283   5.679 -0.0739 -0.0122 -0.2650
 2290PEP     CB87911  15.893   6.982   5.255 -0.1976  0.0404  0.3351
 2290PEP     CB87912  16.239   6.684   5.216  0.2498 -0.1412 -0.0187
 2290PEP     CB87913  16.712   6.657   5.289 -0.2601  0.0894  0.1053
 2290PEP     CB87914  16.966   6.471   5.597  0.0932  0.1544  0.2460
 2290PEP     CB87915  17.117   6.342   6.022  0.0572  0.3860 -0.2826
 2290PEP     CB87916  17.549   6.213   6.029  0.0191  0.3359 -0.1161
 2290PEP     CB87917  17.769   6.341   5.653  0.1276 -0.1807  0.1429
 2290PEP     CB87918  17.655   6.740   5.531 -0.5010  0.0476 -0.0476
 2290PEP     CB87919  17.376   6.949   5.771 -0.0192  0.1963  0.2297
 2290PEP     CB87920  17.201   6.861   6.090 -0.0273  0.1154 -0.1932
 2291PEP     CB87921  14.021   1.414   8.452  0.0019  0.0984 -0.1199
 2291PEP     CB87922  13.647   1.305   8.333 -0.1623 -0.2162 -0.0088
 2291PEP     CB87923  13.381   1.032   7.993 -0.0961  0.0939  0.2841
 2291PEP     CB87924  13.413   0.796   7.680 -0.8297 -0.0748  0.3348
 2291PEP     CB87925  13.502   0.388   7.639 -0.5108 -0.1318 -0.0066
 2291PEP     CB87926  13.247  -0.010   7.493  0.1225  0.0753  0.0419
 2291PEP     CB87927  12.973  -0.209   7.309 -0.0274  0.0770 -0.0540
 2291PEP     CB87928  12.565  -0.158   7.121  0.1449 -0.0605 -0.1623
 2291PEP     CB87929  12.549  -0.211   6.746 -0.0612 -0.2721 -0.3719
 2291PEP     CB87930  12.886  -0.041   6.519 -0.0375 -0.2343 -0.1651
 2291PEP     CB87931  13.291   0.250   6.615  0.3935 -0.1096 -0.0404
 2291PEP     CB87932  13.542   0.637   6.478  0.0332 -0.2359  0.2056
 2291PEP     CB87933  13.704   0.859   6.154 -0.2902  0.0194  0.3932
 2291PEP     CB87934  13.884   1.235   6.095  0.0884  0.1985 -0.3370
 2291PEP     CB87935  14.069   1.496   6.291 -0.1075 -0.0228  0.1292
 2291PEP     CB87936  14.021   1.555   6.726  0.6559  0.1028  0.0699
 2291PEP     CB87937  13.973   1.150   7.014  0.1424  0.2334  0.1032
 2291PEP     CB87938  13.974   0.670   6.801 -0.1093 -0.1807  0.0813
 2291PEP     CB87939  14.382   0.503   6.675  0.4189 -0.4342 -0.1357
 2291PEP     CB87940  14.727   0.603   6.877 -0.4306 -0.0923 -0.0666
 2291PEP     CB87941  14.806   0.976   7.123 -0.1924  0.0073 -0.0962
 2291PEP     CB87942  14.844   1.343   7.351 -0.4677 -0.4616  0.1426
 2291PEP     CB87943  14.855   1.807   7.331 -0.2629 -0.0990 -0.0891
 2291PEP     CB87944  14.911   2.218   7.134  0.2788  0.1758  0.3230
 2291PEP     CB87945  14.455   2.335   6.897  0.2395 -0.1541 -0.0571
 2291PEP     CB87946  14.164   2.076   7.101 -0.1014  0.2135 -0.1202
 2291PEP     CB87947  14.212   1.784   7.405  0.0737  0.1734  0.2330
 2291PEP     CB87948  14.238   1.502   7.813  0.0181 -0.0117 -0.0182
 2291PEP     CB87949  14.063   1.133   8.002  0.0591  0.0761 -0.2414
 2291PEP     CB87950  13.797   0.782   8.063  0.0734 -0.0293 -0.0217
 2291PEP     CB87951  13.794   0.380   8.132  0.0367 -0.0518 -0.1670
 2291PEP     CB87952  13.545   0.172   8.368  0.1921 -0.1989 -0.4153
 2291PEP     CB87953  13.454  -0.027   8.794  0.2742 -0.2437  0.2379
 2291PEP     CB87954  13.318  -0.355   9.103  0.0443  0.3915  0.2506
 2291PEP     CB87955  13.252  -0.813   9.125  0.5939 -0.3679  0.0645
 2291PEP     CB87956  13.290  -1.195   8.856  0.2244  0.0052  0.0426
 2291PEP     CB87957  13.647  -1.474   8.700 -0.1287  0.1044  0.1400
 2291PEP     CB87958  13.955  -1.780   8.913  0.1319  0.4458  0.0181
 2291PEP     CB87959  13.979  -2.055   9.292 -0.1719  0.1816  0.2390
 2291PEP     CB87960  13.996  -2.015   9.762 -0.1356  0.1092  0.0924
 2292PEP     CB87961   8.332  16.775  18.469  0.1811  0.0310 -0.1875
 2292PEP     CB87962   8.419  16.332  18.268  0.2170  0.0965 -0.0241
 2292PEP     CB87963   8.577  15.958  18.060 -0.0581 -0.0314  0.3419
 2292PEP     CB87964   8.608  15.731  17.610 -0.1468 -0.1357 -0.0514
 2292PEP     CB87965   8.749  15.306  17.337 -0.0589 -0.2917  0.3372
 2292PEP     CB87966   9.053  15.144  17.159  0.2588  0.1471  0.0606
 2292PEP     CB87967   9.497  15.090  17.301  0.0599  0.3904  0.1387
 2292PEP     CB87968   9.840  15.149  17.521 -0.0910  0.2915  0.0538
 2292PEP     CB87969  10.207  15.549  17.502  0.1893 -0.1851 -0.2068
 2292PEP     CB87970  10.015  15.924  17.166 -0.0616  0.0381  0.3019
 2292PEP     CB87971  10.000  16.292  17.280  0.2045 -0.0167  0.1195
 2292PEP     CB87972  10.275  16.398  17.614  0.0472  0.3076 -0.3136
 2292PEP     CB87973  10.478  16.019  17.749 -0.3278  0.2313 -0.0033
 2292PEP     CB87974  10.761  15.628  17.869  0.0000  0.0498 -0.5411
 2292PEP     CB87975  10.897  15.527  18.290  0.4952  0.2010  0.2192
 2292PEP     CB87976  10.953  15.217  18.544  0.3082 -0.5429 -0.0281
 2292PEP     CB87977  10.934  15.032  18.883  0.0789  0.0171 -0.0611
 2292PEP     CB87978  11.046  14.718  19.182 -0.2709 -0.0009 -0.0209
 2292PEP     CB87979  10.834  14.610  19.608 -0.1202 -0.0732  0.0191
 2292PEP     CB87980  10.863  14.689  20.039  0.1134 -0.0155  0.0920
 2292PEP     CB87981  10.908  14.944  20.330  0.2584 -0.0861  0.1549
 2292PEP     CB87982  11.182  15.220  20.316 -0.0951  0.2424 -0.1025
 2292PEP     CB87983  11.463  15.592  20.445 -0.0767  0.0850  0.0858
 2292PEP     CB87984  11.832  15.773  20.334  0.2848 -0.1794 -0.1367
 2292PEP     CB87985  12.050  15.785  19.911 -0.1291  0.1664 -0.2237
 2292PEP     CB87986  12.224  15.756  19.500 -0.1695 -0.0201 -0.0752
 2292PEP     CB87987  12.499  15.788  19.174 -0.1319 -0.2806 -0.4134
 2292PEP     CB87988  12.738  15.848  18.811  0.0798 -0.1291  0.0866
 2292PEP     CB87989  12.634  16.058  18.508  0.0613  0.0904  0.1927
 2292PEP     CB87990  12.309  16.233  18.244 -0.1248 -0.1054  0.0094
 2292PEP     CB87991  12.395  16.428  17.997  0.0049 -0.1396 -0.3018
 2292PEP     CB87992  12.548  16.819  18.036  0.1317  0.1551 -0.0399
 2292PEP     CB87993  12.296  16.979  18.260 -0.1914 -0.0552 -0.1790
 2292PEP     CB87994  11.912  16.847  18.378  0.2246  0.0762  0.1440
 2292PEP     CB87995  11.790  16.517  18.636  0.1178  0.2235 -0.1720
 2292PEP     CB87996  11.817  16.341  19.094  0.2266 -0.2283  0.2762
 2292PEP     CB87997  11.530  16.216  19.381 -0.0660 -0.3403 -0.0868
 2292PEP     CB87998  11.563  16.092  19.790 -0.2751  0.0006  0.0499
 2292PEP     CB87999  11.770  16.283  20.106 -0.1580  0.6770  0.2542
 2292PEP     CB88000  11.748  16.618  20.265  0.0854  0.0645  0.0933
 2293PEP     CB88001  16.881   4.548  21.429  0.1328  0.1762 -0.2749
 2293PEP     CB88002  17.307   4.634  21.123 -0.2746 -0.0568  0.1825
 2293PEP     CB88003  17.661   4.423  21.055 -0.1334 -0.2551  0.0660
 2293PEP     CB88004  17.968   4.173  21.024 -0.0219  0.1168  0.3068
 2293PEP     CB88005  18.184   3.901  21.262  0.2896 -0.2736  0.0210
 2293PEP     CB88006  18.540   3.687  21.390  0.0240 -0.0673  0.2137
 2293PEP     CB88007  18.866   3.611  21.778  0.0773 -0.1495 -0.2784
 2293PEP     CB88008  19.104   3.529  22.108  0.2820  0.3642 -0.0691
 2293PEP     CB88009  19.151   3.669  22.484 -0.4142  0.0177  0.1901
 2293PEP     CB88010  19.522   3.547  22.768 -0.0210 -0.2902  0.2747
 2293PEP     CB88011  19.880   3.317  22.795 -0.2107  0.3150 -0.0177
 2293PEP     CB88012  20.159   2.985  23.024 -0.0740 -0.0288  0.1762
 2293PEP     CB88013  20.286   2.699  23.277  0.1891  0.1273  0.2520
 2293PEP     CB88014  20.408   2.529  23.596  0.2484 -0.2614 -0.2158
 2293PEP     CB88015  20.674   2.276  23.833 -0.2866 -0.1936 -0.2780
 2293PEP     CB88016  21.139   2.294  23.995  0.0094 -0.0236 -0.1945
 2293PEP     CB88017  21.529   2.359  24.258  0.1420 -0.3033 -0.1021
 2293PEP     CB88018  21.516   2.368  24.708 -0.3305 -0.0796  0.0099
 2293PEP     CB88019  21.170   2.183  24.928  0.2041 -0.1187  0.3092
 2293PEP     CB88020  20.775   1.968  24.781 -0.1413  0.5269  0.2941
 2293PEP     CB88021  20.303   1.888  24.666  0.4673  0.0850  0.2008
 2293PEP     CB88022  20.077   1.559  24.509 -0.0724 -0.0876 -0.1639
 2293PEP     CB88023  20.141   1.300  24.162 -0.0168  0.2182  0.0294
 2293PEP     CB88024  20.551   1.112  24.079  0.0341  0.2907 -0.5768
 2293PEP     CB88025  20.949   1.358  24.120  0.2565  0.2719 -0.0170
 2293PEP     CB88026  21.068   1.752  24.236 -0.1229  0.0214 -0.1646
 2293PEP     CB88027  21.369   1.894  24.566  0.1821  0.2560 -0.2454
 2293PEP     CB88028  21.756   1.944  24.684 -0.0920 -0.0322  0.0119
 2293PEP     CB88029  21.989   2.079  25.061 -0.2403 -0.3561 -0.2038
 2293PEP     CB88030  21.877   1.886  25.515 -0.2735 -0.3224 -0.3371
 2293PEP     CB88031  21.725   1.528  25.629  0.2011  0.2222 -0.1120
 2293PEP     CB88032  21.899   1.252  25.911  0.3141  0.0536  0.0570
 2293PEP     CB88033  22.224   1.063  26.106 -0.0888 -0.0528  0.0300
 2293PEP     CB88034  22.647   0.877  26.025  0.2519  0.4698  0.1148
 2293PEP     CB88035  23.146   0.810  26.021  0.1702  0.1283  0.2030
 2293PEP     CB88036  23.469   0.471  26.065 -0.1920  0.0613  0.1316
 2293PEP     CB88037  23.896   0.537  26.097 -0.2092  0.1056 -0.0536
 2293PEP     CB88038  24.317   0.550  25.949 -0.0972  0.2698 -0.0790
 2293PEP     CB88039  24.450   0.609  25.477  0.0772 -0.1113 -0.0178
 2293PEP     CB88040  24.124   0.727  25.132 -0.5779  0.0008 -0.0330
 2294PEP     CB88041  18.283   0.698   1.868 -0.2936 -0.2921  0.0810
 2294PEP     CB88042  18.192   0.280   1.744 -0.4584 -0.5284 -0.3650
 2294PEP     CB88043  18.027  -0.132   1.656  0.3283 -0.3534  0.2424
 2294PEP     CB88044  17.863  -0.356   1.376 -0.1884 -0.2729 -0.0099
 2294PEP     CB88045  17.706  -0.713   1.180  0.1074  0.3464 -0.0778
 2294PEP     CB88046  17.476  -1.046   1.404 -0.0291 -0.5939  0.2941
 2294PEP     CB88047  17.372  -1.021   1.848  0.2568  0.0481 -0.1382
 2294PEP     CB88048  17.382  -0.678   2.097 -0.1577 -0.3796  0.2166
 2294PEP     CB88049  17.521  -0.358   2.356  0.4603  0.1379 -0.2146
 2294PEP     CB88050  17.844  -0.468   2.706  0.6480 -0.3218  0.1077
 2294PEP     CB88051  18.134  -0.617   2.995 -0.3662  0.2945  0.0482
 2294PEP     CB88052  18.414  -0.853   2.997  0.2640 -0.4047 -0.0303
 2294PEP     CB88053  18.649  -1.078   2.732  0.3159 -0.1433 -0.3376
 2294PEP     CB88054  18.893  -1.387   2.664 -0.0216 -0.1192 -0.0338
 2294PEP     CB88055  18.974  -1.719   2.354  0.1274 -0.0838  0.3881
 2294PEP     CB88056  19.427  -1.827   2.243  0.0090 -0.1739  0.3818
 2294PEP     CB88057  19.758  -1.649   2.368  0.1011 -0.0451  0.5187
 2294PEP     CB88058  20.013  -1.283   2.402  0.0729  0.0883 -0.5650
 2294PEP     CB88059  20.281  -1.022   2.629 -0.0163  0.3022  0.1920
 2294PEP     CB88060  20.387  -0.641   2.725 -0.0008 -0.0048  0.1660
 2294PEP     CB88061  20.245  -0.216   2.769 -0.0387  0.3008 -0.1998
 2294PEP     CB88062  20.160   0.088   2.993 -0.1232  0.2111  0.2012
 2294PEP     CB88063  19.899   0.465   3.061 -0.1738  0.3008  0.2770
 2294PEP     CB88064  19.856   0.722   2.805 -0.1157 -0.0405 -0.1157
 2294PEP     CB88065  19.686   1.005   2.560 -0.0297 -0.1561 -0.1841
 2294PEP     CB88066  19.628   1.429   2.412  0.1644 -0.2572 -0.0283
 2294PEP     CB88067  19.462   1.659   2.669  0.1030  0.1482 -0.2271
 2294PEP     CB88068  19.506   1.603   3.171  0.1495 -0.2256 -0.0165
 2294PEP     CB88069  19.316   1.289   3.442  0.0259 -0.0571  0.6265
 2294PEP     CB88070  18.993   1.080   3.240 -0.0099 -0.1318  0.1423
 2294PEP     CB88071  18.665   1.336   3.039  0.0508 -0.2903 -0.0935
 2294PEP     CB88072  18.241   1.584   2.986  0.2799  0.3916 -0.2575
 2294PEP     CB88073  17.788   1.506   3.105  0.1532  0.2465  0.0642
 2294PEP     CB88074  17.538   1.288   3.450  0.0252 -0.2111 -0.1853
 2294PEP     CB88075  17.676   1.190   3.776  0.0305  0.2756 -0.1525
 2294PEP     CB88076  18.155   1.150   3.734  0.2593 -0.2476  0.0108
 2294PEP     CB88077  18.298   1.201   3.328 -0.1592 -0.2077  0.3938
 2294PEP     CB88078  18.081   1.086   3.004 -0.0202 -0.1236 -0.2151
 2294PEP     CB88079  17.893   0.805   2.792 -0.0182  0.2092  0.2179
 2294PEP     CB88080  17.724   0.503   2.589 -0.2274  0.0762  0.2849
 2295PEP     CB88081  11.243  21.427  12.363  0.1678  0.4145 -0.0060
 2295PEP     CB88082  11.331  21.537  12.017 -0.1930  0.3324 -0.0389
 2295PEP     CB88083  11.201  21.714  11.601 -0.3178 -0.2389  0.2705
 2295PEP     CB88084  11.219  21.660  11.173 -0.2649 -0.3582 -0.0377
 2295PEP     CB88085  11.312  21.340  11.017  0.1958 -0.3268 -0.0120
 2295PEP     CB88086  11.242  20.838  11.005  0.1023  0.2740  0.1437
 2295PEP     CB88087  11.548  20.482  11.050 -0.1613 -0.3356  0.0806
 2295PEP     CB88088  11.869  20.220  10.910  0.1861  0.1274 -0.1476
 2295PEP     CB88089  12.292  20.024  10.908 -0.0440  0.0667  0.1703
 2295PEP     CB88090  12.664  20.291  10.998  0.2100  0.1279 -0.0072
 2295PEP     CB88091  12.516  20.630  11.359 -0.4203  0.0691  0.3748
 2295PEP     CB88092  12.103  20.748  11.338  0.3466  0.0063  0.4113
 2295PEP     CB88093  11.786  21.007  11.154 -0.2239 -0.3085 -0.0448
 2295PEP     CB88094  11.764  21.409  11.188  0.2900 -0.3213  0.4828
 2295PEP     CB88095  11.737  21.747  11.062 -0.1665  0.0203  0.1720
 2295PEP     CB88096  11.459  21.870  10.809 -0.4247 -0.0026 -0.0076
 2295PEP     CB88097  11.159  21.588  10.579  0.3498 -0.1669 -0.0925
 2295PEP     CB88098  10.802  21.412  10.736 -0.2136  0.2672  0.1758
 2295PEP     CB88099  10.717  21.091  11.009  0.2806 -0.0802  0.1673
 2295PEP     CB88100  10.832  20.630  11.064 -0.3155 -0.2929  0.0539
 2295PEP     CB88101  11.042  20.198  11.141 -0.1375  0.0631 -0.1618
 2295PEP     CB88102  11.239  19.773  11.175 -0.3081 -0.0241 -0.2077
 2295PEP     CB88103  11.072  19.540  11.462 -0.0356 -0.0544 -0.2844
 2295PEP     CB88104  10.976  19.736  11.838 -0.1304 -0.4680  0.0301
 2295PEP     CB88105  10.842  20.163  12.001 -0.0090 -0.5208 -0.1715
 2295PEP     CB88106  10.550  20.433  12.005 -0.0986  0.4998 -0.1797
 2295PEP     CB88107  10.499  20.806  11.842 -0.2504 -0.0018  0.2393
 2295PEP     CB88108  10.629  20.965  11.467 -0.0810  0.3911 -0.2423
 2295PEP     CB88109  11.017  21.057  11.345 -0.1635 -0.1103 -0.2654
 2295PEP     CB88110  11.384  21.146  11.576  0.0802 -0.2964  0.2401
 2295PEP     CB88111  11.646  21.532  11.629 -0.2880 -0.2711 -0.0667
 2295PEP     CB88112  11.524  22.015  11.641  0.2846 -0.1052  0.5648
 2295PEP     CB88113  11.157  22.261  11.653  0.0635 -0.2694  0.2344
 2295PEP     CB88114  10.898  22.148  12.018  0.1430 -0.0392 -0.0008
 2295PEP     CB88115  10.802  21.645  12.050 -0.0290  0.0068 -0.0856
 2295PEP     CB88116  10.848  21.409  11.723 -0.1344  0.1515  0.0162
 2295PEP     CB88117  10.701  21.464  11.358  0.2641  0.5451  0.0360
 2295PEP     CB88118  10.481  21.699  10.993  0.0356 -0.0413 -0.1490
 2295PEP     CB88119  10.430  22.042  10.714  0.1274 -0.3355 -0.0497
 2295PEP     CB88120  10.446  22.328  10.393 -0.2664  0.0686 -0.0520
 2296PEP     CB88121  11.509  15.348  16.713  0.0545 -0.1207  0.5280
 2296PEP     CB88122  11.764  15.213  17.007  0.4817 -0.1857  0.2013
 2296PEP     CB88123  12.225  15.292  17.082 -0.1851  0.0458 -0.0140
 2296PEP     CB88124  12.611  15.117  17.145  0.3652  0.2401 -0.0152
 2296PEP     CB88125  12.972  15.123  17.059 -0.1929 -0.1077 -0.3787
 2296PEP     CB88126  13.290  15.374  16.887 -0.2933 -0.2105 -0.0854
 2296PEP     CB88127  13.498  15.713  16.610 -0.1562  0.0117  0.4182
 2296PEP     CB88128  13.828  15.891  16.361 -0.3589  0.2984  0.3009
 2296PEP     CB88129  14.224  15.786  16.128 -0.7007 -0.3903 -0.0393
 2296PEP     CB88130  14.513  15.796  15.765 -0.0724  0.1882  0.1113
 2296PEP     CB88131  14.928  15.802  15.681 -0.0840 -0.2030  0.1370
 2296PEP     CB88132  15.310  15.859  15.391 -0.0994  0.4207  0.0267
 2296PEP     CB88133  15.684  15.954  15.252  0.2528  0.2071  0.5903
 2296PEP     CB88134  16.084  15.663  15.134 -0.2539 -0.2986  0.0962
 2296PEP     CB88135  16.072  15.274  15.115 -0.2110  0.1210 -0.0272
 2296PEP     CB88136  16.290  14.950  15.331  0.0223  0.1189 -0.5032
 2296PEP     CB88137  16.134  14.587  15.649  0.1144  0.1564 -0.2689
 2296PEP     CB88138  15.714  14.681  15.932  0.3413 -0.2475  0.2905
 2296PEP     CB88139  15.383  14.559  16.261  0.2202  0.3842  0.5400
 2296PEP     CB88140  15.250  14.426  16.705 -0.0944 -0.4420  0.1506
 2296PEP     CB88141  14.999  14.305  17.020 -0.0148 -0.0318 -0.2510
 2296PEP     CB88142  14.609  14.096  17.253 -0.2123  0.1690 -0.4839
 2296PEP     CB88143  14.157  14.219  17.432 -0.2364 -0.2101 -0.1655
 2296PEP     CB88144  13.906  13.924  17.719 -0.0870 -0.2406 -0.1078
 2296PEP     CB88145  13.679  13.588  17.749  0.0119 -0.5270  0.1776
 2296PEP     CB88146  13.599  13.161  17.792 -0.1347  0.1570  0.0711
 2296PEP     CB88147  13.590  12.663  17.666  0.3451  0.1851  0.3260
 2296PEP     CB88148  13.879  12.153  17.703 -0.2578 -0.1481  0.1300
 2296PEP     CB88149  14.168  11.867  17.840 -0.2445  0.0093  0.1788
 2296PEP     CB88150  14.423  11.601  18.112  0.5290 -0.1892 -0.0073
 2296PEP     CB88151  14.733  11.283  18.004 -0.1492  0.0480 -0.2017
 2296PEP     CB88152  15.140  11.055  17.822 -0.1962 -0.0186 -0.0830
 2296PEP     CB88153  15.263  10.888  17.347 -0.4850  0.3073 -0.2683
 2296PEP     CB88154  15.416  11.195  16.912 -0.2477 -0.0242 -0.0897
 2296PEP     CB88155  15.472  11.580  16.563 -0.3555  0.0194 -0.1783
 2296PEP     CB88156  15.306  11.676  16.199  0.2117 -0.0180 -0.1615
 2296PEP     CB88157  15.170  12.122  15.990 -0.1250 -0.0250  0.2841
 2296PEP     CB88158  15.226  12.381  15.665 -0.3665 -0.1853  0.0663
 2296PEP     CB88159  15.172  12.609  15.261  0.5092 -0.0553  0.0390
 2296PEP     CB88160  14.969  12.997  15.185 -0.1923  0.0815 -0.0323
 2297PEP     CB88161  21.493  14.118   1.160  0.4191  0.0754 -0.0954
 2297PEP     CB88162  21.784  14.336   1.456  0.1814  0.0672 -0.1868
 2297PEP     CB88163  22.014  14.243   1.844  0.3080 -0.4358  0.1868
 2297PEP     CB88164  22.317  13.854   1.855  0.1964  0.0868 -0.1757
 2297PEP     CB88165  22.562  13.675   1.475  0.3228 -0.2387 -0.1894
 2297PEP     CB88166  22.807  13.399   1.295 -0.2121 -0.1818 -0.0835
 2297PEP     CB88167  23.086  13.332   1.021 -0.0987 -0.4170  0.0216
 2297PEP     CB88168  23.550  13.302   0.826 -0.0200  0.1648 -0.1801
 2297PEP     CB88169  23.858  13.046   0.650 -0.0341 -0.1485  0.1551
 2297PEP     CB88170  24.316  13.030   0.611  0.1751 -0.0310  0.3589
 2297PEP     CB88171  24.775  13.018   0.666  0.5676 -0.1500 -0.4315
 2297PEP     CB88172  25.144  13.070   0.500 -0.3072  0.1738  0.1650
 2297PEP     CB88173  25.449  13.437   0.591  0.3256  0.1606 -0.2640
 2297PEP     CB88174  25.480  13.663   0.942 -0.2178 -0.0956  0.0014
 2297PEP     CB88175  25.421  14.053   1.308  0.0798 -0.0794 -0.1451
 2297PEP     CB88176  25.607  14.361   1.534  0.1782  0.0898 -0.2716
 2297PEP     CB88177  25.849  14.701   1.785 -0.1396  0.0024  0.4428
 2297PEP     CB88178  25.745  15.149   1.983 -0.0158 -0.4682  0.0445
 2297PEP     CB88179  25.271  15.394   1.941  0.3667  0.0112  0.0023
 2297PEP     CB88180  24.976  15.201   1.699 -0.0857 -0.1826 -0.0009
 2297PEP     CB88181  24.789  14.822   1.646 -0.2459 -0.4172  0.0257
 2297PEP     CB88182  24.793  14.697   1.221  0.1567 -0.0789  0.4683
 2297PEP     CB88183  25.102  14.886   0.955  0.3689  0.0634  0.3324
 2297PEP     CB88184  25.303  15.165   0.569 -0.2916 -0.1814  0.4213
 2297PEP     CB88185  25.563  15.475   0.412  0.0214 -0.4999  0.1595
 2297PEP     CB88186  25.707  15.855   0.526  0.2320  0.2080  0.1330
 2297PEP     CB88187  25.528  16.281   0.570  0.2005  0.1153  0.0756
 2297PEP     CB88188  25.221  16.558   0.783 -0.4842  0.1792  0.1950
 2297PEP     CB88189  24.828  16.559   1.080  0.2250  0.1649  0.1035
 2297PEP     CB88190  24.542  16.648   1.372  0.4587 -0.0460 -0.2956
 2297PEP     CB88191  24.120  16.631   1.429 -0.0873 -0.0680 -0.6025
 2297PEP     CB88192  23.890  16.681   1.708  0.0939 -0.4762 -0.1650
 2297PEP     CB88193  23.579  17.062   1.886  0.1037  0.1480  0.0646
 2297PEP     CB88194  23.488  17.374   2.281 -0.0452  0.2162 -0.0970
 2297PEP     CB88195  23.322  17.677   2.566  0.0094  0.5465  0.3335
 2297PEP     CB88196  23.018  17.865   2.946  0.0837  0.1253  0.1839
 2297PEP     CB88197  22.937  18.241   3.094  0.3464  0.0895  0.2949
 2297PEP     CB88198  22.555  18.459   2.945 -0.2445 -0.0350  0.0931
 2297PEP     CB88199  22.339  18.395   2.596  0.2029  0.2291 -0.0556
 2297PEP     CB88200  22.371  18.306   2.199  0.0469  0.0336  0.1877
 2298PEP     CB88201   6.877  20.560  19.835  0.3083  0.1384 -0.2506
 2298PEP     CB88202   6.775  20.430  20.325 -0.0545  0.0320  0.0732
 2298PEP     CB88203   6.588  20.263  20.562  0.0675  0.2373  0.3059
 2298PEP     CB88204   6.405  19.862  20.667 -0.0595 -0.0489  0.5010
 2298PEP     CB88205   6.254  19.489  20.542  0.0043  0.0103 -0.1719
 2298PEP     CB88206   6.003  19.109  20.590 -0.5995 -0.2626  0.1136
 2298PEP     CB88207   5.706  18.790  20.873 -0.0807  0.5316  0.0113
 2298PEP     CB88208   5.391  18.678  21.182 -0.2554  0.0277  0.2582
 2298PEP     CB88209   5.091  19.001  21.259 -0.1076 -0.2112 -0.0774
 2298PEP     CB88210   5.125  19.401  21.060  0.3690 -0.0639 -0.0638
 2298PEP     CB88211   5.040  19.627  20.575  0.1846 -0.2228  0.0183
 2298PEP     CB88212   4.818  19.556  20.208  0.0477 -0.2813  0.2796
 2298PEP     CB88213   4.524  19.332  19.907 -0.1665 -0.1701 -0.0595
 2298PEP     CB88214   4.458  19.096  19.598 -0.1992  0.0796 -0.0292
 2298PEP     CB88215   4.476  19.207  19.120 -0.2119  0.1500 -0.0778
 2298PEP     CB88216   4.517  19.087  18.729  0.2842  0.0964  0.4274
 2298PEP     CB88217   4.378  19.221  18.208  0.0249  0.0064  0.0269
 2298PEP     CB88218   3.920  19.267  17.986 -0.2269 -0.3349  0.0936
 2298PEP     CB88219   3.536  19.544  18.068  0.5022 -0.4340  0.0739
 2298PEP     CB88220   3.274  19.622  18.392 -0.0811  0.2182  0.1152
 2298PEP     CB88221   2.831  19.769  18.607  0.0318 -0.0797  0.1345
 2298PEP     CB88222   2.556  19.981  18.312  0.1688  0.4844 -0.2155
 2298PEP     CB88223   2.592  19.794  17.838  0.0567 -0.0035  0.0878
 2298PEP     CB88224   2.931  19.570  17.600  0.1730 -0.3020  0.2326
 2298PEP     CB88225   3.211  19.236  17.680  0.2438  0.1150  0.2384
 2298PEP     CB88226   3.504  18.964  17.972 -0.2227  0.3578  0.1478
 2298PEP     CB88227   3.846  18.632  18.160 -0.0856 -0.0818  0.2530
 2298PEP     CB88228   4.218  18.469  17.880  0.0502 -0.3830 -0.1105
 2298PEP     CB88229   4.368  18.672  17.433  0.1165  0.0790 -0.1636
 2298PEP     CB88230   4.210  18.726  17.027 -0.1484  0.2100 -0.0139
 2298PEP     CB88231   3.935  18.520  16.780  0.0807 -0.4420  0.2443
 2298PEP     CB88232   3.771  18.250  16.479 -0.1402  0.1021  0.1446
 2298PEP     CB88233   3.858  17.841  16.329 -0.0056 -0.1380  0.4555
 2298PEP     CB88234   3.767  17.358  16.180 -0.0609  0.1244  0.0448
 2298PEP     CB88235   3.653  16.822  16.301  0.1450 -0.1852 -0.0071
 2298PEP     CB88236   3.784  16.467  16.055 -0.0542  0.1215 -0.2564
 2298PEP     CB88237   3.760  16.533  15.640 -0.5305  0.2845  0.6246
 2298PEP     CB88238   3.698  16.320  15.222 -0.0379 -0.1065  0.0334
 2298PEP     CB88239   3.903  16.047  14.953 -0.0766 -0.0264  0.0391
 2298PEP     CB88240   4.037  15.978  14.561 -0.2199 -0.0629  0.1453
 2299PEP     CB88241  18.100  12.668  20.371  0.1495 -0.0144  0.0911
 2299PEP     CB88242  18.560  12.444  20.254  0.1827 -0.0980  0.4132
 2299PEP     CB88243  18.743  12.007  20.120  0.2180  0.0426 -0.0286
 2299PEP     CB88244  18.910  11.739  20.421  0.1417  0.2959 -0.0354
 2299PEP     CB88245  18.879  11.638  20.723 -0.0730  0.3028 -0.5629
 2299PEP     CB88246  19.070  11.740  21.127  0.2325 -0.3266  0.1439
 2299PEP     CB88247  19.417  11.619  21.542  0.2820 -0.1744  0.5378
 2299PEP     CB88248  19.530  11.580  21.957  0.1225 -0.0767 -0.4211
 2299PEP     CB88249  19.492  11.572  22.435  0.4271 -0.1893  0.0208
 2299PEP     CB88250  19.637  11.426  22.855 -0.1439  0.2473 -0.3922
 2299PEP     CB88251  20.166  11.432  23.050 -0.1425 -0.0273 -0.1155
 2299PEP     CB88252  20.585  11.563  22.883  0.1159  0.1067 -0.0428
 2299PEP     CB88253  20.873  11.708  22.649 -0.7231 -0.0628  0.0091
 2299PEP     CB88254  21.314  11.731  22.548 -0.1140  0.2283 -0.1658
 2299PEP     CB88255  21.700  11.811  22.505 -0.0325 -0.4585 -0.0978
 2299PEP     CB88256  22.064  11.755  22.498 -0.0136 -0.0849  0.1095
 2299PEP     CB88257  22.532  11.921  22.664 -0.2346 -0.0204 -0.0460
 2299PEP     CB88258  23.041  11.871  22.835  0.1584  0.1264 -0.2619
 2299PEP     CB88259  23.495  11.812  22.690  0.3124  0.0493  0.1279
 2299PEP     CB88260  23.914  12.017  22.574  0.0431  0.3194  0.0284
 2299PEP     CB88261  24.083  12.149  22.235  0.1233  0.3513 -0.0927
 2299PEP     CB88262  23.869  12.098  21.824 -0.0663 -0.1082  0.3892
 2299PEP     CB88263  23.690  11.779  21.548 -0.1011 -0.0908 -0.1600
 2299PEP     CB88264  23.593  11.291  21.511  0.2043  0.1053 -0.4116
 2299PEP     CB88265  23.710  10.832  21.357 -0.0552 -0.1484 -0.0286
 2299PEP     CB88266  23.842  10.512  21.584  0.1839  0.0260  0.0954
 2299PEP     CB88267  23.978  10.167  21.756 -0.6603 -0.2088 -0.2679
 2299PEP     CB88268  24.013   9.697  21.863  0.2245  0.0403 -0.1609
 2299PEP     CB88269  23.945   9.332  21.986 -0.1232  0.3033 -0.2607
 2299PEP     CB88270  24.193   8.899  21.886  0.1482  0.1502  0.0051
 2299PEP     CB88271  24.532   8.861  21.527  0.0735 -0.0534 -0.2962
 2299PEP     CB88272  24.767   8.908  21.058  0.0798 -0.0219 -0.1961
 2299PEP     CB88273  24.870   8.988  20.683 -0.0412 -0.2604  0.3739
 2299PEP     CB88274  24.854   9.198  20.265 -0.2386 -0.2067  0.0663
 2299PEP     CB88275  24.427   9.410  20.066 -0.2174  0.0467 -0.0952
 2299PEP     CB88276  23.964   9.420  20.315 -0.1378  0.3489  0.3349
 2299PEP     CB88277  23.865   9.500  20.709  0.1414 -0.1731  0.1886
 2299PEP     CB88278  24.027   9.649  21.092 -0.1463  0.0977 -0.3055
 2299PEP     CB88279  23.866   9.866  21.404 -0.2932  0.4584 -0.3647
 2299PEP     CB88280  23.464  10.068  21.456 -0.0273 -0.1671 -0.1789
 2300PEP     CB88281   8.208   6.908   5.559 -0.1128 -0.1957 -0.2443
 2300PEP     CB88282   8.467   6.652   5.381  0.0426 -0.0161 -0.1912
 2300PEP     CB88283   8.731   6.327   5.075  0.1561  0.1055 -0.1421
 2300PEP     CB88284   8.896   6.007   4.905 -0.0045 -0.6954 -0.1669
 2300PEP     CB88285   9.228   5.767   4.700 -0.2167  0.2057  0.1630
 2300PEP     CB88286   9.533   5.640   4.447 -0.1240  0.1025 -0.1979
 2300PEP     CB88287   9.767   5.552   4.179 -0.1837  0.1965  0.1627
 2300PEP     CB88288  10.018   5.360   3.895 -0.5952 -0.1533 -0.3733
 2300PEP     CB88289  10.431   5.144   3.819  0.2218  0.1630 -0.2147
 2300PEP     CB88290  10.697   4.911   3.605 -0.1401  0.0436  0.1155
 2300PEP     CB88291  11.237   4.906   3.444 -0.1017  0.4322 -0.2358
 2300PEP     CB88292  11.705   4.622   3.340 -0.4542  0.0782 -0.3753
 2300PEP     CB88293  11.770   4.192   3.530 -0.0721 -0.0790  0.0945
 2300PEP     CB88294  11.799   3.771   3.579  0.1194 -0.2526 -0.1780
 2300PEP     CB88295  11.838   3.434   3.848  0.1448 -0.4224  0.0325
 2300PEP     CB88296  11.681   3.062   3.961  0.0655 -0.0539  0.0154
 2300PEP     CB88297  11.438   2.956   4.328  0.3366 -0.1585 -0.1739
 2300PEP     CB88298  11.368   3.140   4.723 -0.0126  0.2357  0.1655
 2300PEP     CB88299  11.232   3.223   5.179  0.0992  0.0933 -0.1098
 2300PEP     CB88300  10.947   3.217   5.484  0.0018 -0.3012  0.0931
 2300PEP     CB88301  10.723   3.464   5.732 -0.0060 -0.1079  0.3334
 2300PEP     CB88302  10.453   3.744   5.935 -0.0857 -0.1925 -0.0864
 2300PEP     CB88303  10.221   4.112   5.981  0.0613  0.3367  0.2561
 2300PEP     CB88304  10.136   4.522   5.708 -0.0136 -0.1276 -0.0388
 2300PEP     CB88305  10.207   4.960   5.713  0.2270  0.0674  0.0616
 2300PEP     CB88306  10.533   5.290   5.556  0.0724  0.0645  0.1950
 2300PEP     CB88307  10.749   5.662   5.703 -0.0323  0.0334  0.2072
 2300PEP     CB88308  11.160   5.847   5.663  0.1774 -0.1962 -0.1120
 2300PEP     CB88309  11.470   6.201   5.648 -0.2985  0.0199 -0.1065
 2300PEP     CB88310  11.961   6.277   5.571  0.1864  0.0329 -0.1554
 2300PEP     CB88311  12.326   6.265   5.261 -0.0789 -0.0218 -0.1920
 2300PEP     CB88312  12.684   6.311   5.033  0.2302 -0.1934  0.1195
 2300PEP     CB88313  13.082   6.281   5.018  0.0798  0.0850 -0.3720
 2300PEP     CB88314  13.474   6.477   5.263  0.3063  0.2042 -0.0707
 2300PEP     CB88315  13.745   6.210   5.492 -0.1829 -0.3562 -0.0526
 2300PEP     CB88316  13.786   5.900   5.684  0.1395 -0.1037  0.0865
 2300PEP     CB88317  13.692   5.512   5.801  0.0549  0.1542 -0.5280
 2300PEP     CB88318  13.640   5.132   5.800  0.3651  0.4196 -0.1637
 2300PEP     CB88319  13.379   4.726   5.716  0.2819  0.0633  0.2489
 2300PEP     CB88320  13.127   4.533   5.411 -0.6283  0.0951 -0.2997
 2301PEP     CB88321  20.200   7.787  21.977 -0.2093 -0.3309 -0.1293
 2301PEP     CB88322  20.154   8.193  21.987 -0.0210 -0.0848 -0.1491
 2301PEP     CB88323  20.204   8.476  21.665  0.3892 -0.3461 -0.1465
 2301PEP     CB88324  20.008   8.710  21.396  0.1044 -0.3823 -0.0373
 2301PEP     CB88325  19.628   8.565  21.163  0.0025 -0.2136 -0.1399
 2301PEP     CB88326  19.445   8.188  21.410  0.0760 -0.1476 -0.4749
 2301PEP     CB88327  19.232   7.758  21.498  0.0250 -0.1886 -0.4056
 2301PEP     CB88328  18.854   7.559  21.533 -0.0066 -0.0757 -0.0765
 2301PEP     CB88329  18.514   7.489  21.670  0.2803  0.1727 -0.2976
 2301PEP     CB88330  18.095   7.373  21.869 -0.0832  0.2172  0.0459
 2301PEP     CB88331  17.672   7.531  21.777 -0.0927 -0.1933 -0.2510
 2301PEP     CB88332  17.290   7.382  21.589 -0.1528  0.2304  0.0946
 2301PEP     CB88333  17.108   7.315  21.213 -0.0083 -0.1886  0.0358
 2301PEP     CB88334  16.989   7.253  20.773  0.1515  0.5291 -0.0459
 2301PEP     CB88335  16.964   7.375  20.316  0.1882 -0.2563 -0.2112
 2301PEP     CB88336  17.145   7.570  19.911  0.0708  0.4097  0.0622
 2301PEP     CB88337  17.041   7.450  19.508 -0.0390 -0.0339 -0.1335
 2301PEP     CB88338  16.776   7.204  19.226  0.1596  0.2088  0.2559
 2301PEP     CB88339  16.950   7.070  18.816 -0.0685  0.1767  0.1140
 2301PEP     CB88340  17.309   7.266  18.675 -0.4962 -0.3184  0.1281
 2301PEP     CB88341  17.731   7.021  18.886 -0.0789  0.1399 -0.0874
 2301PEP     CB88342  17.702   6.594  19.127 -0.2495 -0.1862  0.3873
 2301PEP     CB88343  17.711   6.149  19.170  0.0232  0.1220  0.2229
 2301PEP     CB88344  17.457   5.843  19.192  0.3816  0.0040  0.0293
 2301PEP     CB88345  16.946   5.966  19.053  0.0842 -0.0371 -0.0272
 2301PEP     CB88346  16.776   6.436  18.876  0.1935  0.2398 -0.1439
 2301PEP     CB88347  16.490   6.832  18.817 -0.0881 -0.4000  0.1415
 2301PEP     CB88348  16.478   7.321  18.833 -0.0824  0.4739  0.0430
 2301PEP     CB88349  16.689   7.688  18.772  0.4179 -0.1760  0.0957
 2301PEP     CB88350  16.865   7.911  18.486  0.3446  0.0757 -0.0137
 2301PEP     CB88351  17.045   8.304  18.467 -0.0931 -0.4656 -0.1659
 2301PEP     CB88352  17.483   8.512  18.307 -0.0266  0.0502  0.2398
 2301PEP     CB88353  17.540   8.561  17.924  0.3360  0.3152 -0.4661
 2301PEP     CB88354  17.202   8.513  17.605 -0.2003  0.2588 -0.4809
 2301PEP     CB88355  17.261   8.395  17.218 -0.0371  0.1160 -0.1035
 2301PEP     CB88356  17.068   8.505  16.853  0.2492 -0.0765 -0.1294
 2301PEP     CB88357  16.789   8.503  16.474  0.4602  0.0114  0.0602
 2301PEP     CB88358  16.761   8.708  16.047  0.3372 -0.2806  0.1002
 2301PEP     CB88359  16.875   8.837  15.707  0.3534 -0.4469 -0.1887
 2301PEP     CB88360  16.749   8.971  15.357 -0.0684  0.0010 -0.0981
 2302PEP     CB88361  13.162  12.946   5.856 -0.1226 -0.0667 -0.1461
 2302PEP     CB88362  12.699  13.075   5.956 -0.5101  0.1999  0.1137
 2302PEP     CB88363  12.257  13.375   5.899  0.1773  0.2332  0.0000
 2302PEP     CB88364  12.157  13.803   5.865 -0.3601  0.1054 -0.2361
 2302PEP     CB88365  11.964  14.246   5.736  0.0288  0.0696 -0.3318
 2302PEP     CB88366  11.715  14.585   5.794 -0.1256  0.0228 -0.0005
 2302PEP     CB88367  11.372  14.853   5.808 -0.1999 -0.0498  0.0211
 2302PEP     CB88368  11.267  15.257   5.729 -0.2588  0.0516  0.2422
 2302PEP     CB88369  11.414  15.683   5.470  0.0546  0.1564 -0.3748
 2302PEP     CB88370  11.828  15.834   5.269  0.0119 -0.1648 -0.0859
 2302PEP     CB88371  12.008  16.035   4.897 -0.0116 -0.2754  0.1075
 2302PEP     CB88372  11.871  16.048   4.457 -0.1505 -0.0927  0.0600
 2302PEP     CB88373  11.571  15.902   4.138 -0.0819  0.3971 -0.0504
 2302PEP     CB88374  11.218  16.031   3.884 -0.0050 -0.1182 -0.1901
 2302PEP     CB88375  11.137  16.088   3.457  0.1505 -0.2068  0.1498
 2302PEP     CB88376  11.057  15.903   3.014  0.0551 -0.3271 -0.0646
 2302PEP     CB88377  11.079  15.777   2.565 -0.4495  0.2121  0.0418
 2302PEP     CB88378  11.299  15.720   2.151  0.3655 -0.2884 -0.0953
 2302PEP     CB88379  11.601  15.907   1.804 -0.0585  0.0665 -0.0323
 2302PEP     CB88380  12.063  16.026   1.571 -0.3798 -0.3426 -0.2978
 2302PEP     CB88381  12.405  16.212   1.259 -0.2060 -0.3171  0.0423
 2302PEP     CB88382  12.655  16.431   0.988  0.1303  0.2959  0.0460
 2302PEP     CB88383  12.999  16.488   0.634  0.0290  0.0817 -0.1615
 2302PEP     CB88384  13.286  16.789   0.342 -0.4135  0.1041 -0.0537
 2302PEP     CB88385  13.193  17.115   0.121  0.1229  0.2871 -0.0052
 2302PEP     CB88386  13.098  17.602   0.020 -0.1392 -0.2010  0.3577
 2302PEP     CB88387  13.369  18.012   0.120 -0.0243  0.0175 -0.0938
 2302PEP     CB88388  13.675  18.380   0.051 -0.1009  0.1497 -0.3378
 2302PEP     CB88389  13.784  18.793   0.055 -0.3934  0.0088 -0.0043
 2302PEP     CB88390  14.073  19.095  -0.015  0.1241 -0.4341  0.1847
 2302PEP     CB88391  14.414  19.254   0.146 -0.1604  0.2248  0.1549
 2302PEP     CB88392  14.645  19.661   0.307  0.0640  0.1327  0.0387
 2302PEP     CB88393  14.701  19.980   0.734  0.1466  0.2993  0.0157
 2302PEP     CB88394  14.674  19.970   1.173 -0.0882  0.1230  0.0203
 2302PEP     CB88395  14.378  19.939   1.619 -0.0052  0.1888 -0.2926
 2302PEP     CB88396  14.167  20.009   1.968  0.1911 -0.2157  0.1247
 2302PEP     CB88397  13.957  20.179   2.302  0.4870  0.0093  0.2320
 2302PEP     CB88398  13.476  20.217   2.545  0.2052  0.1335 -0.0736
 2302PEP     CB88399  13.182  19.821   2.518  0.0149  0.2640 -0.0611
 2302PEP     CB88400  13.252  19.399   2.440 -0.0571  0.5475 -0.0421
 2303PEP     CB88401   1.592   3.438   3.823  0.0944 -0.1798 -0.1586
 2303PEP     CB88402   1.987   3.505   3.547  0.0462 -0.1519 -0.0880
 2303PEP     CB88403   2.235   3.223   3.347  0.2001  0.1908  0.1666
 2303PEP     CB88404   2.160   2.774   3.459 -0.0827 -0.2560 -0.0156
 2303PEP     CB88405   1.714   2.606   3.497  0.0817  0.6043 -0.0159
 2303PEP     CB88406   1.430   2.426   3.778 -0.0919  0.1674 -0.1347
 2303PEP     CB88407   1.240   2.220   4.036 -0.0973 -0.3313 -0.1154
 2303PEP     CB88408   1.014   2.240   4.437 -0.1815  0.4871 -0.1763
 2303PEP     CB88409   0.653   2.039   4.526  0.0665 -0.2596  0.4947
 2303PEP     CB88410   0.321   1.922   4.340  0.2741  0.1543  0.0562
 2303PEP     CB88411  -0.164   1.737   4.348 -0.0363 -0.2878  0.0005
 2303PEP     CB88412  -0.437   1.568   4.120  0.2267  0.1281 -0.2900
 2303PEP     CB88413  -0.604   1.190   3.931 -0.0428  0.0480  0.5309
 2303PEP     CB88414  -0.897   0.902   4.010 -0.2251  0.0521  0.2396
 2303PEP     CB88415  -1.095   0.664   4.233 -0.1526 -0.1516  0.2706
 2303PEP     CB88416  -1.469   0.704   4.580 -0.0777  0.0894  0.0860
 2303PEP     CB88417  -1.813   0.870   4.590 -0.0194  0.2875 -0.2263
 2303PEP     CB88418  -2.028   1.229   4.694  0.2508 -0.1708  0.1549
 2303PEP     CB88419  -2.151   1.389   5.030 -0.1424 -0.1665  0.0733
 2303PEP     CB88420  -2.231   1.733   5.310  0.4787 -0.0654 -0.0133
 2303PEP     CB88421  -2.525   1.957   5.627  0.1739 -0.2924  0.0257
 2303PEP     CB88422  -2.314   2.168   5.992  0.0191 -0.0508 -0.0536
 2303PEP     CB88423  -2.151   2.501   6.272 -0.4214 -0.0327  0.1772
 2303PEP     CB88424  -2.259   2.940   6.343  0.0395 -0.4038 -0.1516
 2303PEP     CB88425  -2.168   3.373   6.432  0.0172  0.1555 -0.0199
 2303PEP     CB88426  -2.154   3.560   6.760  0.0891  0.3583 -0.2076
 2303PEP     CB88427  -2.334   3.670   7.074 -0.2806 -0.0028 -0.1402
 2303PEP     CB88428  -2.361   3.870   7.485 -0.1975  0.3066 -0.0377
 2303PEP     CB88429  -2.415   3.949   7.903 -0.2743 -0.1712 -0.0515
 2303PEP     CB88430  -2.530   3.751   8.298  0.0120 -0.3078 -0.0727
 2303PEP     CB88431  -2.432   3.303   8.372 -0.0306 -0.0676  0.4341
 2303PEP     CB88432  -2.495   2.926   8.119 -0.1775  0.0396 -0.3246
 2303PEP     CB88433  -2.414   3.012   7.660 -0.1740 -0.2407  0.0079
 2303PEP     CB88434  -2.551   3.330   7.355  0.0087  0.1922  0.1187
 2303PEP     CB88435  -2.781   3.737   7.355 -0.3763 -0.3691 -0.3033
 2303PEP     CB88436  -2.946   4.212   7.380 -0.0607  0.1114 -0.2140
 2303PEP     CB88437  -3.179   4.528   7.295  0.1919 -0.1951  0.2131
 2303PEP     CB88438  -3.299   4.702   6.870  0.0400  0.1525 -0.1886
 2303PEP     CB88439  -3.273   4.464   6.467 -0.0295  0.1292 -0.1939
 2303PEP     CB88440  -3.091   4.075   6.293  0.0070  0.1138  0.1187
 2304PEP     CB88441   8.700  16.820  16.348  0.3381  0.1956  0.1819
 2304PEP     CB88442   8.854  16.556  16.595  0.1662 -0.0357 -0.0753
 2304PEP     CB88443   8.981  16.193  16.852 -0.0557 -0.1097  0.2550
 2304PEP     CB88444   8.957  16.120  17.329  0.3318  0.1004 -0.0584
 2304PEP     CB88445   8.721  16.246  17.664  0.3276  0.0548 -0.0930
 2304PEP     CB88446   8.704  16.631  17.963  0.0154 -0.0362 -0.0568
 2304PEP     CB88447   9.088  16.774  18.187 -0.3870 -0.0398  0.2280
 2304PEP     CB88448   9.497  16.848  18.014  0.1658 -0.3668 -0.2094
 2304PEP     CB88449   9.727  16.611  17.750 -0.0160  0.1248  0.1168
 2304PEP     CB88450   9.848  16.169  17.713 -0.0034  0.2361  0.0923
 2304PEP     CB88451   9.894  15.873  17.989  0.1221  0.1048  0.2245
 2304PEP     CB88452  10.247  15.810  18.339  0.2631 -0.2662 -0.0682
 2304PEP     CB88453  10.505  16.060  18.355 -0.1978  0.1123 -0.2217
 2304PEP     CB88454  10.807  16.100  18.175 -0.0473 -0.2556  0.1819
 2304PEP     CB88455  11.112  16.456  17.963 -0.1381  0.0323  0.0979
 2304PEP     CB88456  11.440  16.832  17.881  0.1351  0.1036 -0.0634
 2304PEP     CB88457  11.668  17.164  17.721  0.1982  0.1100  0.0065
 2304PEP     CB88458  11.871  17.500  17.409  0.2355 -0.0658  0.1883
 2304PEP     CB88459  12.067  17.940  17.410 -0.1620 -0.2081 -0.0704
 2304PEP     CB88460  11.966  18.348  17.370 -0.0095  0.6939 -0.1753
 2304PEP     CB88461  11.887  18.462  16.915 -0.1439  0.2340 -0.1934
 2304PEP     CB88462  11.700  18.104  16.574  0.2932  0.1006  0.4167
 2304PEP     CB88463  11.443  17.880  16.605 -0.0028 -0.4862 -0.1014
 2304PEP     CB88464  11.201  17.565  16.892 -0.0986 -0.1201  0.0279
 2304PEP     CB88465  10.777  17.295  17.037 -0.1044  0.3277  0.1200
 2304PEP     CB88466  10.461  17.342  17.391  0.2047  0.1569 -0.0796
 2304PEP     CB88467  10.467  17.411  17.843  0.0344 -0.0016  0.6671
 2304PEP     CB88468  10.739  17.403  18.146 -0.3806  0.0989 -0.1787
 2304PEP     CB88469  10.814  17.715  18.469 -0.3610  0.2258  0.1764
 2304PEP     CB88470  11.150  17.924  18.608 -0.3230  0.0534  0.0427
 2304PEP     CB88471  11.605  17.883  18.624  0.1965 -0.2894  0.0156
 2304PEP     CB88472  12.029  17.698  18.698  0.3377 -0.3003  0.3953
 2304PEP     CB88473  12.299  17.370  18.615  0.1314 -0.0687 -0.1804
 2304PEP     CB88474  12.416  16.955  18.787 -0.2051  0.2712  0.1527
 2304PEP     CB88475  12.269  16.554  18.753 -0.0513 -0.3508  0.3424
 2304PEP     CB88476  12.164  16.104  18.858 -0.2755  0.1449  0.1007
 2304PEP     CB88477  11.822  15.858  19.159 -0.1263  0.1499 -0.0648
 2304PEP     CB88478  11.747  15.699  19.501  0.4826  0.4254  0.0648
 2304PEP     CB88479  11.908  15.331  19.749 -0.2211 -0.1225 -0.0158
 2304PEP     CB88480  12.235  15.178  19.957 -0.4167 -0.0828 -0.0620
 2305PEP     CB88481  18.467   2.105  13.349  0.2316 -0.2549  0.0679
 2305PEP     CB88482  18.830   2.066  13.622  0.1925  0.3091 -0.1013
 2305PEP     CB88483  19.207   2.235  13.687 -0.1214  0.3018  0.3154
 2305PEP     CB88484  19.365   2.590  13.413  0.3078 -0.2660  0.1275
 2305PEP     CB88485  19.164   2.682  13.108  0.2369  0.2953  0.3675
 2305PEP     CB88486  18.911   2.877  12.996 -0.2431 -0.0689  0.0088
 2305PEP     CB88487  18.549   2.882  12.759  0.3869 -0.0897  0.0559
 2305PEP     CB88488  18.318   2.761  12.393 -0.5174 -0.1797 -0.1000
 2305PEP     CB88489  18.056   2.824  12.064  0.0357 -0.1235  0.2414
 2305PEP     CB88490  17.748   2.734  11.747  0.0053  0.1076 -0.0464
 2305PEP     CB88491  17.645   2.365  11.617  0.2470 -0.0602 -0.0309
 2305PEP     CB88492  17.875   2.014  11.573  0.3896  0.3527 -0.4430
 2305PEP     CB88493  18.035   1.639  11.852 -0.0631 -0.3566  0.1115
 2305PEP     CB88494  18.126   1.545  12.308  0.1993  0.1989  0.2062
 2305PEP     CB88495  18.174   1.386  12.683 -0.2326  0.0475 -0.6551
 2305PEP     CB88496  18.170   1.032  12.921  0.6770  0.0005  0.1123
 2305PEP     CB88497  17.871   0.742  13.207  0.3952 -0.1713 -0.0756
 2305PEP     CB88498  17.791   0.621  13.601 -0.0042 -0.2948 -0.1102
 2305PEP     CB88499  17.399   0.630  13.851 -0.2620  0.1360 -0.3852
 2305PEP     CB88500  17.158   0.952  14.014 -0.0333  0.1987 -0.4405
 2305PEP     CB88501  16.975   1.250  13.716  0.2226  0.2649 -0.4520
 2305PEP     CB88502  16.752   1.423  13.433  0.0053 -0.0132 -0.1183
 2305PEP     CB88503  16.507   1.455  13.073 -0.0410 -0.1279  0.0635
 2305PEP     CB88504  16.344   1.461  12.721  0.2389  0.0879 -0.0197
 2305PEP     CB88505  16.078   1.406  12.346 -0.0321 -0.1422  0.0493
 2305PEP     CB88506  16.070   1.189  11.995  0.1835 -0.0903 -0.0612
 2305PEP     CB88507  15.872   0.859  11.771  0.0440  0.2185  0.1305
 2305PEP     CB88508  15.753   0.469  11.802 -0.0029  0.0658  0.3455
 2305PEP     CB88509  15.761   0.186  11.423  0.2493  0.0968  0.0823
 2305PEP     CB88510  15.968   0.135  10.994  0.3021  0.0530 -0.0102
 2305PEP     CB88511  16.271   0.092  10.696 -0.1590  0.3405 -0.4818
 2305PEP     CB88512  16.390  -0.043  10.383 -0.0989 -0.1121 -0.2949
 2305PEP     CB88513  16.711  -0.046  10.004 -0.2743  0.2665  0.0444
 2305PEP     CB88514  16.954  -0.347   9.812 -0.1197  0.2430 -0.0242
 2305PEP     CB88515  17.294  -0.648   9.915  0.0435 -0.2020 -0.1229
 2305PEP     CB88516  17.761  -0.595   9.733 -0.1579 -0.1713 -0.1076
 2305PEP     CB88517  18.181  -0.408   9.690  0.2402  0.0814  0.0161
 2305PEP     CB88518  18.633  -0.276   9.558 -0.1043 -0.0095  0.0561
 2305PEP     CB88519  18.999  -0.124   9.658 -0.1764 -0.2086 -0.2957
 2305PEP     CB88520  19.397  -0.279   9.906 -0.0399  0.0586 -0.0941
 2306PEP     CB88521  21.109  10.019   3.001  0.1302 -0.3608 -0.0806
 2306PEP     CB88522  21.188   9.748   3.304 -0.0584  0.3611 -0.1927
 2306PEP     CB88523  21.319   9.452   3.647  0.4901  0.4663  0.0471
 2306PEP     CB88524  21.621   9.207   3.700  0.0247 -0.1507 -0.3689
 2306PEP     CB88525  21.732   8.712   3.759 -0.3560 -0.3086  0.2978
 2306PEP     CB88526  21.660   8.367   3.776  0.1236  0.0077  0.0142
 2306PEP     CB88527  21.767   7.923   3.666 -0.6256 -0.1643 -0.3911
 2306PEP     CB88528  21.919   7.571   3.747 -0.2177 -0.4428 -0.0668
 2306PEP     CB88529  21.836   7.207   3.620 -0.4254 -0.1670 -0.0659
 2306PEP     CB88530  21.620   6.757   3.524 -0.0664 -0.3334 -0.3279
 2306PEP     CB88531  21.433   6.376   3.611  0.0038  0.2131  0.0306
 2306PEP     CB88532  21.256   5.956   3.509  0.1096  0.0397  0.0320
 2306PEP     CB88533  21.358   5.555   3.358 -0.2166  0.2485  0.0895
 2306PEP     CB88534  21.158   5.253   3.130  0.3547  0.0602  0.3494
 2306PEP     CB88535  20.943   5.317   2.726  0.0975 -0.1902 -0.1268
 2306PEP     CB88536  20.782   5.298   2.408  0.1382  0.4170 -0.1971
 2306PEP     CB88537  20.604   5.736   2.268  0.1831 -0.5018 -0.4836
 2306PEP     CB88538  20.847   6.185   2.083  0.2508  0.0161  0.1970
 2306PEP     CB88539  21.345   6.299   2.009 -0.1965  0.0237 -0.0445
 2306PEP     CB88540  21.727   6.063   1.820  0.3596  0.1814 -0.0144
 2306PEP     CB88541  21.968   5.987   1.423 -0.0457 -0.1580  0.1553
 2306PEP     CB88542  22.445   6.086   1.280 -0.3495  0.1434  0.1750
 2306PEP     CB88543  22.878   5.981   1.387 -0.0708 -0.1375 -0.3817
 2306PEP     CB88544  23.125   5.682   1.362  0.1913  0.1742  0.0402
 2306PEP     CB88545  23.613   5.426   1.142 -0.2046  0.1047  0.2626
 2306PEP     CB88546  23.975   5.557   0.846  0.0575 -0.2163 -0.2140
 2306PEP     CB88547  23.917   5.898   0.501 -0.1357  0.0585  0.0273
 2306PEP     CB88548  23.612   5.993   0.284  0.5056 -0.2558 -0.4532
 2306PEP     CB88549  23.349   6.207   0.051  0.1509 -0.0224 -0.1195
 2306PEP     CB88550  23.000   6.461   0.019  0.0114  0.1928  0.5143
 2306PEP     CB88551  22.635   6.554  -0.258 -0.2639 -0.1127 -0.1207
 2306PEP     CB88552  22.146   6.409  -0.336  0.5603  0.0505  0.2952
 2306PEP     CB88553  21.895   6.184  -0.137  0.1341  0.2738 -0.3097
 2306PEP     CB88554  21.927   5.976   0.228  0.3142 -0.1759 -0.2984
 2306PEP     CB88555  22.209   5.674   0.407  0.0805  0.0313 -0.1725
 2306PEP     CB88556  22.657   5.760   0.379  0.0434  0.3404 -0.3557
 2306PEP     CB88557  23.080   5.991   0.412 -0.4392  0.0028  0.0499
 2306PEP     CB88558  23.338   6.380   0.578 -0.2111 -0.1475 -0.0117
 2306PEP     CB88559  23.585   6.452   0.821  0.3531 -0.0561  0.0895
 2306PEP     CB88560  23.472   6.410   1.287  0.1284  0.3824  0.0889
 2307PEP     CB88561   1.817  17.880  14.424  0.3314  0.3182  0.0519
 2307PEP     CB88562   1.809  17.545  14.180 -0.0091  0.5276  0.0731
 2307PEP     CB88563   1.623  17.209  13.910 -0.2048  0.2325 -0.0573
 2307PEP     CB88564   1.615  16.790  13.763  0.2017 -0.2329  0.1023
 2307PEP     CB88565   1.667  16.425  13.527 -0.0550  0.0352  0.3063
 2307PEP     CB88566   1.624  16.053  13.381 -0.1328 -0.1372 -0.1365
 2307PEP     CB88567   1.497  15.606  13.414 -0.1282  0.0516 -0.0798
 2307PEP     CB88568   1.555  15.230  13.363  0.1798 -0.0266 -0.3059
 2307PEP     CB88569   1.572  14.795  13.139 -0.0730 -0.0069 -0.2462
 2307PEP     CB88570   1.508  14.311  13.180  0.0267  0.2462  0.3311
 2307PEP     CB88571   1.246  13.952  13.485  0.0356 -0.0771 -0.0244
 2307PEP     CB88572   1.241  13.800  13.900 -0.4174  0.1651  0.1240
 2307PEP     CB88573   1.497  13.787  14.184 -0.1778  0.0472  0.2223
 2307PEP     CB88574   1.724  13.650  14.553 -0.0457 -0.4050  0.3198
 2307PEP     CB88575   2.012  13.723  14.892  0.0908  0.3482 -0.2849
 2307PEP     CB88576   2.081  13.302  15.149  0.0443  0.1211  0.0139
 2307PEP     CB88577   1.945  12.903  15.077  0.1209 -0.3244 -0.4684
 2307PEP     CB88578   1.880  12.610  14.821 -0.0871  0.3653  0.2585
 2307PEP     CB88579   1.848  12.179  14.593  0.1068  0.1792 -0.1188
 2307PEP     CB88580   1.782  11.691  14.737 -0.0173 -0.1374 -0.1120
 2307PEP     CB88581   2.003  11.374  14.823 -0.1653  0.1128  0.0626
 2307PEP     CB88582   2.073  10.948  14.745  0.1135 -0.1507  0.2770
 2307PEP     CB88583   2.038  10.525  14.887  0.0911 -0.1003  0.0747
 2307PEP     CB88584   1.983   9.976  14.881 -0.0144  0.0981 -0.4119
 2307PEP     CB88585   2.218   9.419  14.973  0.1704 -0.1459 -0.0870
 2307PEP     CB88586   2.061   9.029  15.056 -0.1470 -0.1380  0.0124
 2307PEP     CB88587   1.841   8.676  15.296  0.2846 -0.1621  0.0860
 2307PEP     CB88588   1.692   8.250  15.246  0.4425  0.0997 -0.1648
 2307PEP     CB88589   1.563   7.919  15.581 -0.0532  0.3090  0.0257
 2307PEP     CB88590   1.539   7.551  15.839 -0.1127 -0.0614  0.0014
 2307PEP     CB88591   1.445   7.203  15.969 -0.5697 -0.1697 -0.0004
 2307PEP     CB88592   1.449   6.786  16.102 -0.1822  0.2575  0.1343
 2307PEP     CB88593   1.687   6.431  16.237  0.1227  0.3196 -0.2445
 2307PEP     CB88594   2.168   6.368  16.422  0.0152  0.0327 -0.0433
 2307PEP     CB88595   2.364   6.599  16.741  0.2265  0.1120 -0.0297
 2307PEP     CB88596   2.255   7.019  16.737  0.0755 -0.1850 -0.2094
 2307PEP     CB88597   2.538   7.390  16.625  0.1461  0.2575  0.2668
 2307PEP     CB88598   2.679   7.692  16.975  0.1190 -0.0302  0.2607
 2307PEP     CB88599   2.890   8.160  16.953  0.0467  0.1032  0.0411
 2307PEP     CB88600   2.702   8.554  16.728  0.1086 -0.0198 -0.2912
 2308PEP     CB88601  20.816   4.470   5.070  0.1160 -0.0233  0.0261
 2308PEP     CB88602  20.742   4.931   5.090  0.0816 -0.0538  0.0524
 2308PEP     CB88603  20.522   5.349   5.263  0.1903  0.0588 -0.1439
 2308PEP     CB88604  20.159   5.511   5.218  0.2980 -0.1031 -0.2954
 2308PEP     CB88605  19.823   5.270   4.955 -0.1855 -0.5402 -0.0622
 2308PEP     CB88606  19.875   5.223   4.429  0.2566 -0.3176  0.0762
 2308PEP     CB88607  20.287   5.106   4.321 -0.5260 -0.2843  0.1303
 2308PEP     CB88608  20.759   5.137   4.549 -0.1318 -0.2199 -0.2807
 2308PEP     CB88609  21.099   4.977   4.747  0.3413  0.4835  0.1754
 2308PEP     CB88610  21.499   4.894   4.619 -0.1223 -0.3729 -0.1364
 2308PEP     CB88611  21.764   5.127   4.417 -0.0130  0.0844 -0.4833
 2308PEP     CB88612  21.622   5.539   4.219  0.2325 -0.1270  0.0530
 2308PEP     CB88613  21.293   5.699   4.323  0.4795  0.3607  0.4532
 2308PEP     CB88614  20.845   5.582   4.218  0.0485 -0.0341 -0.0194
 2308PEP     CB88615  20.654   5.270   4.009  0.0399 -0.1907 -0.0765
 2308PEP     CB88616  20.442   5.036   3.752  0.4030  0.1748 -0.0408
 2308PEP     CB88617  20.269   4.670   3.621  0.1398  0.2045 -0.2352
 2308PEP     CB88618  20.254   4.343   3.318 -0.2604 -0.2743 -0.2981
 2308PEP     CB88619  20.430   4.206   2.916  0.2115 -0.1768  0.2418
 2308PEP     CB88620  20.461   4.455   2.540  0.2782 -0.1400 -0.2544
 2308PEP     CB88621  20.561   4.429   2.064  0.1383  0.0211 -0.1077
 2308PEP     CB88622  20.541   4.485   1.716  0.1644  0.1161 -0.3162
 2308PEP     CB88623  20.860   4.576   1.425  0.0316  0.1726  0.1188
 2308PEP     CB88624  21.197   4.793   1.280 -0.4438 -0.3539 -0.1672
 2308PEP     CB88625  21.521   4.982   1.374 -0.3309 -0.2134 -0.4172
 2308PEP     CB88626  21.885   5.185   1.687 -0.2023  0.0039 -0.2220
 2308PEP     CB88627  22.132   5.563   1.786  0.3887 -0.2800  0.2765
 2308PEP     CB88628  22.206   5.943   2.089  0.1535  0.2726 -0.1764
 2308PEP     CB88629  22.193   6.273   2.388  0.5041  0.2169  0.0237
 2308PEP     CB88630  22.499   6.594   2.605 -0.0098  0.1649  0.0106
 2308PEP     CB88631  22.500   6.737   3.021  0.0250 -0.1209 -0.0113
 2308PEP     CB88632  22.188   6.582   3.278 -0.0042  0.5262  0.1393
 2308PEP     CB88633  21.781   6.487   3.148  0.0942 -0.1623 -0.1415
 2308PEP     CB88634  21.526   6.154   3.158 -0.1609  0.4837 -0.2064
 2308PEP     CB88635  21.718   5.794   2.965  0.2110  0.1978  0.1134
 2308PEP     CB88636  21.912   5.531   3.201 -0.5593 -0.2395  0.1769
 2308PEP     CB88637  22.021   5.118   3.335  0.1995  0.0363 -0.0363
 2308PEP     CB88638  22.047   4.768   3.618 -0.2462 -0.1485  0.0879
 2308PEP     CB88639  21.983   4.397   3.795  0.1916 -0.0778  0.1182
 2308PEP     CB88640  21.823   4.090   4.109  0.1789  0.0442  0.2214
 2309PEP     CB88641  19.200  20.053  20.109  0.0042  0.0395 -0.3615
 2309PEP     CB88642  18.844  20.173  19.803  0.5428  0.3026 -0.3153
 2309PEP     CB88643  18.814  20.331  19.423 -0.5540  0.2158  0.1173
 2309PEP     CB88644  19.009  20.668  19.300  0.0965  0.2584 -0.1999
 2309PEP     CB88645  18.915  21.007  19.385 -0.1619 -0.2240  0.0840
 2309PEP     CB88646  18.927  21.414  19.566  0.0208 -0.0886 -0.0422
 2309PEP     CB88647  18.866  21.645  19.981  0.3428 -0.2621 -0.0541
 2309PEP     CB88648  19.062  21.668  20.401 -0.1892 -0.2497 -0.0178
 2309PEP     CB88649  19.179  21.325  20.690 -0.4081 -0.1398  0.2794
 2309PEP     CB88650  18.993  20.957  20.754 -0.1034  0.2701  0.3433
 2309PEP     CB88651  18.972  20.517  20.532  0.0350  0.4166  0.1381
 2309PEP     CB88652  18.794  20.170  20.742 -0.6297 -0.2498  0.0053
 2309PEP     CB88653  18.784  19.789  20.941  0.0874  0.3143  0.2263
 2309PEP     CB88654  18.650  19.379  20.758  0.0169 -0.1214  0.0042
 2309PEP     CB88655  18.874  19.043  20.647 -0.1730 -0.3331 -0.1061
 2309PEP     CB88656  19.314  19.039  20.401 -0.2601 -0.4363  0.0120
 2309PEP     CB88657  19.627  19.414  20.408  0.0305  0.0586  0.0530
 2309PEP     CB88658  19.704  19.745  20.223  0.2905  0.1094  0.0150
 2309PEP     CB88659  19.909  20.198  20.098  0.1474 -0.1403  0.4582
 2309PEP     CB88660  19.721  20.543  20.094  0.1356  0.1037  0.0712
 2309PEP     CB88661  19.705  20.962  20.000 -0.2478  0.0246  0.0861
 2309PEP     CB88662  19.963  21.213  19.945 -0.0206 -0.0652 -0.1580
 2309PEP     CB88663  20.151  21.527  19.763 -0.0825 -0.1863  0.1379
 2309PEP     CB88664  20.290  21.982  19.791 -0.5132  0.0721  0.1802
 2309PEP     CB88665  20.561  22.176  19.980  0.2714 -0.0624  0.0803
 2309PEP     CB88666  20.980  22.170  20.060  0.1518  0.2954  0.2363
 2309PEP     CB88667  21.361  22.204  20.221  0.0576 -0.0478 -0.3066
 2309PEP     CB88668  21.608  22.234  20.552 -0.3205 -0.3556 -0.0608
 2309PEP     CB88669  21.527  22.057  20.938 -0.0706  0.3165 -0.1105
 2309PEP     CB88670  21.451  21.622  21.111  0.4039  0.0429 -0.0657
 2309PEP     CB88671  21.792  21.351  21.308  0.1439  0.0090  0.0122
 2309PEP     CB88672  22.132  21.403  21.377 -0.0356  0.1405  0.1576
 2309PEP     CB88673  22.502  21.635  21.559 -0.1610  0.0749 -0.1789
 2309PEP     CB88674  22.499  22.098  21.583 -0.0921 -0.0948 -0.5534
 2309PEP     CB88675  22.309  22.324  21.190  0.3181  0.1585  0.0251
 2309PEP     CB88676  21.944  22.338  21.035 -0.3479 -0.1450  0.0122
 2309PEP     CB88677  21.750  22.662  20.731 -0.1099  0.0719 -0.0647
 2309PEP     CB88678  21.553  22.988  20.918  0.3966  0.0078 -0.1997
 2309PEP     CB88679  21.405  23.374  21.015 -0.4324 -0.4153 -0.3763
 2309PEP     CB88680  21.435  23.800  20.876 -0.6041 -0.0399  0.1834
 2310PEP     CB88681   0.861  11.907  13.480 -0.1174 -0.1454  0.2568
 2310PEP     CB88682   0.788  11.660  13.138 -0.2134  0.0898  0.2100
 2310PEP     CB88683   0.460  11.372  13.040  0.0983 -0.1795  0.1734
 2310PEP     CB88684   0.370  11.007  13.129 -0.2944 -0.0191  0.2892
 2310PEP     CB88685   0.324  10.532  13.250 -0.0750 -0.0881  0.0130
 2310PEP     CB88686   0.144  10.380  13.572 -0.1022  0.1427 -0.2732
 2310PEP     CB88687  -0.069  10.489  13.864 -0.2803  0.1181  0.0578
 2310PEP     CB88688  -0.102  10.266  14.318 -0.0105  0.0533 -0.2252
 2310PEP     CB88689   0.011   9.859  14.514  0.4128  0.1609  0.2520
 2310PEP     CB88690   0.079   9.528  14.300  0.2992 -0.0296 -0.1346
 2310PEP     CB88691  -0.066   9.401  13.887  0.1836  0.1723  0.1570
 2310PEP     CB88692  -0.372   9.634  13.597  0.3787 -0.0747 -0.2524
 2310PEP     CB88693  -0.403  10.080  13.439  0.2634 -0.1737 -0.0422
 2310PEP     CB88694  -0.369  10.503  13.468 -0.1858 -0.1767 -0.1480
 2310PEP     CB88695  -0.095  10.887  13.536 -0.0796  0.2949 -0.2266
 2310PEP     CB88696   0.044  11.197  13.774 -0.0051 -0.0905  0.1196
 2310PEP     CB88697  -0.140  11.629  13.659 -0.0120  0.1020 -0.2990
 2310PEP     CB88698  -0.600  11.649  13.541  0.0426 -0.1709  0.0839
 2310PEP     CB88699  -0.925  11.373  13.650 -0.4184 -0.0808  0.0327
 2310PEP     CB88700  -1.166  10.997  13.534 -0.1628 -0.1848 -0.0417
 2310PEP     CB88701  -1.319  10.636  13.225  0.2439 -0.0831 -0.1659
 2310PEP     CB88702  -1.351  10.674  12.823  0.0717  0.0806  0.0179
 2310PEP     CB88703  -1.245  11.164  12.750  0.0983 -0.0843 -0.1744
 2310PEP     CB88704  -0.966  11.322  13.103  0.1664 -0.0026 -0.5829
 2310PEP     CB88705  -0.594  11.181  13.283 -0.0107 -0.2531 -0.3513
 2310PEP     CB88706  -0.229  11.015  13.153 -0.0541  0.1461  0.1117
 2310PEP     CB88707  -0.040  10.730  12.881 -0.0392 -0.2645 -0.2155
 2310PEP     CB88708   0.118  10.322  12.764 -0.1195 -0.2541 -0.1242
 2310PEP     CB88709   0.268   9.919  12.608  0.1012 -0.1766  0.0227
 2310PEP     CB88710   0.316   9.607  12.307  0.2013  0.0291  0.0630
 2310PEP     CB88711   0.441   9.295  11.909 -0.0994  0.1136 -0.0331
 2310PEP     CB88712   0.452   9.062  11.525 -0.1966  0.3777 -0.1823
 2310PEP     CB88713   0.202   8.906  11.228 -0.1151  0.3770 -0.4631
 2310PEP     CB88714  -0.057   9.035  10.906 -0.2410  0.3225  0.4649
 2310PEP     CB88715  -0.355   8.792  10.737  0.2776  0.0317 -0.1048
 2310PEP     CB88716  -0.276   8.475  10.455  0.1456 -0.1624  0.1135
 2310PEP     CB88717  -0.312   7.978  10.347  0.2118 -0.1238  0.1968
 2310PEP     CB88718  -0.223   7.587  10.078 -0.2735 -0.1148 -0.4049
 2310PEP     CB88719  -0.016   7.374   9.859 -0.0532 -0.0697  0.0176
 2310PEP     CB88720   0.422   7.206   9.669  0.1622  0.1604  0.0228
 2311PEP     CB88721  20.914   0.662   0.198 -0.1951 -0.3576  0.1624
 2311PEP     CB88722  21.225   0.338   0.332  0.1166  0.1695  0.0121
 2311PEP     CB88723  21.570   0.176   0.507  0.2046 -0.5310  0.0910
 2311PEP     CB88724  21.922   0.307   0.568  0.0919  0.2625  0.1157
 2311PEP     CB88725  22.008   0.699   0.536 -0.3395 -0.1604 -0.3354
 2311PEP     CB88726  21.821   1.085   0.588  0.5888  0.4433  0.0739
 2311PEP     CB88727  21.791   1.425   0.728  0.1357 -0.2464 -0.1286
 2311PEP     CB88728  21.814   1.886   0.710 -0.2065 -0.0005 -0.1753
 2311PEP     CB88729  21.669   2.354   0.682  0.1873 -0.1259  0.0491
 2311PEP     CB88730  21.544   2.677   0.957  0.2609  0.1065  0.0030
 2311PEP     CB88731  21.353   2.991   1.156  0.1459 -0.0082 -0.2754
 2311PEP     CB88732  20.960   3.090   1.390 -0.0302 -0.0515  0.1117
 2311PEP     CB88733  20.570   3.086   1.367  0.5904  0.0031  0.2301
 2311PEP     CB88734  20.147   3.043   1.561 -0.1388  0.0738 -0.1372
 2311PEP     CB88735  19.962   2.703   1.849  0.0044  0.0562 -0.1414
 2311PEP     CB88736  20.052   2.263   1.706 -0.2827 -0.0603  0.1140
 2311PEP     CB88737  20.246   2.125   1.256  0.1317 -0.0710 -0.0258
 2311PEP     CB88738  20.631   1.949   1.238 -0.3169 -0.2548 -0.4056
 2311PEP     CB88739  20.999   2.215   1.283 -0.6663  0.3006  0.0973
 2311PEP     CB88740  20.926   2.557   1.409  0.3487 -0.2448 -0.4241
 2311PEP     CB88741  20.763   2.831   1.769 -0.1395  0.0026 -0.3387
 2311PEP     CB88742  21.000   2.849   2.114 -0.3498  0.0678  0.0035
 2311PEP     CB88743  21.409   2.758   2.019 -0.2994 -0.0356 -0.1924
 2311PEP     CB88744  21.539   2.631   1.572  0.0663  0.2120  0.2147
 2311PEP     CB88745  21.486   2.260   1.347  0.1776  0.2621 -0.0016
 2311PEP     CB88746  21.369   2.026   1.007  0.0400 -0.2058 -0.3052
 2311PEP     CB88747  21.251   1.783   0.779 -0.1109  0.1787  0.1774
 2311PEP     CB88748  21.229   1.445   0.556  0.0702  0.0552 -0.1676
 2311PEP     CB88749  20.903   1.160   0.305 -0.1035 -0.1237 -0.3106
 2311PEP     CB88750  20.455   0.956   0.426 -0.1700  0.0006 -0.2191
 2311PEP     CB88751  20.028   0.880   0.419 -0.0421 -0.1659  0.5987
 2311PEP     CB88752  19.657   0.626   0.186  0.1870  0.0954  0.2003
 2311PEP     CB88753  19.185   0.511   0.015 -0.3174  0.7026 -0.1239
 2311PEP     CB88754  18.743   0.338   0.031  0.1693  0.1901 -0.0759
 2311PEP     CB88755  18.415   0.200   0.120  0.2001  0.3130  0.4428
 2311PEP     CB88756  18.034   0.194   0.290  0.3379 -0.2333 -0.0831
 2311PEP     CB88757  17.882   0.197   0.702  0.2849 -0.4129 -0.0791
 2311PEP     CB88758  17.601   0.154   1.010 -0.0807  0.1208 -0.0874
 2311PEP     CB88759  17.441  -0.058   1.446  0.1913 -0.1360  0.0408
 2311PEP     CB88760  17.472  -0.152   1.852  0.1573  0.1035  0.3016
 2312PEP     CB88761  13.677  14.637   3.949  0.3995  0.1382  0.0431
 2312PEP     CB88762  13.278  14.556   4.145 -0.5329  0.0498  0.0760
 2312PEP     CB88763  12.814  14.723   4.173 -0.0765 -0.1144  0.0998
 2312PEP     CB88764  12.412  14.732   4.326  0.2392 -0.2934  0.0106
 2312PEP     CB88765  12.042  14.776   4.102 -0.2150 -0.2614  0.0662
 2312PEP     CB88766  11.925  14.864   3.597  0.1367  0.4919  0.2009
 2312PEP     CB88767  11.988  15.127   3.320 -0.2519 -0.2045 -0.0060
 2312PEP     CB88768  12.151  15.262   2.938 -0.1295 -0.1996  0.1642
 2312PEP     CB88769  12.397  15.187   2.651  0.1735  0.3155  0.1179
 2312PEP     CB88770  12.369  14.869   2.327 -0.2330 -0.0023  0.0137
 2312PEP     CB88771  12.143  14.491   2.320 -0.1589 -0.1798 -0.1125
 2312PEP     CB88772  11.906  14.302   2.635 -0.2183  0.2563 -0.0479
 2312PEP     CB88773  11.715  14.417   3.006  0.2700  0.0489  0.0006
 2312PEP     CB88774  11.485  14.758   3.267 -0.3869 -0.2648  0.2658
 2312PEP     CB88775  11.531  15.149   3.211  0.0611  0.0135 -0.1221
 2312PEP     CB88776  11.652  15.566   3.528 -0.1044  0.0047 -0.3751
 2312PEP     CB88777  11.817  15.891   3.681  0.2564 -0.0710 -0.1748
 2312PEP     CB88778  12.062  16.145   3.910  0.0507  0.4811  0.0199
 2312PEP     CB88779  12.381  16.166   4.210  0.1474  0.1907 -0.1537
 2312PEP     CB88780  12.472  16.087   4.519  0.0039 -0.3582 -0.3587
 2312PEP     CB88781  12.577  16.050   4.878 -0.0989  0.3356 -0.1039
 2312PEP     CB88782  12.638  16.267   5.305 -0.0271  0.1719 -0.4524
 2312PEP     CB88783  12.609  16.516   5.701 -0.0230 -0.1211  0.3458
 2312PEP     CB88784  12.332  16.801   5.905 -0.1141  0.0450 -0.0178
 2312PEP     CB88785  11.988  17.113   5.913 -0.0150 -0.3059 -0.1363
 2312PEP     CB88786  11.858  17.611   5.838  0.0196 -0.3393  0.4079
 2312PEP     CB88787  11.716  17.985   5.582  0.2187 -0.3028 -0.1702
 2312PEP     CB88788  11.808  18.178   5.252  0.0581 -0.0337  0.2022
 2312PEP     CB88789  11.553  18.347   4.902 -0.3483  0.0811  0.2329
 2312PEP     CB88790  11.220  18.598   4.705  0.1193  0.1833  0.2940
 2312PEP     CB88791  11.006  19.043   4.768  0.4537  0.4276  0.0148
 2312PEP     CB88792  11.205  19.447   4.693  0.1251 -0.0133 -0.0720
 2312PEP     CB88793  11.571  19.483   4.352  0.1969  0.4431 -0.2634
 2312PEP     CB88794  11.957  19.310   4.352 -0.1334 -0.0043  0.0689
 2312PEP     CB88795  12.097  18.870   4.369  0.0920 -0.0861  0.1601
 2312PEP     CB88796  11.872  18.620   4.672  0.2220  0.2364 -0.0984
 2312PEP     CB88797  11.849  18.721   5.070  0.2318 -0.0298 -0.1470
 2312PEP     CB88798  11.767  19.169   5.299 -0.1510 -0.1804 -0.2158
 2312PEP     CB88799  11.434  19.570   5.262  0.1614  0.2089 -0.1147
 2312PEP     CB88800  11.047  19.715   5.350  0.0951 -0.1161 -0.0022
 2313PEP     CB88801  13.254   8.626   5.070  0.2409  0.0578  0.0776
 2313PEP     CB88802  13.392   8.997   5.429 -0.3997  0.0182  0.1203
 2313PEP     CB88803  13.545   9.425   5.631  0.2003  0.1294 -0.2386
 2313PEP     CB88804  13.557   9.885   5.560  0.2898  0.0667  0.0379
 2313PEP     CB88805  13.722  10.221   5.306 -0.2862 -0.4751 -0.3957
 2313PEP     CB88806  14.061  10.336   5.037  0.1890  0.1420  0.3782
 2313PEP     CB88807  14.291  10.132   4.822  0.1472 -0.2565 -0.0185
 2313PEP     CB88808  14.467   9.668   4.981 -0.0386 -0.1601 -0.0473
 2313PEP     CB88809  14.610   9.563   5.427  0.0427  0.4840 -0.1306
 2313PEP     CB88810  14.920   9.181   5.589 -0.4072  0.1918 -0.1184
 2313PEP     CB88811  15.306   9.170   5.797 -0.2211  0.2682 -0.1349
 2313PEP     CB88812  15.493   9.507   5.895  0.1454  0.0550 -0.1534
 2313PEP     CB88813  15.517   9.923   5.641 -0.0503 -0.0488  0.1019
 2313PEP     CB88814  15.558  10.193   5.285 -0.1742 -0.3230 -0.0916
 2313PEP     CB88815  15.576  10.592   5.080 -0.4093 -0.3165  0.1195
 2313PEP     CB88816  15.387  10.871   4.847  0.4588  0.4798 -0.3285
 2313PEP     CB88817  15.158  10.746   4.570 -0.2735  0.2008  0.0972
 2313PEP     CB88818  14.864  10.491   4.594  0.0083  0.0104 -0.2301
 2313PEP     CB88819  14.793  10.160   4.903 -0.0521 -0.0156  0.0548
 2313PEP     CB88820  14.884   9.852   5.140  0.5232  0.3887  0.2823
 2313PEP     CB88821  14.869   9.348   5.120 -0.0704  0.1188  0.2383
 2313PEP     CB88822  14.752   8.950   5.094 -0.3236  0.2091  0.0838
 2313PEP     CB88823  14.948   8.568   4.941  0.1491 -0.1330 -0.2652
 2313PEP     CB88824  14.851   8.240   4.572 -0.1293  0.3800  0.0441
 2313PEP     CB88825  14.434   8.159   4.453  0.1572  0.3002 -0.0103
 2313PEP     CB88826  14.028   8.438   4.505  0.2532 -0.3804 -0.1205
 2313PEP     CB88827  13.925   8.688   4.906 -0.1989 -0.1308 -0.0679
 2313PEP     CB88828  14.132   8.695   5.406 -0.1469 -0.1226  0.0159
 2313PEP     CB88829  14.452   8.536   5.738 -0.0993  0.1016  0.1951
 2313PEP     CB88830  14.759   8.600   6.033  0.2512 -0.2832  0.1267
 2313PEP     CB88831  15.043   8.910   6.162 -0.0405  0.0560 -0.1117
 2313PEP     CB88832  15.550   9.037   6.202 -0.0090  0.1080  0.3178
 2313PEP     CB88833  15.872   9.130   6.244 -0.1410 -0.1328  0.1553
 2313PEP     CB88834  16.321   9.241   6.179  0.1123  0.0222  0.3937
 2313PEP     CB88835  16.799   9.362   6.283  0.4145 -0.3470 -0.1732
 2313PEP     CB88836  17.092   9.681   6.591  0.4135 -0.0250 -0.1666
 2313PEP     CB88837  17.025  10.015   6.883  0.2328 -0.2504  0.0655
 2313PEP     CB88838  16.894  10.383   6.961  0.2036 -0.4094 -0.0902
 2313PEP     CB88839  16.886  10.789   6.925 -0.0960  0.0695  0.3979
 2313PEP     CB88840  16.825  11.206   6.989  0.0620 -0.0779 -0.3123
 2314PEP     CB88841  10.111   4.179  16.992 -0.0100 -0.3982 -0.4644
 2314PEP     CB88842   9.940   4.657  16.973  0.0699  0.2657  0.5468
 2314PEP     CB88843   9.649   4.904  16.924  0.2769  0.4515  0.5183
 2314PEP     CB88844   9.268   5.143  16.845  0.0020 -0.0982 -0.0410
 2314PEP     CB88845   8.916   5.215  17.155 -0.0900  0.3092 -0.0720
 2314PEP     CB88846   8.764   4.982  17.476  0.0739  0.3388 -0.2301
 2314PEP     CB88847   8.567   4.590  17.523 -0.0153  0.0622  0.0773
 2314PEP     CB88848   8.313   4.451  17.883  0.1362  0.0414  0.1762
 2314PEP     CB88849   8.267   4.635  18.295 -0.3680  0.3768 -0.2085
 2314PEP     CB88850   8.344   4.586  18.786  0.1961  0.1845 -0.0018
 2314PEP     CB88851   8.562   4.767  19.174 -0.1979  0.1513  0.0339
 2314PEP     CB88852   8.871   4.919  19.585 -0.0499 -0.2701 -0.1908
 2314PEP     CB88853   9.047   5.167  19.930  0.1343  0.3976  0.0786
 2314PEP     CB88854   9.180   5.473  20.229 -0.3781  0.0126  0.2288
 2314PEP     CB88855   9.263   5.814  20.547 -0.1813 -0.1207 -0.1487
 2314PEP     CB88856   9.477   5.779  20.894  0.0384  0.1591  0.1900
 2314PEP     CB88857   9.512   5.707  21.282 -0.3229  0.2210 -0.0110
 2314PEP     CB88858   9.517   5.884  21.657  0.0358 -0.0335 -0.1522
 2314PEP     CB88859   9.677   5.865  22.097  0.0215 -0.3325 -0.2931
 2314PEP     CB88860   9.776   5.678  22.432 -0.0493 -0.0040  0.0257
 2314PEP     CB88861  10.011   5.670  22.709 -0.0200 -0.0042 -0.0191
 2314PEP     CB88862  10.284   6.009  22.885  0.0703  0.2174 -0.2637
 2314PEP     CB88863  10.207   6.444  22.817 -0.1001  0.0177 -0.1604
 2314PEP     CB88864  10.220   6.692  22.430  0.5850 -0.3686 -0.3247
 2314PEP     CB88865   9.958   6.574  22.032  0.0136  0.0196 -0.0780
 2314PEP     CB88866   9.582   6.330  21.950  0.2400  0.0274  0.1602
 2314PEP     CB88867   9.355   6.138  22.275  0.3761  0.2446  0.1066
 2314PEP     CB88868   8.948   6.122  22.389  0.4845  0.1086 -0.1376
 2314PEP     CB88869   8.583   6.103  22.706  0.4709 -0.0150  0.0852
 2314PEP     CB88870   8.140   6.170  22.963  0.2214 -0.0929  0.2704
 2314PEP     CB88871   7.675   6.041  23.167  0.0494  0.2853 -0.3564
 2314PEP     CB88872   7.472   5.887  23.632 -0.1151  0.0848  0.4716
 2314PEP     CB88873   7.501   5.717  24.029  0.4552 -0.4312  0.1206
 2314PEP     CB88874   7.495   5.238  24.217 -0.0761 -0.2025  0.0185
 2314PEP     CB88875   7.410   4.845  24.303  0.0064  0.0687 -0.1862
 2314PEP     CB88876   7.049   4.648  24.337  0.0129 -0.0980  0.1428
 2314PEP     CB88877   6.618   4.688  24.132 -0.0288  0.0660  0.2676
 2314PEP     CB88878   6.572   5.016  23.884  0.1106  0.3224  0.5199
 2314PEP     CB88879   6.843   5.163  23.551  0.1757 -0.0092 -0.3585
 2314PEP     CB88880   7.158   4.935  23.378 -0.1384 -0.1102  0.3790
 2315PEP     CB88881  18.373   0.480   6.242 -0.1818 -0.2095  0.0818
 2315PEP     CB88882  18.592   0.201   5.872 -0.3718 -0.0496 -0.1903
 2315PEP     CB88883  18.731   0.128   5.474  0.3467  0.3363  0.1862
 2315PEP     CB88884  18.951  -0.001   5.083 -0.0536 -0.0799 -0.1751
 2315PEP     CB88885  19.261  -0.107   4.819  0.3782 -0.2602  0.1532
 2315PEP     CB88886  19.451  -0.399   4.513  0.1787 -0.0173  0.0101
 2315PEP     CB88887  19.767  -0.564   4.297  0.0912  0.0984 -0.1307
 2315PEP     CB88888  19.770  -0.995   4.142 -0.2922  0.0806  0.6366
 2315PEP     CB88889  19.486  -1.200   4.222 -0.0440  0.0313 -0.2194
 2315PEP     CB88890  19.220  -1.493   4.563 -0.1636 -0.0239 -0.0998
 2315PEP     CB88891  19.001  -1.772   4.840 -0.5432  0.1895  0.1311
 2315PEP     CB88892  18.836  -1.570   5.244  0.4844 -0.1383 -0.4708
 2315PEP     CB88893  18.574  -1.665   5.543  0.0648  0.3380  0.3298
 2315PEP     CB88894  18.451  -1.800   5.982  0.0121 -0.2136 -0.0843
 2315PEP     CB88895  18.557  -2.241   6.138  0.0451 -0.1736 -0.0815
 2315PEP     CB88896  18.793  -2.532   5.783 -0.0109 -0.3853 -0.0172
 2315PEP     CB88897  19.023  -2.830   5.627 -0.0526 -0.0306  0.0067
 2315PEP     CB88898  19.152  -3.326   5.578  0.3824 -0.0956  0.0483
 2315PEP     CB88899  19.148  -3.635   5.352 -0.3523  0.1316  0.3561
 2315PEP     CB88900  19.257  -4.113   5.371 -0.0505 -0.3511  0.3539
 2315PEP     CB88901  19.522  -4.494   5.222 -0.0030  0.1763 -0.0006
 2315PEP     CB88902  19.812  -4.770   5.224 -0.2820 -0.0433 -0.1455
 2315PEP     CB88903  20.282  -4.974   5.208  0.1016 -0.0883  0.1947
 2315PEP     CB88904  20.710  -5.088   4.899 -0.0948  0.8214  0.1849
 2315PEP     CB88905  20.962  -5.064   4.519  0.0745 -0.1957 -0.2638
 2315PEP     CB88906  20.931  -5.117   3.980  0.2587  0.3186  0.1955
 2315PEP     CB88907  20.750  -5.248   3.606 -0.1017 -0.4705 -0.1286
 2315PEP     CB88908  20.474  -5.073   3.363 -0.0341 -0.2306  0.0188
 2315PEP     CB88909  20.139  -5.219   3.123 -0.3281 -0.2843 -0.0129
 2315PEP     CB88910  19.730  -5.348   2.988 -0.1539 -0.0490 -0.0267
 2315PEP     CB88911  19.411  -5.123   2.786 -0.0561  0.1429 -0.1396
 2315PEP     CB88912  18.980  -4.942   2.745 -0.1232 -0.3337 -0.1181
 2315PEP     CB88913  18.597  -4.984   2.478  0.3533 -0.0852 -0.1626
 2315PEP     CB88914  18.280  -5.303   2.496 -0.4927  0.2517 -0.0787
 2315PEP     CB88915  18.178  -5.757   2.617 -0.2030 -0.3112  0.0444
 2315PEP     CB88916  17.808  -6.117   2.610  0.2764  0.0855  0.4508
 2315PEP     CB88917  17.312  -6.289   2.619  0.5236 -0.0619  0.4460
 2315PEP     CB88918  16.924  -6.189   2.542  0.3839 -0.2003  0.2458
 2315PEP     CB88919  16.521  -5.966   2.373  0.2338 -0.0214 -0.0785
 2315PEP     CB88920  16.379  -5.758   2.029 -0.2963 -0.1291 -0.0381
 2316PEP     CB88921   6.328   5.647   0.204 -0.0982  0.3213  0.0609
 2316PEP     CB88922   6.103   5.583  -0.230  0.0158 -0.0812  0.2375
 2316PEP     CB88923   5.754   5.795  -0.500  0.2829  0.3545 -0.3056
 2316PEP     CB88924   5.610   6.067  -0.696 -0.0371 -0.0399 -0.0874
 2316PEP     CB88925   5.559   6.440  -0.738  0.2686 -0.0880  0.0410
 2316PEP     CB88926   5.766   6.752  -0.838  0.1316  0.5000 -0.4076
 2316PEP     CB88927   6.203   6.721  -1.062 -0.2025 -0.1046  0.0250
 2316PEP     CB88928   6.399   6.327  -1.259 -0.0141 -0.2585  0.2240
 2316PEP     CB88929   6.063   6.025  -1.192 -0.0009  0.0707 -0.1048
 2316PEP     CB88930   5.612   6.063  -1.189 -0.4263  0.2277  0.1287
 2316PEP     CB88931   5.285   6.267  -1.212  0.1580  0.1270 -0.1390
 2316PEP     CB88932   4.966   6.590  -1.151  0.1575 -0.0330  0.5625
 2316PEP     CB88933   4.886   7.005  -0.953  0.0208 -0.1709 -0.0484
 2316PEP     CB88934   5.040   7.373  -0.783  0.1702  0.0148 -0.1596
 2316PEP     CB88935   5.281   7.610  -0.444 -0.3114 -0.1868  0.0970
 2316PEP     CB88936   5.555   7.486  -0.064 -0.3106 -0.3737 -0.2788
 2316PEP     CB88937   5.664   7.258   0.335 -0.2404  0.2191 -0.0931
 2316PEP     CB88938   5.891   6.876   0.509 -0.0979  0.3982 -0.0245
 2316PEP     CB88939   6.161   6.516   0.366  0.0349 -0.1320 -0.0878
 2316PEP     CB88940   6.583   6.551   0.185  0.0362 -0.0534 -0.0533
 2316PEP     CB88941   6.828   6.794   0.017 -0.1031  0.2757 -0.1156
 2316PEP     CB88942   6.852   7.208  -0.054  0.2172 -0.4483  0.2038
 2316PEP     CB88943   6.765   7.608   0.205 -0.1176  0.1419 -0.0149
 2316PEP     CB88944   6.716   8.037   0.203  0.2464 -0.2886  0.1186
 2316PEP     CB88945   6.411   8.193   0.379  0.2738  0.1214 -0.2789
 2316PEP     CB88946   6.024   8.089   0.472  0.1319  0.1515 -0.0807
 2316PEP     CB88947   5.664   8.228   0.283 -0.2327  0.3586 -0.0949
 2316PEP     CB88948   5.496   8.413  -0.063 -0.0660  0.3019 -0.1418
 2316PEP     CB88949   5.029   8.618  -0.121 -0.1763 -0.3037  0.2182
 2316PEP     CB88950   4.612   8.471  -0.310 -0.1399  0.2232  0.0066
 2316PEP     CB88951   4.182   8.359  -0.435  0.1219 -0.0279 -0.1027
 2316PEP     CB88952   3.807   8.319  -0.628 -0.0289 -0.1671 -0.0975
 2316PEP     CB88953   3.345   8.308  -0.787 -0.2027  0.0870  0.3810
 2316PEP     CB88954   3.103   8.020  -0.964 -0.1538  0.1536  0.0232
 2316PEP     CB88955   2.668   7.806  -1.082  0.1491  0.1719 -0.1269
 2316PEP     CB88956   2.254   7.791  -1.020  0.7455 -0.2098 -0.0395
 2316PEP     CB88957   1.857   7.816  -0.849  0.1177  0.1604  0.3654
 2316PEP     CB88958   1.499   7.820  -0.927 -0.2977 -0.2536 -0.2436
 2316PEP     CB88959   1.103   7.655  -0.710 -0.2525 -0.0927 -0.3800
 2316PEP     CB88960   0.803   7.581  -0.393  0.2463 -0.1065 -0.1617
 2317PEP     CB88961   3.643  10.751  10.830 -0.0537 -0.1369  0.0234
 2317PEP     CB88962   3.875  10.655  10.420  0.0974 -0.0094 -0.2016
 2317PEP     CB88963   4.063  10.979  10.164 -0.0973  0.5040  0.3235
 2317PEP     CB88964   3.849  11.273   9.921  0.3420 -0.0208 -0.2952
 2317PEP     CB88965   3.457  11.247   9.614  0.2008  0.1232  0.3561
 2317PEP     CB88966   3.164  11.373   9.334  0.0101  0.0870  0.0119
 2317PEP     CB88967   2.733  11.319   9.305  0.3448 -0.2177  0.1934
 2317PEP     CB88968   2.344  11.063   9.384 -0.0108 -0.0747  0.2166
 2317PEP     CB88969   2.021  10.937   9.535 -0.2689  0.5164  0.0946
 2317PEP     CB88970   1.578  10.985   9.586  0.0695  0.3026 -0.2833
 2317PEP     CB88971   1.473  11.224   9.891  0.0002  0.1536 -0.0042
 2317PEP     CB88972   1.789  11.479  10.098 -0.2050 -0.2987  0.1723
 2317PEP     CB88973   2.077  11.602  10.397  0.0606 -0.1219 -0.1393
 2317PEP     CB88974   2.300  12.003  10.607  0.1655  0.1173 -0.1555
 2317PEP     CB88975   2.354  12.229  10.986 -0.2146  0.1628 -0.1361
 2317PEP     CB88976   2.596  12.405  11.316 -0.0592 -0.1624  0.4783
 2317PEP     CB88977   2.663  12.816  11.637  0.1358 -0.2862  0.2962
 2317PEP     CB88978   2.380  13.161  11.696 -0.4519 -0.1367  0.0694
 2317PEP     CB88979   2.141  13.142  12.050 -0.1681 -0.1103  0.1425
 2317PEP     CB88980   1.980  12.898  12.409  0.2301 -0.4751 -0.2628
 2317PEP     CB88981   1.874  12.586  12.501 -0.1123 -0.0846 -0.0128
 2317PEP     CB88982   2.140  12.143  12.453  0.1299  0.2220  0.4739
 2317PEP     CB88983   2.380  12.071  12.059  0.0802  0.0427  0.0005
 2317PEP     CB88984   2.315  12.394  11.809  0.1567  0.1699 -0.0518
 2317PEP     CB88985   1.947  12.668  11.805 -0.0619  0.1528  0.0182
 2317PEP     CB88986   1.556  12.967  11.626  0.0802 -0.0071 -0.0404
 2317PEP     CB88987   1.258  13.116  11.337 -0.1495 -0.0463  0.0396
 2317PEP     CB88988   0.793  13.192  11.307  0.0097  0.2947 -0.0662
 2317PEP     CB88989   0.326  13.154  11.362 -0.0998  0.0752 -0.0482
 2317PEP     CB88990   0.134  13.263  11.790  0.1863 -0.0383 -0.2244
 2317PEP     CB88991   0.281  13.651  12.066 -0.0231  0.2992 -0.2768
 2317PEP     CB88992   0.333  14.062  12.069 -0.4355  0.3939 -0.2086
 2317PEP     CB88993   0.037  14.276  11.853  0.0126 -0.1721 -0.0402
 2317PEP     CB88994  -0.169  14.226  11.475  0.2590  0.3770  0.1500
 2317PEP     CB88995   0.112  14.189  11.071  0.4511  0.2106  0.0176
 2317PEP     CB88996   0.514  14.326  10.889  0.2690 -0.0859  0.0293
 2317PEP     CB88997   0.898  14.563  11.086 -0.3013 -0.1325 -0.0067
 2317PEP     CB88998   1.178  15.023  11.062  0.4141 -0.1953  0.2097
 2317PEP     CB88999   0.969  15.425  11.144 -0.2123 -0.3658  0.2441
 2317PEP     CB89000   0.743  15.593  11.492  0.2164  0.0957 -0.3129
 2318PEP     CB89001   8.051  18.915   1.250  0.1732 -0.1772  0.1308
 2318PEP     CB89002   8.234  18.547   1.394 -0.0653 -0.0326  0.5962
 2318PEP     CB89003   8.659  18.356   1.532 -0.3219  0.1332 -0.0329
 2318PEP     CB89004   9.109  18.392   1.693 -0.2596  0.1986 -0.0516
 2318PEP     CB89005   9.458  18.192   1.857  0.0155  0.2382 -0.1554
 2318PEP     CB89006   9.811  17.942   1.828  0.1401  0.2178 -0.2389
 2318PEP     CB89007  10.101  17.829   1.434 -0.1066 -0.3165  0.2013
 2318PEP     CB89008  10.389  17.500   1.271  0.1268 -0.3470 -0.1424
 2318PEP     CB89009  10.475  17.176   0.924  0.1614 -0.0509 -0.3774
 2318PEP     CB89010  10.438  16.784   1.079  0.1337  0.1557 -0.0444
 2318PEP     CB89011  10.096  16.427   1.205 -0.0034  0.2402 -0.1182
 2318PEP     CB89012  10.007  16.182   1.507  0.0161  0.3778 -0.0160
 2318PEP     CB89013   9.928  15.880   1.945  0.0240 -0.3559  0.1690
 2318PEP     CB89014  10.212  15.815   2.315  0.1127  0.0760  0.0934
 2318PEP     CB89015  10.469  15.580   2.597 -0.1344 -0.0652 -0.0690
 2318PEP     CB89016  10.637  15.623   3.050 -0.0083  0.0571  0.1397
 2318PEP     CB89017  10.579  15.380   3.453 -0.1365  0.0315 -0.1139
 2318PEP     CB89018  10.475  15.438   3.916 -0.2763 -0.1384 -0.1482
 2318PEP     CB89019  10.579  15.447   4.467  0.5140  0.3966 -0.2880
 2318PEP     CB89020  10.805  15.582   4.849  0.1853  0.0771 -0.0810
 2318PEP     CB89021  10.937  15.983   5.086  0.0469 -0.1795 -0.2179
 2318PEP     CB89022  11.077  16.345   5.291  0.0590  0.1174 -0.2847
 2318PEP     CB89023  11.300  16.696   5.275 -0.3748 -0.2778  0.2761
 2318PEP     CB89024  11.161  17.089   5.110  0.1432  0.1580  0.5711
 2318PEP     CB89025  10.697  17.131   4.978  0.0436  0.0879 -0.3424
 2318PEP     CB89026  10.509  16.743   4.823 -0.0284  0.0703  0.5192
 2318PEP     CB89027  10.833  16.374   4.722  0.3986 -0.0647 -0.0785
 2318PEP     CB89028  11.021  16.361   4.343 -0.1679  0.0019  0.1485
 2318PEP     CB89029  10.814  16.594   3.924 -0.0572 -0.0659  0.3261
 2318PEP     CB89030  10.760  16.683   3.466 -0.0490 -0.3934 -0.3286
 2318PEP     CB89031  10.416  16.795   3.279  0.0643  0.3034  0.2752
 2318PEP     CB89032  10.041  17.096   3.197  0.3464 -0.1050  0.1402
 2318PEP     CB89033   9.917  17.251   3.595  0.2799  0.2213  0.1348
 2318PEP     CB89034  10.198  17.326   3.930 -0.3351 -0.0272 -0.0650
 2318PEP     CB89035  10.276  17.141   4.457 -0.2516  0.0326  0.3625
 2318PEP     CB89036  10.192  17.147   4.888  0.0259  0.0371 -0.2892
 2318PEP     CB89037   9.920  17.150   5.268 -0.0737  0.1559 -0.3580
 2318PEP     CB89038   9.499  17.185   5.272  0.0124  0.1144 -0.1559
 2318PEP     CB89039   9.144  17.217   5.252  0.2605  0.3338  0.1333
 2318PEP     CB89040   8.683  17.168   5.402  0.3055 -0.1580  0.2443
 2319PEP     CB89041  21.830   0.103   4.529  0.1025  0.0750  0.0725
 2319PEP     CB89042  21.962   0.441   4.165 -0.0500 -0.1370 -0.5026
 2319PEP     CB89043  21.955   0.298   3.686 -0.0608  0.1540 -0.2127
 2319PEP     CB89044  21.650   0.048   3.471 -0.2056  0.0392  0.1100
 2319PEP     CB89045  21.311  -0.123   3.688  0.0943 -0.1400  0.4384
 2319PEP     CB89046  21.131  -0.070   4.094  0.2019  0.0541  0.1888
 2319PEP     CB89047  20.898  -0.162   4.572 -0.1572 -0.1850 -0.2271
 2319PEP     CB89048  20.511  -0.108   4.722  0.3956 -0.3848  0.1206
 2319PEP     CB89049  20.108  -0.237   4.553 -0.3870  0.1877 -0.1081
 2319PEP     CB89050  19.859  -0.117   4.163  0.0294 -0.0245  0.0782
 2319PEP     CB89051  19.834  -0.313   3.769 -0.0956  0.1015  0.1110
 2319PEP     CB89052  19.705  -0.588   3.506 -0.0799  0.0974 -0.1548
 2319PEP     CB89053  19.701  -0.824   3.152 -0.3984 -0.0281  0.4839
 2319PEP     CB89054  19.996  -1.164   2.982  0.0991 -0.0267  0.1137
 2319PEP     CB89055  20.093  -1.585   2.823 -0.2566  0.1424 -0.1162
 2319PEP     CB89056  20.145  -1.978   2.659 -0.2065  0.2745 -0.3507
 2319PEP     CB89057  20.225  -2.383   2.490  0.2688 -0.3042  0.1534
 2319PEP     CB89058  20.117  -2.773   2.356  0.3959 -0.1036 -0.0142
 2319PEP     CB89059  20.030  -3.097   2.018  0.3326 -0.3775  0.0180
 2319PEP     CB89060  19.765  -3.146   1.682  0.0295  0.4800  0.1196
 2319PEP     CB89061  19.545  -3.520   1.478  0.5597  0.2459 -0.1594
 2319PEP     CB89062  19.214  -3.737   1.405  0.0561  0.0704 -0.2056
 2319PEP     CB89063  18.853  -3.511   1.305 -0.0919  0.0588  0.0137
 2319PEP     CB89064  18.724  -3.115   1.129 -0.2096  0.1715 -0.0719
 2319PEP     CB89065  18.709  -2.649   0.984 -0.2653 -0.1144 -0.1505
 2319PEP     CB89066  18.619  -2.308   0.799 -0.2039 -0.1891  0.4064
 2319PEP     CB89067  18.751  -1.881   0.843  0.1126 -0.0231  0.0588
 2319PEP     CB89068  18.667  -1.519   0.682 -0.1040 -0.1104  0.1395
 2319PEP     CB89069  18.363  -1.233   0.393 -0.0532  0.1329  0.3927
 2319PEP     CB89070  18.334  -1.226   0.031  0.0241  0.0170 -0.3166
 2319PEP     CB89071  18.698  -1.225  -0.249  0.5415  0.1512 -0.1735
 2319PEP     CB89072  19.034  -1.453  -0.201 -0.2049 -0.0042 -0.0950
 2319PEP     CB89073  19.288  -1.792  -0.026  0.3051 -0.2922 -0.5018
 2319PEP     CB89074  19.754  -1.888  -0.024  0.2301 -0.3955  0.2143
 2319PEP     CB89075  20.113  -1.639   0.126  0.3719 -0.1083 -0.2411
 2319PEP     CB89076  20.040  -1.222   0.477 -0.1488  0.1010  0.3826
 2319PEP     CB89077  19.678  -1.055   0.430 -0.2277  0.3694 -0.2524
 2319PEP     CB89078  19.461  -1.191   0.078 -0.1701  0.1707  0.3712
 2319PEP     CB89079  19.677  -1.320  -0.294 -0.0868  0.3161 -0.3280
 2319PEP     CB89080  19.909  -1.411  -0.654 -0.0756 -0.0299  0.0058
 2320PEP     CB89081   1.658  11.289  19.120  0.2651 -0.0043  0.0390
 2320PEP     CB89082   1.441  11.599  19.424  0.2487  0.0981  0.1320
 2320PEP     CB89083   1.590  12.069  19.521  0.3246  0.0165 -0.2704
 2320PEP     CB89084   2.094  12.152  19.385 -0.0658 -0.1048 -0.2134
 2320PEP     CB89085   2.273  11.875  19.020 -0.3823 -0.1458 -0.4364
 2320PEP     CB89086   2.550  11.796  18.726  0.1682 -0.3985  0.1957
 2320PEP     CB89087   2.719  11.416  18.541 -0.1174  0.1885  0.2764
 2320PEP     CB89088   2.464  11.174  18.244  0.1141  0.0991 -0.2092
 2320PEP     CB89089   2.378  11.270  17.844 -0.0647  0.1789  0.0511
 2320PEP     CB89090   2.530  11.632  17.585 -0.3172 -0.0339 -0.1300
 2320PEP     CB89091   2.860  11.926  17.620  0.1584  0.1280  0.0795
 2320PEP     CB89092   3.232  12.141  17.750 -0.2286  0.0009  0.4638
 2320PEP     CB89093   3.466  12.468  18.002 -0.0803  0.2169 -0.0370
 2320PEP     CB89094   3.743  12.330  18.265 -0.5406  0.0320  0.1647
 2320PEP     CB89095   4.054  11.855  18.167  0.1878  0.1779 -0.0191
 2320PEP     CB89096   4.388  11.840  17.901  0.4406  0.1623 -0.2066
 2320PEP     CB89097   4.440  11.986  17.526 -0.3601  0.0555 -0.5255
 2320PEP     CB89098   4.187  11.794  17.125  0.0919  0.1774  0.0713
 2320PEP     CB89099   3.751  11.725  17.163  0.0145 -0.1518  0.2105
 2320PEP     CB89100   3.503  11.979  17.369  0.2104  0.1510  0.0303
 2320PEP     CB89101   3.515  12.437  17.353  0.1243  0.3221 -0.2651
 2320PEP     CB89102   3.723  12.676  17.085  0.0015 -0.4829  0.0585
 2320PEP     CB89103   3.693  13.020  16.743 -0.0371  0.5302  0.1855
 2320PEP     CB89104   3.424  13.343  16.584 -0.2168 -0.2736  0.1165
 2320PEP     CB89105   3.070  13.328  16.296  0.2684  0.1529  0.0158
 2320PEP     CB89106   2.957  13.394  15.876  0.5170  0.0889 -0.0567
 2320PEP     CB89107   2.792  13.642  15.564 -0.5340 -0.2699  0.3942
 2320PEP     CB89108   2.766  14.102  15.428  0.3978  0.3931  0.1920
 2320PEP     CB89109   2.830  14.322  15.020  0.1473  0.2192  0.0000
 2320PEP     CB89110   2.974  14.646  14.742 -0.4634  0.2533 -0.1513
 2320PEP     CB89111   3.227  14.638  14.402  0.1982 -0.1948  0.2418
 2320PEP     CB89112   3.306  14.171  14.215  0.1962 -0.0932 -0.3388
 2320PEP     CB89113   3.161  13.795  14.388  0.3862 -0.1976 -0.4867
 2320PEP     CB89114   2.826  13.579  14.515  0.0491 -0.1791  0.0653
 2320PEP     CB89115   2.406  13.801  14.581  0.1815  0.4935  0.0900
 2320PEP     CB89116   2.295  14.111  14.844  0.0743  0.3588  0.0706
 2320PEP     CB89117   2.278  14.428  15.141  0.1776  0.3029  0.4928
 2320PEP     CB89118   2.528  14.672  15.249 -0.2172 -0.2640 -0.1551
 2320PEP     CB89119   2.775  15.060  15.368  0.4663 -0.0074  0.1642
 2320PEP     CB89120   2.950  15.355  15.285 -0.1272 -0.2265 -0.1975
 2321PBP     C189121   8.400  16.840  13.481  0.3381 -0.2222 -0.0742
 2321PBP     C189122   8.489  16.374  13.359 -0.1142  0.6188 -0.2468
 2321PBP     C189123   8.282  16.013  13.302  0.1228  0.1889  0.0259
 2321PBP     C189124   8.113  15.857  13.628  0.1000  0.0904  0.1815
 2321PBP     C189125   7.938  15.445  13.964  0.4230 -0.2649 -0.3081
 2321PBP     C189126   7.843  15.047  14.189 -0.0299 -0.2285 -0.0215
 2321PBP     C189127   7.648  14.798  14.001  0.0236  0.1536 -0.0794
 2321PBP     C189128   7.273  14.798  13.937  0.3178  0.0715  0.3861
 2321PBP     CP89129   7.091  14.476  13.785  0.2671  0.3867  0.1857
 2321PBP     CP89130   7.237  14.203  13.594 -0.6927  0.2243 -0.1544
 2321PBP     CP89131   7.569  14.152  13.522  0.2024  0.3994 -0.3797
 2321PBP     Ch89132   7.688  14.232  13.286 -0.0025  0.2721  0.1066
 2322PBP     C189133   5.585   3.683  12.381  0.0728 -0.0131 -0.2072
 2322PBP     C189134   5.262   3.561  12.720 -0.2284 -0.2244 -0.0873
 2322PBP     C189135   5.243   3.303  12.426  0.1129  0.1076 -0.0042
 2322PBP     C189136   5.631   2.930  12.370  0.2711  0.1792 -0.0445
 2322PBP     C189137   5.773   3.226  11.996  0.3821 -0.1201 -0.0988
 2322PBP     C189138   5.744   3.662  11.791  0.2398 -0.6479  0.0599
 2322PBP     C189139   6.026   3.853  11.490 -0.1041  0.2515  0.1753
 2322PBP     C189140   5.900   3.946  11.101 -0.1111  0.2437 -0.1158
 2322PBP     CP89141   5.644   4.190  11.056  0.3966 -0.0952 -0.4654
 2322PBP     CP89142   5.511   4.489  11.074  0.1422 -0.2008 -0.1932
 2322PBP     CP89143   5.504   4.707  10.863  0.2486 -0.3911  0.0601
 2322PBP     Ch89144   5.618   4.587  10.602  0.0603  0.0276  0.1279
 2323PBP     C189145  14.102  11.028   7.770  0.2008 -0.0410 -0.4227
 2323PBP     C189146  14.303  10.970   8.050  0.1109 -0.0630  0.0003
 2323PBP     C189147  14.244  10.940   8.544 -0.0955 -0.0459 -0.0051
 2323PBP     C189148  14.069  10.742   8.888 -0.1144 -0.1980 -0.2142
 2323PBP     C189149  14.106  10.298   9.045  0.1246  0.1692 -0.0350
 2323PBP     C189150  13.911   9.864   9.110  0.0484 -0.2939  0.0994
 2323PBP     C189151  13.750   9.359   9.162 -0.0104  0.0682 -0.2019
 2323PBP     C189152  13.645   9.119   9.476  0.1789 -0.1826  0.1246
 2323PBP     CP89153  13.405   8.805   9.672 -0.0116  0.1917 -0.0406
 2323PBP     CP89154  13.133   8.702   9.588 -0.4993  0.0966 -0.1900
 2323PBP     CP89155  12.879   8.461   9.643  0.2211  0.0088 -0.5926
 2323PBP     Ch89156  12.766   8.404   9.851 -0.2692 -0.0004 -0.1948
 2324PBP     C189157  16.599  12.108  10.765  0.1873 -0.1770 -0.1932
 2324PBP     C189158  16.749  12.136  11.213  0.2957  0.0111  0.0382
 2324PBP     C189159  17.213  12.097  11.552 -0.0949 -0.1736  0.0648
 2324PBP     C189160  17.196  11.764  11.816  0.0726  0.5537  0.3851
 2324PBP     C189161  16.981  11.484  12.104  0.0119  0.2407 -0.2792
 2324PBP     C189162  16.524  11.454  12.337  0.1895  0.3182 -0.2124
 2324PBP     C189163  16.137  11.528  12.685 -0.3037 -0.1417 -0.2086
 2324PBP     C189164  15.735  11.820  12.699 -0.0039 -0.0779  0.0604
 2324PBP     CP89165  15.436  11.919  12.630 -0.2172 -0.0277  0.3509
 2324PBP     CP89166  15.109  11.930  12.551  0.3507 -0.1640 -0.1158
 2324PBP     CP89167  14.935  11.722  12.441  0.3084 -0.1019 -0.1865
 2324PBP     Ch89168  14.835  11.514  12.383  0.1090 -0.4026 -0.0708
 2325PBP     C189169   7.874  15.982  14.177  0.4381 -0.1847  0.3309
 2325PBP     C189170   8.359  16.001  14.031  0.3119 -0.0020  0.0466
 2325PBP     C189171   8.619  16.088  13.720 -0.1008 -0.1523  0.1493
 2325PBP     C189172   8.911  16.074  13.465  0.1090  0.4387  0.2592
 2325PBP     C189173   9.206  16.408  13.361 -0.3037 -0.0182 -0.3701
 2325PBP     C189174   9.311  16.480  12.887  0.1517  0.1210 -0.0058
 2325PBP     C189175   9.412  16.209  12.538 -0.1125  0.1306  0.2355
 2325PBP     C189176   9.322  15.855  12.464  0.1651 -0.0476  0.5071
 2325PBP     CP89177   9.484  15.528  12.574 -0.1577 -0.0263 -0.0556
 2325PBP     CP89178   9.600  15.198  12.568 -0.4739 -0.0206  0.1595
 2325PBP     CP89179   9.808  14.984  12.606  0.0548  0.0108 -0.6375
 2325PBP     Ch89180   9.901  14.744  12.598 -0.2557 -0.0463 -0.4225
 2326PBP     C189181  11.765  16.730  16.271  0.2728  0.1009  0.0054
 2326PBP     C189182  11.921  16.282  16.203 -0.0363 -0.0799 -0.2858
 2326PBP     C189183  11.985  15.852  16.194  0.2615 -0.3200 -0.1948
 2326PBP     C189184  12.139  15.410  16.189  0.5971  0.0987 -0.1254
 2326PBP     C189185  12.458  15.228  16.317 -0.2395 -0.1910  0.1339
 2326PBP     C189186  12.949  15.128  16.080  0.4020  0.3690  0.1988
 2326PBP     C189187  13.336  14.998  15.901 -0.0806  0.0788  0.0061
 2326PBP     C189188  13.625  14.647  15.708  0.2598 -0.5123  0.2267
 2326PBP     CP89189  13.904  14.673  15.478 -0.1175  0.2177 -0.2136
 2326PBP     CP89190  13.867  14.397  15.311 -0.1878  0.3146 -0.1110
 2326PBP     CP89191  13.961  14.080  15.394 -0.2086  0.3437 -0.2319
 2326PBP     Ch89192  14.082  13.863  15.336  0.4477  0.2784  0.8069
 2327PBP     C189193   7.511   4.117   8.961  0.1120 -0.0932  0.2749
 2327PBP     C189194   7.347   4.057   9.297 -0.2233  0.1859 -0.1117
 2327PBP     C189195   7.104   3.800   9.467  0.2813 -0.1425  0.0841
 2327PBP     C189196   6.996   3.451   9.270  0.0851  0.3821  0.0706
 2327PBP     C189197   6.673   3.376   8.972 -0.1993  0.5872  0.3169
 2327PBP     C189198   6.464   3.660   8.924 -0.1099  0.1439  0.4152
 2327PBP     C189199   6.268   4.002   8.796 -0.4187  0.2332 -0.2441
 2327PBP     C189200   6.599   4.313   8.707  0.3177  0.0128 -0.0747
 2327PBP     CP89201   6.615   4.698   8.769 -0.1785  0.3875 -0.0309
 2327PBP     CP89202   6.822   4.906   8.845 -0.5010  0.0283  0.2038
 2327PBP     CP89203   7.131   4.875   8.910  0.9400 -0.1192  0.3280
 2327PBP     Ch89204   7.426   4.892   9.052 -0.0351  0.5473  0.2015
 2328PBP     C189205   7.321   7.903  13.556 -0.2798  0.1278  0.4412
 2328PBP     C189206   7.025   8.197  13.805  0.5230  0.0740  0.3679
 2328PBP     C189207   6.893   8.470  14.142  0.0209 -0.1304 -0.0982
 2328PBP     C189208   6.591   8.779  13.932  0.2558  0.0586 -0.0906
 2328PBP     C189209   6.607   9.140  13.604  0.2749  0.0552  0.0695
 2328PBP     C189210   6.618   9.295  13.295 -0.2601 -0.2148  0.6064
 2328PBP     C189211   6.736   9.379  12.832  0.0415  0.1425 -0.2191
 2328PBP     C189212   6.501   9.638  12.547  0.5161  0.0153  0.3750
 2328PBP     CP89213   6.733   9.788  12.331 -0.1721 -0.3202 -0.2481
 2328PBP     CP89214   6.947  10.078  12.437 -0.0641 -0.0983 -0.0503
 2328PBP     CP89215   7.228  10.162  12.656 -0.0968 -0.1195 -0.1320
 2328PBP     Ch89216   7.325   9.950  12.557  0.0790 -0.1273 -0.2596
 2329PBP     C189217   6.937  10.573   6.355 -0.0689  0.0361  0.1693
 2329PBP     C189218   6.965  10.434   6.785  0.1426 -0.0612 -0.4378
 2329PBP     C189219   6.971  10.073   7.137 -0.0057 -0.1928  0.1250
 2329PBP     C189220   7.068   9.704   7.030 -0.0620 -0.1871 -0.0918
 2329PBP     C189221   7.147   9.294   7.087  0.1411  0.1759  0.2467
 2329PBP     C189222   7.487   8.988   7.027 -0.1710  0.0358  0.0831
 2329PBP     C189223   7.763   9.035   7.341 -0.2189 -0.0514 -0.1127
 2329PBP     C189224   7.768   9.206   7.814  0.0619 -0.0993  0.2995
 2329PBP     CP89225   7.734   8.835   8.090  0.1941  0.0706 -0.4576
 2329PBP     CP89226   7.646   8.525   8.176 -0.5771 -0.3969 -0.1895
 2329PBP     CP89227   7.574   8.279   8.028 -0.0585 -0.2757 -0.0488
 2329PBP     Ch89228   7.484   8.012   8.115  0.1656  0.0801  0.0858
 2330PBP     C189229   5.037   8.166  13.158  0.0889  0.1877  0.0738
 2330PBP     C189230   5.225   8.328  13.475 -0.1189 -0.0361 -0.4639
 2330PBP     C189231   5.571   8.690  13.584 -0.4665 -0.2059  0.3805
 2330PBP     C189232   5.700   9.082  13.542 -0.2683 -0.0652  0.3883
 2330PBP     C189233   6.011   9.444  13.451 -0.3557  0.7294  0.2499
 2330PBP     C189234   6.111   9.958  13.281 -0.0732 -0.0093 -0.3092
 2330PBP     C189235   6.171  10.199  12.944 -0.1235  0.0245  0.0820
 2330PBP     C189236   6.395  10.091  12.599 -0.1309 -0.0779  0.3571
 2330PBP     CP89237   6.515  10.207  12.263  0.2846 -0.2018 -0.0456
 2330PBP     CP89238   6.676  10.481  12.345  0.0822  0.1190  0.0292
 2330PBP     CP89239   6.652  10.752  12.496 -0.0776  0.4687 -0.6906
 2330PBP     Ch89240   6.441  10.922  12.478  0.2022 -0.2612  0.4299
 2331PBP     C189241  13.648   7.614  16.911  0.1414 -0.0441  0.2170
 2331PBP     C189242  13.988   7.390  16.552 -0.1193  0.2353  0.3447
 2331PBP     C189243  14.226   6.985  16.412  0.0196 -0.0031  0.3291
 2331PBP     C189244  14.060   6.568  16.220 -0.3914  0.1148  0.1945
 2331PBP     C189245  14.234   6.313  15.808  0.1817  0.3589 -0.2758
 2331PBP     C189246  14.327   6.482  15.463 -0.1123  0.4251  0.3131
 2331PBP     C189247  14.598   6.594  15.142 -0.0778  0.2043  0.0314
 2331PBP     C189248  14.908   6.623  14.847  0.0302  0.5307 -0.0932
 2331PBP     CP89249  14.707   6.682  14.538 -0.0989  0.4653  0.3054
 2331PBP     CP89250  14.460   6.800  14.401  0.4883 -0.2181 -0.1049
 2331PBP     CP89251  14.157   6.654  14.345 -0.0341  0.1462 -0.0148
 2331PBP     Ch89252  13.976   6.746  14.193  0.2427 -0.0583 -0.0062
 2332PBP     C189253   4.941   7.474   9.836  0.0395 -0.4270  0.3350
 2332PBP     C189254   5.099   7.001  10.094  0.2508 -0.4741  0.6085
 2332PBP     C189255   5.189   6.601  10.033 -0.0919 -0.1549  0.2491
 2332PBP     C189256   4.991   6.218   9.802 -0.1577 -0.3520 -0.0118
 2332PBP     C189257   4.851   5.906   9.739  0.1878 -0.1080 -0.0943
 2332PBP     C189258   4.972   5.594   9.478 -0.1018  0.0572 -0.3245
 2332PBP     C189259   5.370   5.432   9.611 -0.0987 -0.0119 -0.1154
 2332PBP     C189260   5.718   5.381   9.979 -0.1128 -0.0953  0.1893
 2332PBP     CP89261   6.110   5.460  10.125  0.2920 -0.4999  0.1605
 2332PBP     CP89262   6.417   5.382  10.207 -0.4511  0.0417 -0.2255
 2332PBP     CP89263   6.723   5.533  10.308  0.1469 -0.1852  0.7227
 2332PBP     Ch89264   6.982   5.600  10.400  0.1213  0.0679  0.1024
 2333PBP     C189265   9.179  14.234  15.924 -0.2145  0.0830  0.3089
 2333PBP     C189266   8.801  13.919  15.735  0.2107  0.1428  0.0035
 2333PBP     C189267   8.525  13.829  15.420 -0.2196 -0.2203  0.1207
 2333PBP     C189268   8.357  13.694  15.213 -0.0068  0.0104  0.1103
 2333PBP     C189269   8.295  13.700  14.914 -0.1880 -0.1309 -0.0441
 2333PBP     C189270   7.830  13.630  14.625  0.1966  0.1236  0.0154
 2333PBP     C189271   7.518  13.831  14.288  0.1661 -0.0520  0.2365
 2333PBP     C189272   7.271  13.629  13.937 -0.0629 -0.3515  0.3043
 2333PBP     CP89273   7.122  13.761  13.579  0.1142 -0.1632  0.0743
 2333PBP     CP89274   6.860  13.861  13.426 -0.3954 -0.4806  0.3254
 2333PBP     CP89275   6.654  13.696  13.232 -0.0665 -0.0689 -0.3941
 2333PBP     Ch89276   6.452  13.507  13.149  0.2936  0.0698  0.1133
 2334PBP     C189277  17.380  15.859  12.061  0.1461  0.0523  0.0170
 2334PBP     C189278  17.063  15.870  12.150  0.6738  0.5909 -0.1167
 2334PBP     C189279  16.826  15.876  12.544 -0.0798  0.1285 -0.0302
 2334PBP     C189280  16.608  16.065  12.985  0.0408  0.0309 -0.1982
 2334PBP     C189281  16.812  16.371  13.080  0.1165 -0.0596  0.5122
 2334PBP     C189282  17.108  16.634  13.077 -0.0908  0.1076 -0.2797
 2334PBP     C189283  17.145  17.115  13.049  0.2388 -0.2261 -0.2301
 2334PBP     C189284  16.927  17.497  13.284 -0.0517  0.9614  0.0210
 2334PBP     CP89285  16.911  17.511  13.718 -0.4582  0.0925 -0.4461
 2334PBP     CP89286  17.003  17.863  13.803  0.0346 -0.2491  0.3092
 2334PBP     CP89287  16.973  18.183  13.819  0.1126  0.1846  0.0681
 2334PBP     Ch89288  16.784  18.340  13.850 -0.5895  0.1723 -0.2369
 2335PBP     C189289   5.688  13.130   6.400 -0.2342 -0.3787  0.1774
 2335PBP     C189290   5.825  13.198   6.753 -0.1245 -0.4680 -0.2011
 2335PBP     C189291   6.032  12.847   7.009  0.2235 -0.0205  0.3583
 2335PBP     C189292   6.384  12.765   7.260  0.4169 -0.1811 -0.2533
 2335PBP     C189293   6.781  12.453   7.373  0.4499  0.0065  0.4055
 2335PBP     C189294   6.853  12.020   7.441  0.1796 -0.1383  0.2959
 2335PBP     C189295   7.140  11.701   7.421  0.0898 -0.2078  0.1258
 2335PBP     C189296   7.353  11.237   7.402 -0.1919  0.1416  0.2174
 2335PBP     CP89297   7.358  10.926   7.679 -0.2924 -0.0999  0.4727
 2335PBP     CP89298   7.303  10.845   8.003  0.2946 -0.1309  0.3429
 2335PBP     CP89299   7.291  11.049   8.219  0.0092  0.0966  0.1317
 2335PBP     Ch89300   7.362  11.177   8.469 -0.1410  0.1574  0.4438
 2336PBP     C189301   4.545   9.823   9.538 -0.0432 -0.0431 -0.2197
 2336PBP     C189302   4.341  10.067   9.850  0.2728 -0.1352 -0.1653
 2336PBP     C189303   4.135  10.391   9.976  0.3381  0.0309  0.1178
 2336PBP     C189304   4.482  10.674  10.179  0.2449  0.2250  0.0637
 2336PBP     C189305   4.571  10.968  10.109  0.0147  0.2286 -0.0623
 2336PBP     C189306   4.515  11.512  10.258 -0.2693 -0.1002 -0.0626
 2336PBP     C189307   4.351  11.804  10.630  0.2076 -0.0705 -0.5966
 2336PBP     C189308   4.636  12.049  10.961  0.0288 -0.2099  0.2365
 2336PBP     CP89309   4.900  12.209  11.270 -0.0693 -0.0735 -0.6251
 2336PBP     CP89310   4.827  12.579  11.228 -0.1716 -0.2954  0.0812
 2336PBP     CP89311   4.576  12.806  11.136 -0.0496  0.3800  0.4698
 2336PBP     Ch89312   4.309  12.950  11.078  0.3026 -0.1003  0.4545
 2337PBP     C189313  15.837  13.056  15.935  0.1054 -0.2259  0.0947
 2337PBP     C189314  15.831  13.367  15.590 -0.1626 -0.1415  0.0197
 2337PBP     C189315  16.130  13.615  15.254  0.0816  0.3291  0.0302
 2337PBP     C189316  16.139  13.608  14.893 -0.3486 -0.2252  0.0702
 2337PBP     C189317  16.014  13.435  14.596 -0.3471  0.0301 -0.1403
 2337PBP     C189318  15.694  13.316  14.576  0.1888  0.0797  0.2371
 2337PBP     C189319  15.404  13.121  14.225 -0.0580 -0.2625 -0.2176
 2337PBP     C189320  15.093  12.953  14.003 -0.1146  0.2137  0.0336
 2337PBP     CP89321  14.734  12.978  13.960  0.1230  0.0994  0.3251
 2337PBP     CP89322  14.371  13.018  13.886 -0.6522  0.3370  0.5294
 2337PBP     CP89323  14.128  12.892  13.747  0.4837 -0.2571 -0.4095
 2337PBP     Ch89324  13.810  12.906  13.627 -0.0930  0.0188 -0.3476
 2338PBP     C189325   7.238  16.503  11.132 -0.1549 -0.0621 -0.1126
 2338PBP     C189326   7.194  16.290  11.510  0.0373 -0.0928  0.1816
 2338PBP     C189327   7.503  15.932  11.490  0.0710  0.0391 -0.2456
 2338PBP     C189328   7.847  15.848  11.752  0.1327  0.1097 -0.1586
 2338PBP     C189329   7.823  15.680  12.127 -0.3152 -0.3561 -0.1234
 2338PBP     C189330   7.592  15.735  12.552  0.3389  0.2519 -0.0093
 2338PBP     C189331   7.479  15.626  12.936  0.0630  0.2960  0.4484
 2338PBP     C189332   7.170  15.360  13.160 -0.3129  0.0102 -0.3190
 2338PBP     CP89333   6.810  15.327  13.085  0.1469 -0.4502  0.1508
 2338PBP     CP89334   6.512  15.168  12.963  0.5072  0.1724  0.0029
 2338PBP     CP89335   6.183  15.192  12.865 -0.0464  0.3650 -0.6753
 2338PBP     Ch89336   6.179  15.365  12.653  0.3408  0.3570  0.0357
 2339PBP     C189337   6.860   2.797  13.174  0.1708  0.0132  0.1173
 2339PBP     C189338   6.714   2.885  12.816  0.1984  0.3628  0.3708
 2339PBP     C189339   6.359   2.844  12.552 -0.1365  0.0830  0.3388
 2339PBP     C189340   6.181   3.125  12.264  0.0701  0.2478 -0.3222
 2339PBP     C189341   6.130   3.505  12.223  0.4357 -0.1711 -0.0708
 2339PBP     C189342   6.339   4.026  12.023 -0.4645  0.4443  0.2272
 2339PBP     C189343   6.685   4.312  12.131  0.3849 -0.0515  0.0257
 2339PBP     C189344   6.706   4.759  12.154  0.0840  0.0128  0.0467
 2339PBP     CP89345   7.003   5.021  12.153  0.0547 -0.3964  0.1341
 2339PBP     CP89346   7.192   5.224  12.000 -0.0037  0.3757  0.2909
 2339PBP     CP89347   7.154   5.524  11.862  0.1383 -0.7651  0.0154
 2339PBP     Ch89348   6.959   5.668  11.782  0.6119 -0.4464 -0.0833
 2340PBP     C189349  12.458   3.507   8.863 -0.3281  0.1117  0.0938
 2340PBP     C189350  12.592   3.904   8.969  0.1572  0.0136  0.2278
 2340PBP     C189351  12.804   4.048   9.377 -0.0250  0.0158 -0.2439
 2340PBP     C189352  13.001   4.402   9.649 -0.1520 -0.0120  0.2492
 2340PBP     C189353  13.232   4.846   9.688  0.0739 -0.0816 -0.3804
 2340PBP     C189354  13.328   5.200   9.990  0.0817 -0.2596  0.1732
 2340PBP     C189355  13.553   5.287  10.380  0.1404  0.2184 -0.0428
 2340PBP     C189356  13.434   5.408  10.849 -0.0691 -0.4941 -0.1020
 2340PBP     CP89357  13.573   5.755  11.066  0.0294 -0.3734  0.3795
 2340PBP     CP89358  13.530   6.065  11.107  0.1703 -0.0787  0.2606
 2340PBP     CP89359  13.668   6.309  11.187  0.4070 -0.4474 -0.5567
 2340PBP     Ch89360  13.726   6.575  11.225 -0.1353 -0.7916 -0.2633
 2341PBP     C189361  16.403  13.921  10.363  0.1063  0.2309 -0.2920
 2341PBP     C189362  16.492  13.737  10.820  0.1075 -0.3006  0.0671
 2341PBP     C189363  16.728  13.808  11.125  0.1279  0.0759  0.3533
 2341PBP     C189364  16.616  13.521  11.477  0.2061 -0.3709  0.1462
 2341PBP     C189365  16.508  13.486  11.910 -0.0755  0.1933 -0.0159
 2341PBP     C189366  16.133  13.574  12.063  0.1147  0.3637  0.1611
 2341PBP     C189367  15.889  13.724  12.163 -0.1531  0.0359 -0.3670
 2341PBP     C189368  15.692  14.031  12.405  0.3093 -0.3653 -0.3194
 2341PBP     CP89369  15.458  14.272  12.560  0.1034  0.2873  0.1746
 2341PBP     CP89370  15.482  14.556  12.623 -0.1888 -0.5112  0.1455
 2341PBP     CP89371  15.601  14.765  12.445 -0.0349 -0.3677  0.3732
 2341PBP     Ch89372  15.563  14.998  12.276 -0.1530  0.1672  0.0050
 2342PBP     C189373  11.982   7.650  16.877 -0.1326  0.2528 -0.2217
 2342PBP     C189374  12.106   7.661  16.539  0.1144  0.2713  0.1084
 2342PBP     C189375  12.188   7.502  16.127 -0.1194  0.0817 -0.2393
 2342PBP     C189376  11.876   7.157  15.833  0.4166 -0.1701  0.3269
 2342PBP     C189377  11.862   7.046  15.486  0.4123 -0.2514  0.2699
 2342PBP     C189378  11.848   7.081  15.001  0.2748 -0.2309 -0.0789
 2342PBP     C189379  12.170   7.081  14.653  0.1219  0.0412 -0.5120
 2342PBP     C189380  12.359   6.731  14.492  0.0966  0.0640  0.0967
 2342PBP     CP89381  12.589   6.757  14.193  0.1574  0.1586 -0.0275
 2342PBP     CP89382  12.641   6.599  13.902  0.2436 -0.0373 -0.1760
 2342PBP     CP89383  12.439   6.438  13.646  0.1406  0.2912 -0.4152
 2342PBP     Ch89384  12.345   6.175  13.571  0.0964  0.2692 -0.2215
 2343PBP     C189385   8.332  10.532  16.267  0.0786  0.0703 -0.4339
 2343PBP     C189386   8.342  10.284  15.788  0.2335  0.4944  0.1671
 2343PBP     C189387   8.342  10.043  15.266 -0.1779  0.2413  0.0736
 2343PBP     C189388   8.645  10.015  14.868  0.0647  0.3092 -0.0977
 2343PBP     C189389   8.833  10.103  14.538 -0.0883  0.2128  0.1566
 2343PBP     C189390   9.029   9.869  14.088  0.0379 -0.0301  0.3308
 2343PBP     C189391   8.805   9.620  13.752  0.0448 -0.3744  0.0258
 2343PBP     C189392   8.911   9.710  13.382  0.2173 -0.1393  0.0603
 2343PBP     CP89393   9.076   9.829  13.048 -0.3667  0.6279 -0.2539
 2343PBP     CP89394   9.011   9.541  12.912 -0.0304  0.4624  0.2125
 2343PBP     CP89395   9.011   9.220  12.926 -0.1537 -0.1003 -0.2924
 2343PBP     Ch89396   8.860   9.024  12.837 -0.1569 -0.1188  0.0416
 2344PBP     C189397   4.397   8.421   9.112  0.1167  0.0292  0.1700
 2344PBP     C189398   4.688   8.366   8.781 -0.1999  0.1439  0.0272
 2344PBP     C189399   5.181   8.263   8.731  0.2200 -0.4398 -0.2330
 2344PBP     C189400   5.509   8.428   8.421  0.3791  0.1635  0.0580
 2344PBP     C189401   5.856   8.627   8.444 -0.2381 -0.1164  0.4879
 2344PBP     C189402   5.940   8.654   8.042  0.1630 -0.1185 -0.3176
 2344PBP     C189403   6.202   8.983   7.792  0.2193 -0.0551  0.0078
 2344PBP     C189404   6.263   9.441   7.732  0.0513  0.3100 -0.0643
 2344PBP     CP89405   6.205   9.826   7.865 -0.2152  0.0871  0.0788
 2344PBP     CP89406   6.340  10.093   7.983  0.2649 -0.2062  0.0650
 2344PBP     CP89407   6.210  10.391   7.986 -0.0912 -0.4320 -0.0601
 2344PBP     Ch89408   6.046  10.611   7.914  0.1216 -0.1414  0.5567
 2345PBP     C189409  13.906  16.369   8.744  0.0568  0.1923  0.1111
 2345PBP     C189410  13.592  16.199   9.015  0.2771  0.2311  0.0904
 2345PBP     C189411  13.574  15.876   9.189  0.2412  0.0762  0.3356
 2345PBP     C189412  13.506  15.590   9.479 -0.0604  0.0856  0.0009
 2345PBP     C189413  13.553  15.690   9.874 -0.0284 -0.1646  0.2897
 2345PBP     C189414  13.854  15.556  10.223 -0.0409 -0.0822 -0.0130
 2345PBP     C189415  14.178  15.352  10.289  0.4105  0.0799 -0.0574
 2345PBP     C189416  14.257  15.030  10.515 -0.1976 -0.0543  0.0095
 2345PBP     CP89417  14.256  14.795  10.871  0.1078  0.0563  0.0492
 2345PBP     CP89418  14.036  14.870  11.071 -0.0425 -0.3220 -0.0502
 2345PBP     CP89419  13.798  15.123  11.092 -0.1575 -0.1653 -0.1041
 2345PBP     Ch89420  13.656  15.312  11.098 -0.2446 -0.0986  0.0444
 2346PBP     C189421  10.979   4.687   9.709 -0.2313 -0.1400  0.0699
 2346PBP     C189422  11.213   4.478   9.921  0.0920 -0.0112 -0.2621
 2346PBP     C189423  11.076   4.315  10.397  0.2985  0.5296  0.2444
 2346PBP     C189424  10.834   4.063  10.480  0.0509 -0.4131  0.3627
 2346PBP     C189425  10.321   3.851  10.533  0.0793  0.1249 -0.0776
 2346PBP     C189426   9.893   3.891  10.683 -0.2288 -0.2736 -0.2372
 2346PBP     C189427   9.788   4.018  11.156 -0.3435 -0.3531  0.1707
 2346PBP     C189428   9.629   4.443  11.299  0.2122  0.5379 -0.4013
 2346PBP     CP89429   9.532   4.865  11.096 -0.5187  0.0485  0.2278
 2346PBP     CP89430   9.384   5.148  11.086 -0.1712 -0.4981 -0.4086
 2346PBP     CP89431   9.401   5.454  11.115 -0.3539 -0.5697 -0.4569
 2346PBP     Ch89432   9.513   5.733  11.161  0.3662 -0.6891  0.4952
 2347PBP     C189433  14.813   4.454   8.505 -0.1910 -0.2448 -0.0580
 2347PBP     C189434  14.767   4.932   8.643 -0.1170  0.0541 -0.0788
 2347PBP     C189435  14.530   5.379   8.495 -0.1022 -0.1393  0.0750
 2347PBP     C189436  14.148   5.736   8.618  0.1227  0.0139 -0.4332
 2347PBP     C189437  14.179   6.047   8.950 -0.1568  0.4687 -0.0165
 2347PBP     C189438  14.032   6.362   8.993  0.0615 -0.3662  0.1160
 2347PBP     C189439  14.070   6.627   9.373 -0.0292 -0.0043  0.0459
 2347PBP     C189440  13.924   7.081   9.610 -0.0300  0.0532  0.2536
 2347PBP     CP89441  13.799   7.367   9.881  0.1833 -0.0125 -0.0714
 2347PBP     CP89442  13.867   7.655  10.101  0.3052 -0.6843 -0.0885
 2347PBP     CP89443  14.015   7.970  10.031 -0.1024 -0.2264 -0.6455
 2347PBP     Ch89444  14.061   8.126  10.258 -0.1171 -0.4383  0.2255
 2348PBP     C189445  12.104  17.709   9.986  0.0960  0.2036  0.1635
 2348PBP     C189446  11.892  17.298   9.853 -0.0363  0.0973  0.0501
 2348PBP     C189447  11.566  16.983   9.810 -0.1098  0.0553 -0.0167
 2348PBP     C189448  11.640  16.702  10.008 -0.1644 -0.1912 -0.2191
 2348PBP     C189449  11.470  16.302  10.153  0.1244 -0.3064  0.2742
 2348PBP     C189450  11.259  15.964   9.802 -0.2491 -0.0940  0.0988
 2348PBP     C189451  11.155  15.682   9.608  0.3847  0.0770  0.4989
 2348PBP     C189452  11.170  15.294   9.664  0.0644  0.0718 -0.1817
 2348PBP     CP89453  10.977  15.066   9.894  0.0345 -0.0185 -0.1621
 2348PBP     CP89454  10.810  14.860  10.003 -0.4938 -0.3478 -0.0390
 2348PBP     CP89455  10.695  14.544   9.987  0.0699  0.2745  0.0851
 2348PBP     Ch89456  10.824  14.309   9.923 -0.1276 -0.1341  0.2137
 2349PBP     C189457  17.137   5.014  10.969 -0.1760  0.1373 -0.1763
 2349PBP     C189458  16.819   5.159  11.265 -0.1282 -0.2060 -0.2047
 2349PBP     C189459  16.455   5.327  11.590 -0.3340 -0.2171  0.0707
 2349PBP     C189460  16.337   5.617  11.929 -0.0118 -0.1991  0.2125
 2349PBP     C189461  16.358   5.531  12.365  0.0414  0.2741 -0.2404
 2349PBP     C189462  16.310   5.729  12.789 -0.0202  0.3738 -0.0717
 2349PBP     C189463  16.391   6.184  12.863 -0.1418 -0.0649 -0.0146
 2349PBP     C189464  16.210   6.570  12.952 -0.0540  0.3058  0.0164
 2349PBP     CP89465  16.209   7.022  12.970 -0.2033 -0.4839  0.0806
 2349PBP     CP89466  16.071   7.204  13.188  0.1524  0.0940 -0.2879
 2349PBP     CP89467  15.879   7.290  13.399  0.0974  0.2369  0.0006
 2349PBP     Ch89468  15.847   7.202  13.633 -0.2823 -0.3067  0.6628
 2350PBP     C189469  15.429  11.326   8.866  0.2843  0.2457  0.1977
 2350PBP     C189470  15.024  11.404   8.739 -0.0549  0.2938  0.1626
 2350PBP     C189471  14.596  11.351   8.812  0.0407  0.2683 -0.1765
 2350PBP     C189472  14.524  11.055   9.154  0.0720 -0.2061 -0.0064
 2350PBP     C189473  14.176  10.893   9.365  0.0341  0.2074 -0.3614
 2350PBP     C189474  14.017  11.231   9.479 -0.2676  0.1420  0.0515
 2350PBP     C189475  13.576  11.183   9.760 -0.1784 -0.0505 -0.0830
 2350PBP     C189476  13.427  10.805  10.015 -0.8330  0.1072  0.2127
 2350PBP     CP89477  13.079  10.794  10.217  0.4318  0.1052 -0.1312
 2350PBP     CP89478  12.768  10.684  10.172  0.3200 -0.0158 -0.0301
 2350PBP     CP89479  12.649  10.444  10.067  0.5705  0.4874 -0.1489
 2350PBP     Ch89480  12.729  10.257   9.889  0.0006 -0.2110  0.2680
 2351PBP     C189481   5.490   6.380   6.933  0.0715  0.2735  0.1001
 2351PBP     C189482   5.503   5.942   7.060  0.1323  0.1444 -0.1397
 2351PBP     C189483   5.308   5.648   7.070  0.0497  0.2223 -0.4347
 2351PBP     C189484   5.235   5.188   6.927  0.0477  0.2414 -0.3037
 2351PBP     C189485   5.406   4.867   7.109  0.0101  0.0107  0.2113
 2351PBP     C189486   5.633   4.923   7.444 -0.0090  0.1153  0.2746
 2351PBP     C189487   5.874   4.984   7.838 -0.0688 -0.0703 -0.0313
 2351PBP     C189488   5.879   4.896   8.256  0.0257  0.1298  0.1107
 2351PBP     CP89489   6.207   4.930   8.559 -0.0946 -0.3070  0.1364
 2351PBP     CP89490   6.261   5.094   8.842  0.1359 -0.1521 -0.3278
 2351PBP     CP89491   6.441   5.337   8.962 -0.2159 -0.3222  0.3539
 2351PBP     Ch89492   6.666   5.331   8.859 -0.3783  0.1239  0.2583
 2352PBP     C189493  17.157   9.953  11.122 -0.0380 -0.3109 -0.1603
 2352PBP     C189494  16.853  10.105  11.463  0.4796 -0.3327  0.2513
 2352PBP     C189495  16.455  10.257  11.583  0.2169 -0.1644 -0.0396
 2352PBP     C189496  16.187  10.455  11.801 -0.0984  0.1423 -0.1649
 2352PBP     C189497  16.064  10.366  12.126 -0.0999  0.0361  0.0117
 2352PBP     C189498  15.887  10.376  12.592  0.0813  0.3112  0.0739
 2352PBP     C189499  16.039  10.221  12.943  0.2943  0.1999  0.1517
 2352PBP     C189500  15.828  10.223  13.263  0.4288  0.2256  0.0834
 2352PBP     CP89501  15.485  10.355  13.572  0.2243 -0.1763  0.0767
 2352PBP     CP89502  15.232  10.240  13.712  0.1202 -0.1075 -0.6662
 2352PBP     CP89503  14.948  10.226  13.687  0.2914 -0.1121  0.0593
 2352PBP     Ch89504  14.655  10.199  13.563  0.0408  0.2364  0.0805
 2353PBP     C189505   8.958  13.933  15.184 -0.4991 -0.2299  0.1526
 2353PBP     C189506   9.148  13.641  15.441  0.1072 -0.1308  0.2080
 2353PBP     C189507   9.329  13.246  15.455  0.2841  0.3611  0.1603
 2353PBP     C189508   9.569  13.021  15.127  0.1728  0.1069  0.4457
 2353PBP     C189509   9.943  12.854  15.234  0.0785 -0.3240 -0.0728
 2353PBP     C189510  10.404  12.759  15.326 -0.0381 -0.0577 -0.0507
 2353PBP     C189511  10.915  12.653  15.444 -0.2112 -0.2464  0.0029
 2353PBP     C189512  11.186  12.400  15.132 -0.4962  0.2004 -0.2177
 2353PBP     CP89513  11.245  12.290  14.786 -0.2161 -0.0476 -0.1774
 2353PBP     CP89514  11.196  12.494  14.551 -0.2535  0.0510 -0.3975
 2353PBP     CP89515  11.236  12.736  14.366  0.0325  0.1036  0.3122
 2353PBP     Ch89516  11.299  12.730  14.129  0.4850 -0.0237  0.1382
 2354PBP     C189517   9.632  18.232  12.593 -0.0516 -0.2080 -0.0689
 2354PBP     C189518   9.762  17.734  12.783 -0.2311 -0.1089 -0.3069
 2354PBP     C189519   9.736  17.380  13.041 -0.3090  0.2599 -0.0556
 2354PBP     C189520   9.594  16.984  13.119  0.1647 -0.0959 -0.0663
 2354PBP     C189521   9.770  16.544  13.055 -0.1809 -0.0628 -0.0401
 2354PBP     C189522   9.683  16.104  13.082 -0.2264  0.1342  0.0847
 2354PBP     C189523   9.598  15.942  13.468 -0.0662 -0.4351 -0.1694
 2354PBP     C189524   9.428  15.627  13.835 -0.3168  0.0999  0.0261
 2354PBP     CP89525   9.421  15.243  14.013 -0.2218  0.1634 -0.0124
 2354PBP     CP89526   9.267  14.991  13.898 -0.0520  0.4930 -0.4763
 2354PBP     CP89527   9.352  14.664  13.872  0.4491  0.5581  0.3074
 2354PBP     Ch89528   9.202  14.499  13.709  0.0640  0.4723  0.2416
 2355PBP     C189529   9.591   8.916   5.803 -0.0063  0.0995  0.2008
 2355PBP     C189530   9.360   9.123   6.098 -0.2962 -0.1930 -0.1686
 2355PBP     C189531   9.223   8.874   6.403 -0.1085  0.2036 -0.1240
 2355PBP     C189532   9.192   8.378   6.425  0.0896 -0.3393  0.0734
 2355PBP     C189533   8.876   8.165   6.705  0.1923  0.2995  0.0625
 2355PBP     C189534   8.768   8.414   7.043  0.1193  0.1493  0.0979
 2355PBP     C189535   8.615   8.318   7.305  0.2769  0.3449 -0.2793
 2355PBP     C189536   8.421   8.083   7.635 -0.0650  0.2886  0.3059
 2355PBP     CP89537   8.445   8.179   8.052  0.0495 -0.2027 -0.2304
 2355PBP     CP89538   8.539   8.156   8.350  0.8581 -0.0954 -0.0205
 2355PBP     CP89539   8.775   8.108   8.530 -0.0518  0.0394  0.2269
 2355PBP     Ch89540   9.000   8.117   8.386  0.3252  0.0877  0.0484
 2356PBP     C189541  16.622   8.058   7.291  0.0802 -0.0702 -0.1341
 2356PBP     C189542  16.276   7.994   7.590 -0.0886  0.0854 -0.0046
 2356PBP     C189543  16.370   7.794   8.033  0.0883  0.0100  0.2307
 2356PBP     C189544  16.408   7.889   8.399  0.2718  0.1080  0.0039
 2356PBP     C189545  16.518   7.786   8.926 -0.1449  0.1049  0.2289
 2356PBP     C189546  16.539   7.675   9.450 -0.1284  0.0330 -0.0347
 2356PBP     C189547  16.250   8.009   9.717  0.0191 -0.0132 -0.0981
 2356PBP     C189548  15.826   8.247   9.630 -0.5010  0.0984  0.1530
 2356PBP     CP89549  15.582   8.131   9.942  0.0716 -0.2813 -0.0031
 2356PBP     CP89550  15.446   8.148  10.232 -0.4846  0.1192  0.2027
 2356PBP     CP89551  15.167   8.135  10.370  0.5222 -0.0397  0.0932
 2356PBP     Ch89552  15.057   8.169  10.551  0.2964  0.0838 -0.4466
 2357PBP     C189553   6.992  18.286   9.409 -0.6161  0.1957  0.1513
 2357PBP     C189554   7.174  18.204   9.952  0.0346  0.0285  0.1737
 2357PBP     C189555   7.088  18.009  10.350  0.2535  0.2932  0.1717
 2357PBP     C189556   7.301  17.702  10.195 -0.0901  0.1959  0.0619
 2357PBP     C189557   7.209  17.282  10.168  0.1114  0.1111 -0.3206
 2357PBP     C189558   7.329  16.834  10.293 -0.0912  0.2848 -0.5236
 2357PBP     C189559   7.492  16.613  10.588  0.0941 -0.0822 -0.2204
 2357PBP     C189560   7.880  16.354  10.630  0.2813  0.0753  0.0400
 2357PBP     CP89561   8.239  16.201  10.470 -0.0787  0.1706  0.5228
 2357PBP     CP89562   8.459  16.226  10.674  0.2118 -0.0584 -0.2756
 2357PBP     CP89563   8.665  16.059  10.848  0.1451  0.0590 -0.0561
 2357PBP     Ch89564   8.521  16.004  11.075  0.0491  0.0062 -0.1695
 2358PBP     C189565   8.793  16.410  10.320 -0.0417  0.0418 -0.2486
 2358PBP     C189566   9.258  16.503  10.372  0.3681 -0.1004 -0.0632
 2358PBP     C189567   9.634  16.535  10.380  0.2928 -0.1709 -0.3113
 2358PBP     C189568  10.025  16.454  10.012  0.0742  0.1347  0.0084
 2358PBP     C189569  10.413  16.382   9.868  0.1143  0.2192 -0.4226
 2358PBP     C189570  10.709  16.152   9.690  0.1626  0.1229 -0.1355
 2358PBP     C189571  10.633  15.952   9.542 -0.1180  0.3854  0.2895
 2358PBP     C189572  10.551  15.448   9.690  0.1820 -0.1942 -0.0804
 2358PBP     CP89573  10.514  15.209   9.995 -0.1774  0.3392 -0.1165
 2358PBP     CP89574  10.297  15.016   9.888 -0.0237 -0.3327 -0.0347
 2358PBP     CP89575  10.283  14.718   9.811  0.3940  0.1809  0.5030
 2358PBP     Ch89576  10.045  14.515   9.820  0.0008 -0.2223  0.0142
 2359PBP     C189577  15.773  11.494  13.498 -0.0346  0.0436  0.1766
 2359PBP     C189578  16.019  11.518  13.191  0.3237 -0.2229  0.0669
 2359PBP     C189579  16.254  11.819  13.252 -0.5719  0.3392  0.2916
 2359PBP     C189580  16.464  12.228  13.443 -0.2850 -0.0115 -0.2036
 2359PBP     C189581  16.247  12.299  13.881 -0.3786  0.2778 -0.1566
 2359PBP     C189582  15.778  12.217  13.997  0.0151  0.1804  0.0149
 2359PBP     C189583  15.534  11.902  14.307 -0.2804 -0.1888 -0.3800
 2359PBP     C189584  15.398  11.619  14.112 -0.3758 -0.1509 -0.3212
 2359PBP     CP89585  15.085  11.683  13.902  0.0915  0.0422 -0.1756
 2359PBP     CP89586  14.775  11.576  13.801 -0.2526 -0.1092  0.1192
 2359PBP     CP89587  14.619  11.314  13.699  0.1125  0.1950  0.0627
 2359PBP     Ch89588  14.462  11.109  13.662  0.3171  0.2018 -0.4046
 2360PBP     C189589  12.843  16.136  17.035  0.0417 -0.0592  0.2788
 2360PBP     C189590  13.420  16.114  16.939 -0.0227 -0.0969 -0.0103
 2360PBP     C189591  13.830  16.271  16.726 -0.2868 -0.1097  0.3198
 2360PBP     C189592  14.092  16.369  16.348 -0.0233 -0.0854  0.0576
 2360PBP     C189593  14.441  16.236  15.907 -0.1466 -0.5665  0.2181
 2360PBP     C189594  14.475  16.139  15.447  0.0427  0.1267  0.0904
 2360PBP     C189595  14.628  16.333  15.073 -0.1053  0.0561 -0.0880
 2360PBP     C189596  14.761  16.311  14.636 -0.0436  0.1600 -0.0628
 2360PBP     CP89597  14.477  16.184  14.406 -0.2695  0.0381  0.2644
 2360PBP     CP89598  14.207  16.053  14.247  0.4236  0.1102  0.2939
 2360PBP     CP89599  13.915  16.095  14.127  0.1292 -0.4205  0.0568
 2360PBP     Ch89600  13.659  16.050  13.993  0.2790 -0.0278  0.2425
 2361PBP     C189601  12.858  12.336   9.361  0.4874 -0.0761  0.4847
 2361PBP     C189602  12.462  12.407   9.165  0.1066  0.1059  0.1085
 2361PBP     C189603  12.184  12.733   8.806  0.1292 -0.4198  0.0921
 2361PBP     C189604  12.047  12.502   8.422 -0.4859  0.2834  0.0587
 2361PBP     C189605  11.944  12.424   8.056  0.0901 -0.4383  0.0824
 2361PBP     C189606  11.603  12.182   8.118  0.0923 -0.2308 -0.0295
 2361PBP     C189607  11.436  12.075   8.611  0.3492 -0.0782 -0.2324
 2361PBP     C189608  11.311  11.984   9.065  0.2875 -0.1653  0.2125
 2361PBP     CP89609  11.192  11.989   9.440  0.2076 -0.1541 -0.2146
 2361PBP     CP89610  11.122  11.859   9.718  0.0606  0.5143 -0.0480
 2361PBP     CP89611  11.193  11.539   9.757  0.0389 -0.0376  0.0041
 2361PBP     Ch89612  11.153  11.421   9.539 -0.1792  0.1108 -0.0859
 2362PBP     C189613   9.700  11.482  15.938  0.2314 -0.2720  0.1355
 2362PBP     C189614   9.572  11.646  15.510 -0.0075 -0.0201 -0.0735
 2362PBP     C189615   9.591  11.827  15.177  0.1400 -0.4414  0.1840
 2362PBP     C189616   9.933  11.930  14.952 -0.0652  0.5011  0.0102
 2362PBP     C189617   9.997  12.129  14.462 -0.2235  0.2848  0.0368
 2362PBP     C189618   9.741  12.396  14.158 -0.0244 -0.4292  0.0742
 2362PBP     C189619   9.444  12.774  14.114  0.0136  0.0060 -0.3319
 2362PBP     C189620   9.212  13.035  14.059 -0.1421  0.1626  0.1297
 2362PBP     CP89621   9.081  13.373  13.815  0.1887 -0.2663 -0.3919
 2362PBP     CP89622   9.201  13.637  13.663  0.5058  0.1672 -0.1830
 2362PBP     CP89623   9.015  13.894  13.614  0.1849 -0.5426  0.1689
 2362PBP     Ch89624   8.954  14.072  13.769 -0.5361  0.2129  0.0149
 2363PBP     C189625  15.261   7.209   9.078  0.6988  0.1937 -0.1678
 2363PBP     C189626  14.854   7.074   9.152  0.0549 -0.0452 -0.5961
 2363PBP     C189627  14.460   7.081   9.084  0.0267  0.0705  0.1674
 2363PBP     C189628  13.993   7.015   9.071  0.0890 -0.3555 -0.2608
 2363PBP     C189629  13.803   7.224   8.894 -0.0470  0.2553  0.0775
 2363PBP     C189630  13.534   7.496   8.935  0.0366 -0.0098 -0.0891
 2363PBP     C189631  13.215   7.786   8.823 -0.2097 -0.0689  0.2009
 2363PBP     C189632  12.779   7.865   8.924 -0.1196  0.1240 -0.1462
 2363PBP     CP89633  12.501   7.806   9.160  0.0554  0.4939  0.5945
 2363PBP     CP89634  12.290   7.984   9.275 -0.1003  0.0126 -0.1129
 2363PBP     CP89635  12.199   8.077   9.571 -0.0452 -0.1247 -0.3576
 2363PBP     Ch89636  12.320   8.367   9.681 -0.0358  0.1297  0.3372
 2364PBP     C189637  13.672   6.720  16.924 -0.1293 -0.1384 -0.0299
 2364PBP     C189638  13.748   6.880  16.580 -0.2568  0.0904  0.2890
 2364PBP     C189639  13.461   6.796  16.170 -0.2528  0.1824 -0.0014
 2364PBP     C189640  13.132   6.995  15.832 -0.0802 -0.2116 -0.1470
 2364PBP     C189641  12.791   7.051  15.653 -0.3567 -0.0578  0.0868
 2364PBP     C189642  12.571   7.169  15.328 -0.0087 -0.0656 -0.2490
 2364PBP     C189643  12.555   7.634  15.121 -0.2749  0.2882 -0.1649
 2364PBP     C189644  12.348   7.560  14.739 -0.0633  0.3243  0.0541
 2364PBP     CP89645  12.392   7.656  14.356 -0.2449  0.0874  0.2825
 2364PBP     CP89646  12.165   7.744  14.176 -0.1366  0.3053 -0.2272
 2364PBP     CP89647  12.105   7.822  13.898 -0.0213 -0.1279  0.0121
 2364PBP     Ch89648  12.098   7.961  13.692 -0.1999 -0.1988  0.2733
 2365PBP     C189649   3.370  11.150  10.684  0.0935 -0.2538  0.1140
 2365PBP     C189650   3.557  11.318  10.265  0.2709  0.1711  0.3248
 2365PBP     C189651   3.751  11.633  10.220  0.1962 -0.0990  0.4041
 2365PBP     C189652   3.916  11.927  10.431 -0.1421 -0.3391  0.5148
 2365PBP     C189653   4.068  12.186  10.660 -0.0272  0.0697  0.1325
 2365PBP     C189654   4.232  12.360  10.950 -0.3237  0.0132 -0.2988
 2365PBP     C189655   4.463  12.472  10.772  0.0623  0.0994 -0.3813
 2365PBP     C189656   4.685  12.227  10.442  0.2274  0.1187  0.2434
 2365PBP     CP89657   5.002  11.986  10.288 -0.0006  0.0124 -0.6851
 2365PBP     CP89658   5.109  11.724  10.124  0.5747 -0.1064  0.3375
 2365PBP     CP89659   5.331  11.654   9.939 -0.4104 -0.0808  0.0098
 2365PBP     Ch89660   5.457  11.492   9.788  0.0941  0.2700  0.0296
 2366PBP     C189661  14.037  11.368   8.119 -0.3338  0.0085 -0.1928
 2366PBP     C189662  13.607  11.386   8.350 -0.4319  0.2787 -0.1170
 2366PBP     C189663  13.429  11.411   8.655 -0.2052  0.0996 -0.0330
 2366PBP     C189664  13.115  11.411   9.088  0.0270 -0.2655 -0.1260
 2366PBP     C189665  12.627  11.229   9.045 -0.4682 -0.1953 -0.0827
 2366PBP     C189666  12.303  10.977   8.899 -0.0540  0.0555  0.2596
 2366PBP     C189667  11.885  10.995   8.996  0.0050  0.1882  0.1662
 2366PBP     C189668  11.753  11.193   9.337 -0.0101  0.3416  0.3661
 2366PBP     CP89669  11.623  11.582   9.434  0.2187  0.5395  0.6741
 2366PBP     CP89670  11.618  11.855   9.620  0.0772  0.0589  0.5642
 2366PBP     CP89671  11.838  11.989   9.789  0.0891  0.3392 -0.0787
 2366PBP     Ch89672  11.810  11.970  10.076 -0.5355 -0.0987 -0.2201
 2367PBP     C189673  14.152   5.885  16.197  0.1786  0.3152 -0.4846
 2367PBP     C189674  14.541   5.670  16.521 -0.0959 -0.3024 -0.1762
 2367PBP     C189675  14.401   5.297  16.679  0.4126 -0.0732 -0.2259
 2367PBP     C189676  14.426   4.966  16.472 -0.1646  0.0644  0.0313
 2367PBP     C189677  14.508   5.041  16.032 -0.1110 -0.0500 -0.2746
 2367PBP     C189678  14.537   5.217  15.721 -0.2173  0.0830  0.5431
 2367PBP     C189679  14.564   5.428  15.328  0.1968 -0.2904  0.3992
 2367PBP     C189680  14.461   5.911  15.055 -0.2145  0.1874  0.1195
 2367PBP     CP89681  14.353   6.285  14.857  0.3220  0.2009  0.2652
 2367PBP     CP89682  14.219   6.575  14.776 -0.2286  0.0214 -0.1079
 2367PBP     CP89683  13.943   6.686  14.811 -0.0078  0.2379  0.7530
 2367PBP     Ch89684  13.730   6.637  14.652  0.0691  0.3252 -0.2660
 2368PBP     C189685   9.811  12.845  16.382  0.1685 -0.3066  0.3041
 2368PBP     C189686   9.905  13.231  16.258 -0.0029 -0.0540  0.0406
 2368PBP     C189687   9.842  13.628  16.003  0.0879  0.0752 -0.1668
 2368PBP     C189688   9.488  13.782  15.882 -0.2455 -0.0273  0.0878
 2368PBP     C189689   9.406  14.062  15.477  0.2157  0.0770  0.0106
 2368PBP     C189690   9.433  14.438  15.193 -0.2935  0.0900 -0.1946
 2368PBP     C189691   9.836  14.865  15.052 -0.2141 -0.3635  0.1090
 2368PBP     C189692   9.928  15.292  14.854 -0.0631  0.2632  0.2271
 2368PBP     CP89693  10.070  15.601  14.626  0.1864 -0.0469 -0.3208
 2368PBP     CP89694  10.229  15.594  14.361  0.0580  0.2538 -0.2677
 2368PBP     CP89695  10.593  15.579  14.343 -0.1855  0.0547  0.1525
 2368PBP     Ch89696  10.832  15.578  14.457  0.0454  0.4306 -0.1807
 2369PBP     C189697  14.657  18.089  14.028 -0.2215 -0.3364  0.4607
 2369PBP     C189698  14.335  17.833  13.976  0.0472 -0.1537  0.4430
 2369PBP     C189699  14.279  17.571  13.571 -0.1006 -0.2323  0.0754
 2369PBP     C189700  14.007  17.293  13.361 -0.1402 -0.0765 -0.2725
 2369PBP     C189701  14.129  17.026  13.003  0.0568 -0.1329  0.1286
 2369PBP     C189702  13.841  17.086  12.473 -0.0258 -0.0346 -0.3684
 2369PBP     C189703  13.557  16.766  12.308  0.1140 -0.0553 -0.2757
 2369PBP     C189704  13.280  16.653  12.130  0.3022 -0.3737 -0.1546
 2369PBP     CP89705  13.322  16.755  11.730 -0.2276 -0.1892  0.2202
 2369PBP     CP89706  13.052  16.848  11.568  0.2495  0.4386 -0.0988
 2369PBP     CP89707  12.824  16.784  11.280  0.0701  0.2125 -0.0566
 2369PBP     Ch89708  12.824  16.929  11.039  0.3008  0.0732  0.5486
 2370PBP     C189709  13.314  16.622  10.493  0.0948  0.1022 -0.4797
 2370PBP     C189710  13.488  16.332  10.276  0.0444 -0.0099  0.2145
 2370PBP     C189711  13.274  16.081  10.029 -0.2600 -0.1629 -0.2626
 2370PBP     C189712  13.059  15.823   9.758  0.1611 -0.1058 -0.0054
 2370PBP     C189713  12.927  15.655   9.433  0.2009 -0.2261  0.3506
 2370PBP     C189714  13.123  15.280   9.702  0.1570  0.1970  0.0221
 2370PBP     C189715  13.418  15.055  10.090 -0.5054 -0.0381 -0.0549
 2370PBP     C189716  13.617  15.006  10.380 -0.2018 -0.0796  0.3898
 2370PBP     CP89717  13.742  15.259  10.642  0.0947 -0.4930 -0.2817
 2370PBP     CP89718  13.639  15.566  10.658 -0.5361 -0.2857 -0.0856
 2370PBP     CP89719  13.495  15.717  10.867 -0.1032  0.3548  0.1547
 2370PBP     Ch89720  13.409  15.699  11.074  0.6261  0.0301  0.0286
 2371PBP     C189721  12.420   7.062  16.357 -0.1104  0.2412 -0.2860
 2371PBP     C189722  12.343   6.859  15.915  0.1243  0.1920 -0.3052
 2371PBP     C189723  12.303   6.804  15.524  0.2030 -0.1979 -0.0620
 2371PBP     C189724  12.239   6.765  15.009  0.2627  0.2157  0.0109
 2371PBP     C189725  11.894   6.611  14.731 -0.1209 -0.2665  0.1132
 2371PBP     C189726  11.626   6.522  14.367 -0.1068  0.1664 -0.1836
 2371PBP     C189727  11.551   6.713  14.014  0.3799 -0.5417  0.1563
 2371PBP     C189728  11.294   6.554  13.783 -0.4008 -0.1569 -0.0396
 2371PBP     CP89729  11.054   6.559  13.555  0.0488 -0.2226 -0.0923
 2371PBP     CP89730  10.704   6.600  13.569 -0.0381 -0.0145  0.0908
 2371PBP     CP89731  10.476   6.816  13.521  0.2750 -0.5787  0.1950
 2371PBP     Ch89732  10.475   7.086  13.547 -0.2183 -0.1390 -0.0002
 2372PBP     C189733   7.940  11.758  15.295  0.0399  0.3600 -0.2867
 2372PBP     C189734   7.779  12.192  15.247  0.2972  0.1422 -0.2157
 2372PBP     C189735   8.003  12.555  15.153 -0.0131 -0.1331 -0.3085
 2372PBP     C189736   8.397  12.687  14.928  0.0588 -0.3448  0.0312
 2372PBP     C189737   8.710  13.052  14.810 -0.0199 -0.0798 -0.2732
 2372PBP     C189738   8.955  13.206  14.470  0.6281 -0.1523  0.0521
 2372PBP     C189739   8.720  13.411  14.232 -0.2499  0.2686 -0.2473
 2372PBP     C189740   8.316  13.399  13.928  0.0808  0.0968  0.1265
 2372PBP     CP89741   8.405  13.653  13.646  0.0105 -0.2766 -0.1425
 2372PBP     CP89742   8.487  13.891  13.428 -0.2312  0.1851  0.1181
 2372PBP     CP89743   8.554  14.161  13.499 -0.1916 -0.2045  0.0099
 2372PBP     Ch89744   8.687  14.354  13.553 -0.2476 -0.0690 -0.2042
 2373PBP     C189745  10.015  10.990  14.435 -0.1425 -0.0123 -0.0284
 2373PBP     C189746  10.408  10.758  14.676  0.6334 -0.0876 -0.2534
 2373PBP     C189747  10.440  10.486  14.988 -0.4221  0.3216 -0.0040
 2373PBP     C189748  10.605  10.047  15.129 -0.1118 -0.1217 -0.0588
 2373PBP     C189749  10.918   9.949  15.048 -0.1164  0.1397 -0.0462
 2373PBP     C189750  11.278   9.896  14.992  0.0104 -0.0303 -0.0105
 2373PBP     C189751  11.725   9.921  14.929  0.1416  0.1787  0.0818
 2373PBP     C189752  12.132   9.916  14.771 -0.3672 -0.4150  0.1422
 2373PBP     CP89753  12.203  10.036  14.414  0.0990 -0.1677 -0.5087
 2373PBP     CP89754  12.062  10.062  14.130  0.7953 -0.0563 -0.3581
 2373PBP     CP89755  11.745  10.133  13.980  0.4075 -0.1064  0.0743
 2373PBP     Ch89756  11.546  10.136  13.873 -0.3347  0.5035  0.3385
 2374PBP     C189757   9.948  14.328   8.278 -0.4732 -0.2029 -0.2399
 2374PBP     C189758  10.234  14.547   7.961  0.0590  0.2022 -0.4075
 2374PBP     C189759  10.689  14.673   8.169  0.1352  0.3433  0.0581
 2374PBP     C189760  11.108  14.795   8.489 -0.1246 -0.3673 -0.0946
 2374PBP     C189761  11.304  14.880   8.890 -0.0722  0.2468 -0.2497
 2374PBP     C189762  11.541  15.064   9.128  0.0498  0.0680  0.1438
 2374PBP     C189763  11.632  15.286   9.523 -0.1878  0.4131  0.0017
 2374PBP     C189764  11.567  15.458   9.858 -0.4128  0.1511 -0.1468
 2374PBP     CP89765  11.449  15.303  10.176 -0.0585 -0.0931 -0.6880
 2374PBP     CP89766  11.268  15.080  10.275 -0.0299  0.2723 -0.1853
 2374PBP     CP89767  11.278  14.766  10.217  0.2998 -0.3400  0.2263
 2374PBP     Ch89768  11.192  14.587  10.039 -0.0662 -0.1833 -0.3685
 2375PBP     C189769  13.506  13.702   7.808  0.2625 -0.1725  0.2178
 2375PBP     C189770  13.196  13.701   7.976 -0.2110 -0.1315 -0.2705
 2375PBP     C189771  12.819  13.556   8.238  0.0465 -0.4759 -0.0327
 2375PBP     C189772  12.565  13.692   8.620 -0.0980  0.2327  0.2341
 2375PBP     C189773  12.239  13.726   9.031  0.3912 -0.4012  0.3170
 2375PBP     C189774  12.134  13.409   9.372 -0.1550  0.4220  0.0796
 2375PBP     C189775  11.921  13.301   9.702 -0.1703  0.2445  0.2339
 2375PBP     C189776  11.779  12.994   9.775 -0.3055 -0.1147 -0.0802
 2375PBP     CP89777  11.811  12.713  10.036 -0.3959 -0.1848  0.3055
 2375PBP     CP89778  11.648  12.423  10.058  0.3242  0.5606  0.5557
 2375PBP     CP89779  11.356  12.260   9.837 -0.2990 -0.1615 -0.5769
 2375PBP     Ch89780  11.076  12.307   9.884  0.3698 -0.2076  0.2606
 2376PBP     C189781   8.744   3.289  10.472 -0.1530 -0.1760  0.1776
 2376PBP     C189782   8.941   3.130  10.775  0.0839  0.3550 -0.3927
 2376PBP     C189783   8.822   3.085  11.157 -0.2358  0.0743  0.1699
 2376PBP     C189784   9.004   3.254  11.616  0.1002 -0.0371  0.0625
 2376PBP     C189785   9.172   3.373  12.030 -0.0951  0.1024 -0.0247
 2376PBP     C189786   9.407   3.577  12.245  0.1212  0.0474  0.0936
 2376PBP     C189787   9.661   3.879  12.265  0.0141 -0.1961 -0.5366
 2376PBP     C189788   9.661   4.286  11.966 -0.1952  0.2681 -0.1487
 2376PBP     CP89789   9.941   4.432  11.700  0.1518  0.4351 -0.2931
 2376PBP     CP89790  10.076   4.594  11.465  0.2030 -0.0070 -0.2470
 2376PBP     CP89791   9.993   4.782  11.204 -0.2690  0.2157  0.3679
 2376PBP     Ch89792   9.955   4.582  10.997 -0.4829  0.1041  0.4480
 2377PBP     C189793  14.169  13.902   7.623 -0.4952 -0.0697 -0.1536
 2377PBP     C189794  14.268  13.686   8.044 -0.1133 -0.0614  0.0439
 2377PBP     C189795  13.984  13.846   8.459  0.2278 -0.2694  0.0416
 2377PBP     C189796  13.790  13.482   8.809 -0.0792 -0.0756 -0.4494
 2377PBP     C189797  13.968  13.232   9.226 -0.0549 -0.0885  0.1058
 2377PBP     C189798  13.926  13.080   9.557 -0.4189 -0.2334 -0.0681
 2377PBP     C189799  13.868  12.862   9.897  0.0564  0.5230 -0.2469
 2377PBP     C189800  13.758  12.829  10.287  0.2596 -0.1497  0.2488
 2377PBP     CP89801  13.823  12.648  10.608  0.1565 -0.1837  0.0623
 2377PBP     CP89802  14.003  12.582  10.873 -0.1300 -0.0484 -0.1279
 2377PBP     CP89803  14.284  12.425  10.856 -0.0582  0.1787 -0.4845
 2377PBP     Ch89804  14.300  12.191  10.891  0.1717  0.0995  0.3036
 2378PBP     C189805   7.341  15.781  15.745  0.5238  0.0048  0.0404
 2378PBP     C189806   7.171  15.391  15.916 -0.0382 -0.3075 -0.0611
 2378PBP     C189807   6.996  15.144  15.603 -0.0285 -0.1240 -0.0518
 2378PBP     C189808   6.616  14.923  15.316 -0.0313 -0.2344  0.0576
 2378PBP     C189809   6.422  14.834  14.958 -0.2728 -0.2642  0.0104
 2378PBP     C189810   6.564  14.523  14.605 -0.3265  0.1400 -0.2543
 2378PBP     C189811   6.693  14.440  14.243  0.2611 -0.0641  0.1752
 2378PBP     C189812   6.587  14.483  13.774  0.1205 -0.0789  0.2740
 2378PBP     CP89813   6.804  14.303  13.487 -0.2136  0.0432 -0.4499
 2378PBP     CP89814   6.655  14.249  13.246 -0.0796 -0.7794  0.3995
 2378PBP     CP89815   6.754  14.052  12.942 -0.0271 -0.1187  0.3055
 2378PBP     Ch89816   6.546  13.838  12.856 -0.3904  0.1598  0.3908
 2379PBP     C189817  11.196   6.355  14.215  0.2617 -0.1328 -0.1846
 2379PBP     C189818  11.126   6.877  14.425  0.0115  0.3031 -0.0204
 2379PBP     C189819  10.931   7.290  14.228  0.1033 -0.1596  0.0940
 2379PBP     C189820  10.563   7.320  14.087 -0.0310  0.0824 -0.2245
 2379PBP     C189821  10.181   7.175  13.864 -0.1709  0.1282 -0.1414
 2379PBP     C189822  10.140   7.476  13.651 -0.1299  0.7320 -0.3352
 2379PBP     C189823   9.898   7.699  13.459 -0.1617  0.0936  0.4406
 2379PBP     C189824   9.612   7.591  13.281 -0.2628  0.4002 -0.0106
 2379PBP     CP89825   9.508   7.688  12.880 -0.2686  0.0109  0.1751
 2379PBP     CP89826   9.203   7.698  12.715 -0.3600  0.1785  0.1359
 2379PBP     CP89827   8.900   7.645  12.757 -0.0798 -0.2958 -0.3395
 2379PBP     Ch89828   8.638   7.630  12.583 -0.1825 -0.2561  0.6180
 2380PBP     C189829   7.578   7.506  15.188  0.7378 -0.2493  0.2210
 2380PBP     C189830   7.950   7.739  14.902 -0.0434 -0.2430  0.3243
 2380PBP     C189831   8.047   7.841  14.436 -0.0252 -0.1651  0.1185
 2380PBP     C189832   7.910   8.212  14.220 -0.0895 -0.1089 -0.4332
 2380PBP     C189833   7.859   8.474  13.945  0.2372 -0.0704 -0.3070
 2380PBP     C189834   7.711   8.777  13.540  0.1377 -0.4208  0.2027
 2380PBP     C189835   7.692   8.872  13.139  0.0560 -0.1857 -0.2513
 2380PBP     C189836   8.177   8.949  12.965  0.2257 -0.1602 -0.1857
 2380PBP     CP89837   8.465   8.861  12.676  0.2957 -0.3885 -0.1888
 2380PBP     CP89838   8.614   8.518  12.597 -0.3317 -0.1160 -0.0598
 2380PBP     CP89839   8.740   8.259  12.742 -0.0221 -0.0280 -0.0872
 2380PBP     Ch89840   8.908   8.084  12.673  0.1597 -0.0885  0.2349
 2381PBP     C189841   3.822   7.253   6.996 -0.1027 -0.1190 -0.1243
 2381PBP     C189842   4.101   7.689   7.308  0.2284 -0.2971  0.0238
 2381PBP     C189843   4.304   8.096   7.418 -0.0402  0.2845 -0.2258
 2381PBP     C189844   4.548   8.298   7.624  0.1655 -0.0558  0.0316
 2381PBP     C189845   4.875   8.581   7.928 -0.0929  0.1493 -0.0566
 2381PBP     C189846   5.010   8.913   8.364  0.1852 -0.3627 -0.1729
 2381PBP     C189847   5.165   9.232   8.566 -0.1596 -0.2230  0.1371
 2381PBP     C189848   5.320   9.749   8.716  0.0997 -0.2744 -0.3297
 2381PBP     CP89849   5.581  10.007   8.786  0.0672  0.1898 -0.0728
 2381PBP     CP89850   5.588  10.331   8.755 -0.2190  0.2161 -0.1589
 2381PBP     CP89851   5.708  10.535   8.494  0.3785  0.1251 -0.2725
 2381PBP     Ch89852   5.828  10.654   8.329  0.2277 -0.2990  0.2768
 2382PBP     C189853  13.992  16.447   7.703  0.0343 -0.2520 -0.0792
 2382PBP     C189854  13.827  16.379   8.172 -0.3034 -0.1314  0.2109
 2382PBP     C189855  13.565  16.100   8.500 -0.2057 -0.0647  0.2261
 2382PBP     C189856  13.251  15.833   8.676 -0.2516  0.2229  0.2674
 2382PBP     C189857  13.114  15.668   9.030 -0.1270 -0.0717  0.0076
 2382PBP     C189858  12.858  15.338   9.029 -0.0957 -0.2680  0.0128
 2382PBP     C189859  12.963  15.010   9.347 -0.0578 -0.3611 -0.1002
 2382PBP     C189860  12.863  14.774   9.758  0.2636  0.0587  0.0836
 2382PBP     CP89861  12.978  14.852  10.133 -0.0941  0.0838  0.2460
 2382PBP     CP89862  13.057  15.043  10.393  0.2287  0.3874 -0.3228
 2382PBP     CP89863  12.923  15.234  10.630 -0.1556 -0.7372 -0.0924
 2382PBP     Ch89864  12.719  15.167  10.799 -0.1535 -0.2779 -0.1235
 2383PBP     C189865   4.389  16.177   8.312 -0.0690 -0.1157  0.1305
 2383PBP     C189866   4.154  16.241   8.719  0.1715 -0.2726  0.2222
 2383PBP     C189867   4.368  16.219   9.158  0.0153 -0.0275  0.0382
 2383PBP     C189868   4.641  15.944   9.461 -0.1193 -0.1287  0.1811
 2383PBP     C189869   4.749  15.571   9.440 -0.0021  0.0874 -0.2822
 2383PBP     C189870   4.875  15.152   9.463 -0.3740  0.1362 -0.0711
 2383PBP     C189871   5.031  14.751   9.361  0.2518 -0.1341  0.0728
 2383PBP     C189872   5.035  14.417   9.082  0.5875  0.0314 -0.0986
 2383PBP     CP89873   5.315  14.300   8.801 -0.3853 -0.4199 -0.5469
 2383PBP     CP89874   5.454  14.093   8.557  0.6490  0.0186 -0.1235
 2383PBP     CP89875   5.559  13.803   8.485  0.5533  0.0017 -0.1327
 2383PBP     Ch89876   5.785  13.681   8.462 -0.0012 -0.5499 -0.3401
 2384PBP     C189877  17.421  15.763  14.088  0.2262 -0.3438 -0.1243
 2384PBP     C189878  17.083  15.942  14.401 -0.0770  0.1796 -0.3215
 2384PBP     C189879  16.685  16.252  14.388  0.1565  0.1322  0.2275
 2384PBP     C189880  16.320  16.254  14.482 -0.4242 -0.3343  0.3704
 2384PBP     C189881  15.859  16.163  14.408 -0.1735  0.1170  0.1834
 2384PBP     C189882  15.611  15.949  14.249 -0.1326  0.0006 -0.5960
 2384PBP     C189883  15.500  15.657  13.956  0.2801 -0.2107 -0.2155
 2384PBP     C189884  15.361  15.555  13.540 -0.0424 -0.3905  0.0779
 2384PBP     CP89885  15.327  15.569  13.139  0.3617  0.2006  0.3032
 2384PBP     CP89886  15.123  15.680  12.984  0.2541 -0.2649  0.6057
 2384PBP     CP89887  15.003  15.971  13.009 -0.0498  0.4083 -0.1265
 2384PBP     Ch89888  14.713  15.961  12.959 -1.0141 -0.1797  0.5848
 2385PBP     C189889   8.776   5.591  14.963 -0.0953  0.1786 -0.1116
 2385PBP     C189890   8.927   5.463  14.532  0.0446  0.2074 -0.2140
 2385PBP     C189891   8.930   5.403  14.168 -0.2381 -0.3716  0.1657
 2385PBP     C189892   8.736   5.529  13.815  0.1184 -0.0252  0.2467
 2385PBP     C189893   8.566   5.945  13.817  0.0112  0.0312  0.0227
 2385PBP     C189894   8.907   6.266  13.926  0.2213  0.1654 -0.1090
 2385PBP     C189895   8.869   6.637  13.724 -0.2568 -0.1105  0.1775
 2385PBP     C189896   8.749   6.953  13.372  0.0667  0.1554  0.2959
 2385PBP     CP89897   8.863   7.041  13.060 -0.0012 -0.1554 -0.1889
 2385PBP     CP89898   9.032   7.257  13.017 -0.0337 -0.0606 -0.3149
 2385PBP     CP89899   9.368   7.295  12.839  0.0657 -0.2237  0.5290
 2385PBP     Ch89900   9.647   7.238  12.871  0.2943 -0.6265  0.1284
 2386PBP     C189901   9.213  18.022  11.123  0.2287 -0.0333 -0.1274
 2386PBP     C189902   9.515  18.054  10.989 -0.1173  0.2168 -0.1815
 2386PBP     C189903   9.803  17.784  10.843 -0.0490  0.0934 -0.2518
 2386PBP     C189904   9.750  17.397  10.592 -0.0590  0.1272 -0.2288
 2386PBP     C189905   9.897  16.955  10.538  0.2048 -0.0646  0.1689
 2386PBP     C189906   9.803  16.736  10.797  0.1164 -0.0000  0.4862
 2386PBP     C189907   9.588  16.335  10.962 -0.4088 -0.3896  0.0533
 2386PBP     C189908   9.646  16.066  11.328 -0.2813 -0.2842  0.2203
 2386PBP     CP89909   9.825  15.675  11.323 -0.3569  0.0864 -0.3643
 2386PBP     CP89910   9.925  15.441  11.259 -0.3127 -0.5230  0.0177
 2386PBP     CP89911  10.132  15.260  11.348  0.0840 -0.2500  0.1595
 2386PBP     Ch89912  10.239  15.017  11.296 -0.4155  0.1107  0.3336
 2387PBP     C189913  11.962  12.919   9.254  0.1654 -0.0402  0.0928
 2387PBP     C189914  12.163  13.206   8.968 -0.1193 -0.4322  0.2709
 2387PBP     C189915  12.035  13.563   8.619 -0.2606 -0.2293 -0.1033
 2387PBP     C189916  11.728  13.619   8.400  0.1163 -0.2724 -0.3135
 2387PBP     C189917  11.337  13.837   8.640 -0.0880  0.0813 -0.2242
 2387PBP     C189918  11.028  14.093   8.738  0.2429 -0.2770  0.2561
 2387PBP     C189919  10.793  13.875   9.020 -0.1256  0.1704  0.0977
 2387PBP     C189920  10.614  13.663   9.384 -0.1493  0.0570 -0.0444
 2387PBP     CP89921  10.358  13.588   9.563  0.6582  0.1983  0.4052
 2387PBP     CP89922  10.115  13.644   9.689 -0.2461 -0.1352 -0.0408
 2387PBP     CP89923   9.814  13.577   9.621 -0.0905 -0.0382 -0.1737
 2387PBP     Ch89924   9.738  13.658   9.413 -0.1103 -0.4195  0.0034
 2388PBP     C189925   6.898  10.957   5.503  0.1535  0.1211  0.2633
 2388PBP     C189926   6.726  10.767   5.840 -0.5882  0.9441 -0.0269
 2388PBP     C189927   6.496  10.682   6.254  0.0537  0.2300 -0.1505
 2388PBP     C189928   6.327  10.920   6.526 -0.4169  0.1263 -0.3883
 2388PBP     C189929   6.562  11.056   6.736 -0.4441  0.1868 -0.1653
 2388PBP     C189930   6.970  10.987   7.094  0.0971 -0.0116  0.1237
 2388PBP     C189931   7.260  10.486   7.177 -0.0592 -0.5422 -0.4388
 2388PBP     C189932   7.126  10.207   7.605 -0.0341 -0.3881 -0.1238
 2388PBP     CP89933   7.241  10.269   7.956  0.0653 -0.5252  0.0552
 2388PBP     CP89934   6.977  10.186   8.136  0.1626 -0.7578  0.0258
 2388PBP     CP89935   6.770   9.956   8.090 -0.2298 -0.2197 -0.2472
 2388PBP     Ch89936   6.626   9.718   8.023 -0.2437  0.6032  0.0416
 2389PBP     C189937   2.948  10.731  13.486 -0.3797  0.3718  0.4094
 2389PBP     C189938   3.179  11.063  13.477  0.2731 -0.1782 -0.1880
 2389PBP     C189939   3.467  11.484  13.305 -0.0793 -0.2536  0.2055
 2389PBP     C189940   3.803  11.815  13.345  0.0973 -0.1413 -0.0459
 2389PBP     C189941   4.184  11.971  13.150  0.1396 -0.1708  0.1320
 2389PBP     C189942   4.577  11.917  13.109 -0.0262 -0.2754 -0.2159
 2389PBP     C189943   4.792  12.200  12.849  0.0800 -0.3130 -0.5067
 2389PBP     C189944   5.088  12.277  12.565 -0.1198  0.3557 -0.6828
 2389PBP     CP89945   5.275  12.437  12.290  0.2098  0.0669  0.2386
 2389PBP     CP89946   5.142  12.731  12.246  0.2074  0.2758  0.1561
 2389PBP     CP89947   5.258  13.005  12.423 -0.2039 -0.2809 -0.1510
 2389PBP     Ch89948   5.398  13.050  12.636  0.3241  0.1684 -0.1012
 2390PBP     C189949  14.016  17.135  15.369  0.5889 -0.2278  0.2591
 2390PBP     C189950  13.684  17.346  14.973  0.0212 -0.3223 -0.1175
 2390PBP     C189951  13.507  17.602  14.584 -0.1262 -0.2822  0.1560
 2390PBP     C189952  13.346  17.520  14.167  0.0843  0.2022 -0.0885
 2390PBP     C189953  13.253  17.192  13.900  0.1511 -0.0870 -0.3339
 2390PBP     C189954  13.129  16.866  13.721 -0.4725 -0.2934  0.1809
 2390PBP     C189955  12.862  16.504  13.801 -0.1243  0.0935  0.0076
 2390PBP     C189956  12.764  16.198  13.642  0.0081  0.0014  0.3397
 2390PBP     CP89957  12.641  15.792  13.665  0.0164 -0.1157 -0.1800
 2390PBP     CP89958  12.557  15.486  13.582  0.3773 -0.1360 -0.0458
 2390PBP     CP89959  12.739  15.155  13.589  0.2331 -0.1013 -0.2635
 2390PBP     Ch89960  12.885  14.977  13.615  0.0079  0.0416  0.1628
 2391PBP     C189961   9.833   3.889   7.729 -0.2508 -0.0967  0.0622
 2391PBP     C189962   9.415   4.097   7.783 -0.1281  0.0622 -0.0678
 2391PBP     C189963   8.934   4.038   7.727  0.1436 -0.2738 -0.0150
 2391PBP     C189964   8.579   4.162   7.780 -0.2977 -0.0801 -0.4730
 2391PBP     C189965   8.316   4.319   8.099 -0.2699 -0.2624  0.0708
 2391PBP     C189966   8.321   4.370   8.572 -0.0912 -0.0018  0.2327
 2391PBP     C189967   8.548   4.807   8.831  0.1047  0.2399  0.0069
 2391PBP     C189968   8.528   4.959   9.212  0.0673 -0.1423 -0.3547
 2391PBP     CP89969   8.657   5.351   9.426 -0.1723  0.4115 -0.5427
 2391PBP     CP89970   8.629   5.652   9.513  0.2618 -0.1619 -0.1728
 2391PBP     CP89971   8.807   5.902   9.604  0.2830  0.3509 -0.1953
 2391PBP     Ch89972   8.864   6.165   9.628  0.3945  0.0716  0.2382
 2392PBP     C189973   4.916   4.010   9.667  0.4503  0.2970 -0.2760
 2392PBP     C189974   4.549   4.325   9.704 -0.1986 -0.2291 -0.1484
 2392PBP     C189975   4.637   4.726   9.569 -0.3955  0.0418  0.1747
 2392PBP     C189976   4.798   5.266   9.824 -0.0978  0.4013  0.0526
 2392PBP     C189977   5.163   5.568  10.072 -0.3710 -0.3880 -0.2518
 2392PBP     C189978   5.376   5.876   9.718  0.1194  0.2148 -0.2513
 2392PBP     C189979   5.722   6.089   9.518 -0.0915 -0.0811  0.0157
 2392PBP     C189980   5.950   6.244   9.362 -0.1221  0.0445 -0.0879
 2392PBP     CP89981   5.872   6.582   9.221 -0.2296 -0.0045  0.3922
 2392PBP     CP89982   5.950   6.837   8.966  0.4614  0.7413 -0.2496
 2392PBP     CP89983   6.200   7.010   8.992  0.1271  0.1864  0.3206
 2392PBP     Ch89984   6.420   7.090   9.025 -0.1057 -0.2464 -0.2423
 2393PBP     C189985  12.745   7.320  16.074 -0.2695  0.2465 -0.0855
 2393PBP     C189986  12.385   7.381  15.724 -0.2397 -0.0494  0.5649
 2393PBP     C189987  12.081   7.524  15.530  0.1458  0.0528 -0.1363
 2393PBP     C189988  11.745   7.473  15.319  0.1209 -0.1559 -0.1125
 2393PBP     C189989  11.469   7.931  15.269  0.2465  0.5215  0.1825
 2393PBP     C189990  11.148   8.077  14.847 -0.1607  0.0762  0.1106
 2393PBP     C189991  10.850   8.137  14.568 -0.0775  0.2712  0.1017
 2393PBP     C189992  10.684   8.464  14.331 -0.1437  0.0057  0.1017
 2393PBP     CP89993  10.657   8.480  13.910  0.1386 -0.2197  0.0910
 2393PBP     CP89994  10.603   8.529  13.570 -0.1264 -0.3352  0.2159
 2393PBP     CP89995  10.740   8.756  13.392 -0.2267  0.1281 -0.0733
 2393PBP     Ch89996  10.993   8.704  13.452 -0.2044  0.2182 -0.3341
 2394PBP     C189997  10.381  16.059  14.077 -0.2083  0.1493 -0.2463
 2394PBP     C189998  10.655  16.413  14.074 -0.2653  0.0624  0.5772
 2394PBP     C189999  11.052  16.519  14.036  0.2221  0.1149 -0.2415
 2394PBP     C190000  11.450  16.489  14.180  0.3823 -0.1956 -0.0995
 2394PBP     C190001  11.738  16.581  14.459  0.0324 -0.2069  0.1950
 2394PBP     C190002  12.032  16.185  14.429 -0.0351  0.2807 -0.1470
 2394PBP     C190003  12.320  15.915  14.806  0.0775  0.0988  0.0154
 2394PBP     C190004  12.277  15.472  15.161 -0.0780  0.0234  0.2169
 2394PBP     CP90005  12.215  15.057  15.048  0.0472  0.5994 -0.3383
 2394PBP     CP90006  12.149  14.780  14.824 -0.1295 -0.7249 -0.5125
 2394PBP     CP90007  11.937  14.625  14.696 -0.0310 -0.5925 -0.0658
 2394PBP     Ch90008  11.685  14.614  14.631 -0.3557 -0.0103 -0.2061
 2395PBP     C190009  12.685   4.175  14.756  0.0083  0.3052  0.0077
 2395PBP     C190010  12.903   4.227  15.231  0.2132  0.4264 -0.1940
 2395PBP     C190011  13.292   4.527  15.395  0.0700 -0.1859 -0.0090
 2395PBP     C190012  13.416   4.763  15.757 -0.1389  0.0859  0.3173
 2395PBP     C190013  13.729   4.962  15.681 -0.4573  0.1964  0.1814
 2395PBP     C190014  13.648   5.333  15.582  0.4580  0.1945 -0.0879
 2395PBP     C190015  13.690   5.734  15.317  0.1331  0.3461 -0.1321
 2395PBP     C190016  13.968   5.677  14.959 -0.1075  0.2690  0.3807
 2395PBP     CP90017  13.986   5.848  14.597 -0.7229  0.1004 -0.4675
 2395PBP     CP90018  13.753   6.011  14.442 -0.2696 -0.2844  0.2495
 2395PBP     CP90019  13.792   6.315  14.347 -0.0462  0.2857  0.2216
 2395PBP     Ch90020  13.764   6.280  14.054 -0.0087 -0.1013 -0.6743
 2396PBP     C190021  18.130   7.843   8.518 -0.4016 -0.2354  0.0516
 2396PBP     C190022  17.849   7.645   8.688 -0.0551  0.3099 -0.0904
 2396PBP     C190023  17.429   7.485   8.459 -0.4399 -0.3879 -0.1553
 2396PBP     C190024  17.003   7.480   8.471 -0.0638 -0.1429 -0.6536
 2396PBP     C190025  16.508   7.388   8.461  0.1080 -0.1963 -0.2855
 2396PBP     C190026  16.141   7.351   8.762 -0.4617  0.0797 -0.0946
 2396PBP     C190027  15.966   7.295   9.196  0.2070 -0.0773  0.1102
 2396PBP     C190028  15.667   7.357   9.564  0.0276 -0.1768 -0.0420
 2396PBP     CP90029  15.527   7.228   9.927  0.1166 -0.6652  0.5234
 2396PBP     CP90030  15.344   6.985  10.032 -0.0736 -0.2110  0.1597
 2396PBP     CP90031  15.070   6.949  10.051 -0.0542 -0.3293 -0.1859
 2396PBP     Ch90032  15.005   6.868  10.331  0.2985  0.5467 -0.2180
 2397PBP     C190033  11.291   9.499   8.472 -0.1970 -0.0795  0.4816
 2397PBP     C190034  11.537   9.855   8.542  0.0041 -0.1237 -0.1048
 2397PBP     C190035  11.659  10.281   8.612 -0.0142 -0.3020  0.1948
 2397PBP     C190036  11.574  10.677   8.680  0.0575 -0.4467  0.4732
 2397PBP     C190037  11.586  11.213   8.664  0.2637 -0.1945 -0.2021
 2397PBP     C190038  11.332  11.462   8.910 -0.2353  0.3519  0.1955
 2397PBP     C190039  11.006  11.578   9.083  0.0624 -0.1176 -0.2978
 2397PBP     C190040  10.758  12.058   9.217 -0.0008 -0.0442  0.2178
 2397PBP     CP90041  10.714  12.056   9.606 -0.1612  0.0607 -0.1348
 2397PBP     CP90042  10.608  12.319   9.747 -0.4753 -0.0134  0.4334
 2397PBP     CP90043  10.409  12.567   9.620 -0.2575  0.1855 -0.1187
 2397PBP     Ch90044  10.263  12.727   9.714 -0.2250 -0.0330 -0.0283
 2398PBP     C190045   5.371  14.117  14.352 -0.1267 -0.2711  0.0784
 2398PBP     C190046   5.797  13.985  14.555  0.1039 -0.1803 -0.1946
 2398PBP     C190047   6.271  13.952  14.514  0.3899 -0.2458 -0.4717
 2398PBP     C190048   6.679  13.744  14.792  0.1544  0.1606 -0.0271
 2398PBP     C190049   6.998  13.466  14.586 -0.3804 -0.1777  0.2386
 2398PBP     C190050   7.315  13.122  14.402 -0.0707 -0.1464  0.1237
 2398PBP     C190051   7.539  12.903  14.107  0.0631 -0.0120  0.0734
 2398PBP     C190052   7.928  12.979  13.968 -0.0293 -0.2314  0.1926
 2398PBP     CP90053   8.232  12.757  13.745 -0.0052 -0.0798 -0.1843
 2398PBP     CP90054   8.491  12.578  13.725 -0.0302 -0.1155 -0.0566
 2398PBP     CP90055   8.752  12.552  13.520 -0.0191  0.1239  0.0560
 2398PBP     Ch90056   8.831  12.558  13.277 -0.6058 -0.1544 -0.2367
 2399PBP     C190057  10.670  17.409   8.612  0.2990  0.3269 -0.1031
 2399PBP     C190058  10.267  17.195   8.524  0.2973 -0.5566  0.1361
 2399PBP     C190059   9.802  16.903   8.534  0.3437  0.1477  0.2186
 2399PBP     C190060   9.367  16.677   8.597 -0.2961  0.0961 -0.6369
 2399PBP     C190061   9.011  16.593   8.493 -0.1222  0.0101  0.2072
 2399PBP     C190062   8.474  16.456   8.440 -0.1771 -0.2241 -0.0325
 2399PBP     C190063   8.409  16.087   8.794 -0.0521 -0.2930 -0.0052
 2399PBP     C190064   8.402  15.768   8.991 -0.1610 -0.0480 -0.0201
 2399PBP     CP90065   8.524  15.526   9.338  0.4270 -0.1281 -0.2244
 2399PBP     CP90066   8.541  15.196   9.382  0.0093  0.0688  0.4073
 2399PBP     CP90067   8.477  14.925   9.288 -0.0938 -0.2162 -0.1010
 2399PBP     Ch90068   8.293  14.761   9.333  0.4570 -0.0980 -0.3680
 2400PBP     C190069   3.052  13.869   9.410  0.1634  0.1038 -0.2425
 2400PBP     C190070   3.418  13.900   9.578  0.0439 -0.1822  0.0173
 2400PBP     C190071   3.739  13.859   9.664 -0.0777 -0.4162 -0.2419
 2400PBP     C190072   4.180  13.683   9.783 -0.2546 -0.1724 -0.0547
 2400PBP     C190073   4.508  13.421   9.607 -0.3581  0.0766  0.4177
 2400PBP     C190074   4.832  13.208   9.662  0.1000  0.1891  0.0732
 2400PBP     C190075   5.186  12.984   9.622 -0.1256  0.0864  0.0761
 2400PBP     C190076   5.582  12.968   9.601  0.1418 -0.0288 -0.0457
 2400PBP     CP90077   5.954  12.863   9.739 -0.0135  0.0507  0.3781
 2400PBP     CP90078   6.180  12.593   9.751 -0.1692 -0.0292  0.7085
 2400PBP     CP90079   6.497  12.466   9.784  0.2859  0.0032  0.0676
 2400PBP     Ch90080   6.749  12.566   9.898 -0.0166 -0.1696  0.4238
 2401PBP     C190081  10.413   3.176   7.292  0.3634 -0.2199 -0.2743
 2401PBP     C190082  10.295   2.779   7.183 -0.3525  0.1030 -0.0536
 2401PBP     C190083   9.829   2.740   7.194 -0.1246  0.2482 -0.3350
 2401PBP     C190084   9.422   3.035   7.052 -0.0212  0.2479  0.1838
 2401PBP     C190085   9.184   3.461   7.184  0.0505  0.2687  0.2727
 2401PBP     C190086   9.030   3.901   7.257  0.3359  0.4176 -0.1742
 2401PBP     C190087   8.593   4.030   7.290  0.0508  0.2855  0.4350
 2401PBP     C190088   8.353   4.434   7.419 -0.3473  0.1170 -0.2345
 2401PBP     CP90089   8.117   4.724   7.534  0.2333  0.3892 -0.2443
 2401PBP     CP90090   8.123   5.037   7.480  0.5638 -0.4657 -0.0740
 2401PBP     CP90091   8.097   5.310   7.726 -0.2286 -0.0389 -0.3590
 2401PBP     Ch90092   8.227   5.287   7.979  0.1713 -0.3218  0.0143
 2402PBP     C190093  15.330   7.189  15.334 -0.3741 -0.0311  0.1394
 2402PBP     C190094  14.969   6.892  15.565 -0.3082  0.0127  0.3111
 2402PBP     C190095  14.515   6.880  15.570  0.0256  0.4228  0.3947
 2402PBP     C190096  14.167   7.119  15.730 -0.4501  0.1280 -0.2310
 2402PBP     C190097  13.980   7.456  15.627  0.2660  0.2661 -0.0330
 2402PBP     C190098  14.234   7.576  15.442 -0.3592 -0.1567  0.1174
 2402PBP     C190099  14.000   7.562  15.027  0.0385  0.4381 -0.3084
 2402PBP     C190100  13.838   7.627  14.641 -0.4093  0.3785 -0.0757
 2402PBP     CP90101  13.814   7.671  14.274  0.7174  0.2226 -0.3608
 2402PBP     CP90102  13.515   7.694  14.223  0.1524 -0.2545  0.0394
 2402PBP     CP90103  13.307   7.933  14.239  0.1898 -0.0849  0.5774
 2402PBP     Ch90104  13.069   7.976  14.069 -0.0121 -0.4369  0.2839
 2403PBP     C190105   9.231   4.580  14.313  0.0971 -0.0868 -0.2111
 2403PBP     C190106   9.538   4.527  14.147 -0.0131  0.0248 -0.0303
 2403PBP     C190107  10.027   4.341  14.308 -0.1269  0.0458  0.1389
 2403PBP     C190108  10.373   4.328  14.253  0.1048 -0.2740  0.4808
 2403PBP     C190109  10.723   4.521  14.103  0.2244 -0.5122 -0.1153
 2403PBP     C190110  11.087   4.913  14.090 -0.1795  0.0091  0.0420
 2403PBP     C190111  11.272   5.356  14.068  0.1771 -0.1433 -0.2537
 2403PBP     C190112  11.233   5.592  13.682  0.1001  0.2662 -0.1754
 2403PBP     CP90113  10.984   5.859  13.543 -0.0001  0.3250 -0.1516
 2403PBP     CP90114  10.717   5.981  13.379  0.8279  0.4545 -0.2818
 2403PBP     CP90115  10.408   5.992  13.498  0.2045 -0.1612  0.3184
 2403PBP     Ch90116  10.150   5.992  13.313 -0.1994  0.5331  0.0579
 2404PBP     C190117  11.831  10.227  15.969  0.0555  0.4567 -0.0800
 2404PBP     C190118  12.171  10.097  15.670  0.4293 -0.0400 -0.1777
 2404PBP     C190119  12.467  10.216  15.349  0.0432 -0.0291  0.3521
 2404PBP     C190120  13.016  10.231  15.302 -0.1010 -0.2144  0.1898
 2404PBP     C190121  13.142   9.932  15.021 -0.1705  0.1488  0.3367
 2404PBP     C190122  13.560   9.815  15.106  0.0019  0.6697  0.4283
 2404PBP     C190123  13.635   9.364  14.884  0.2093 -0.0661 -0.0984
 2404PBP     C190124  13.666   9.125  14.745  0.2053  0.0450  0.5110
 2404PBP     CP90125  13.803   8.813  14.514 -0.5963 -0.2065  0.0912
 2404PBP     CP90126  13.765   8.517  14.369 -0.2169 -0.1140 -0.2352
 2404PBP     CP90127  13.751   8.153  14.435 -0.4751  0.3491  0.1825
 2404PBP     Ch90128  13.993   8.034  14.439  0.1064 -0.2971 -0.2103
 2405PBP     C190129   9.149  10.722   7.333 -0.0904 -0.0672  0.1237
 2405PBP     C190130   9.317  10.365   7.194 -0.2787  0.2187 -0.1281
 2405PBP     C190131   8.983  10.208   6.803 -0.1126  0.3575 -0.0413
 2405PBP     C190132   8.569   9.932   6.765 -0.2830 -0.3280 -0.0722
 2405PBP     C190133   8.131  10.094   6.960 -0.2740 -0.1491  0.2319
 2405PBP     C190134   8.038  10.409   7.131 -0.0296  0.1267  0.1115
 2405PBP     C190135   8.140  10.595   7.557 -0.0504 -0.0160 -0.0207
 2405PBP     C190136   8.267  10.425   7.915  0.2391  0.0061  0.0632
 2405PBP     CP90137   8.378  10.326   8.306  0.0146  0.2641  0.0531
 2405PBP     CP90138   8.347  10.410   8.629 -0.0971 -0.3130 -0.0815
 2405PBP     CP90139   8.178  10.674   8.695 -0.0416 -0.5187  0.3477
 2405PBP     Ch90140   8.146  10.776   8.440 -0.0682 -0.1592  0.2367
 2406PBP     C190141  10.167  11.104  16.478 -0.2644 -0.1900  0.0677
 2406PBP     C190142  10.151  11.172  15.982 -0.0471  0.4772 -0.1958
 2406PBP     C190143  10.099  11.413  15.568 -0.2515  0.3302 -0.3867
 2406PBP     C190144  10.219  11.999  15.312 -0.1872  0.3416 -0.3415
 2406PBP     C190145  10.157  12.365  15.012  0.3920  0.1667 -0.0452
 2406PBP     C190146   9.830  12.489  14.709 -0.3935  0.0670  0.0242
 2406PBP     C190147   9.558  12.159  14.686 -0.5229 -0.1650  0.1646
 2406PBP     C190148   9.612  11.760  14.423  0.0870  0.1218  0.2103
 2406PBP     CP90149   9.474  11.739  14.045  0.1485 -0.2982  0.0625
 2406PBP     CP90150   9.441  11.469  13.874  0.5905 -0.3643  0.4532
 2406PBP     CP90151   9.663  11.345  13.692 -0.7302  0.0630 -0.0877
 2406PBP     Ch90152   9.712  11.325  13.426 -0.1811  0.0152  0.1116
 2407PBP     C190153   3.651  11.046   8.275 -0.4577 -0.1126 -0.1821
 2407PBP     C190154   3.888  11.348   8.305  0.4398 -0.1030  0.2674
 2407PBP     C190155   4.361  11.309   8.332  0.3638  0.3035 -0.2283
 2407PBP     C190156   4.584  11.444   8.706 -0.2903  0.1499 -0.3279
 2407PBP     C190157   4.899  11.574   8.966 -0.1948 -0.1861  0.0102
 2407PBP     C190158   5.268  11.245   9.161  0.1840 -0.1903 -0.0725
 2407PBP     C190159   5.654  11.185   9.370  0.3404 -0.3151 -0.0212
 2407PBP     C190160   6.158  11.194   9.505 -0.0708 -0.2852 -0.0545
 2407PBP     CP90161   6.391  11.570   9.627 -0.5420  0.1905  0.1811
 2407PBP     CP90162   6.669  11.711   9.746 -0.3996  0.0401  0.1277
 2407PBP     CP90163   6.984  11.620   9.821  0.2434 -0.1644 -0.2975
 2407PBP     Ch90164   7.162  11.346   9.889 -0.1386  0.2983 -0.2596
 2408PBP     C190165   9.354  16.588   9.069 -0.0687 -0.0782  0.0239
 2408PBP     C190166   9.634  16.304   9.457  0.2228 -0.2162 -0.1273
 2408PBP     C190167  10.098  16.142   9.561 -0.1675  0.0206  0.1460
 2408PBP     C190168  10.158  15.656   9.402 -0.4397 -0.3824 -0.0326
 2408PBP     C190169   9.829  15.264   9.337  0.2653  0.0758 -0.2298
 2408PBP     C190170   9.709  14.900   9.009 -0.1917  0.0122  0.1724
 2408PBP     C190171   9.317  14.719   8.992 -0.1101 -0.1793 -0.0765
 2408PBP     C190172   8.917  14.576   9.105 -0.1446 -0.0304  0.4608
 2408PBP     CP90173   8.867  14.763   9.444 -0.5652 -0.0309  0.1713
 2408PBP     CP90174   9.169  14.861   9.593 -0.1504  0.1954 -0.1233
 2408PBP     CP90175   9.511  14.909   9.587  0.2489 -0.0308  0.1634
 2408PBP     Ch90176   9.744  14.928   9.739  0.0361  0.0511  0.5500
 2409PBP     C190177   6.703  11.592  13.468 -0.2919 -0.4734  0.1506
 2409PBP     C190178   6.564  11.979  13.394 -0.2610  0.0680 -0.0365
 2409PBP     C190179   6.355  12.373  13.484 -0.2777 -0.2871  0.1015
 2409PBP     C190180   5.978  12.370  13.321 -0.0682  0.2141  0.0764
 2409PBP     C190181   5.500  12.467  13.447  0.0936 -0.6327 -0.6767
 2409PBP     C190182   5.007  12.238  13.430  0.0052 -0.0940  0.3643
 2409PBP     C190183   5.040  11.902  13.282  0.1915  0.0813  0.1982
 2409PBP     C190184   5.266  11.948  12.907  0.2342  0.2062 -0.3020
 2409PBP     CP90185   5.480  11.891  12.571  0.0409 -0.5355 -0.2770
 2409PBP     CP90186   5.622  12.163  12.463  0.0455  0.1794 -0.0091
 2409PBP     CP90187   5.651  12.518  12.502  0.1319  0.0649 -0.0817
 2409PBP     Ch90188   5.623  12.721  12.338  0.0562  0.0415 -0.2738
 2410PBP     C190189  15.484  15.991  13.329  0.0263  0.0890 -0.1548
 2410PBP     C190190  15.369  16.313  13.509 -0.0374 -0.0088 -0.1654
 2410PBP     C190191  15.265  16.032  13.822  0.0296  0.3025  0.1251
 2410PBP     C190192  14.976  15.707  14.027  0.2094 -0.0649  0.0954
 2410PBP     C190193  15.123  15.337  14.066 -0.3377  0.1172  0.0440
 2410PBP     C190194  15.265  15.118  13.736  0.1245  0.4044  0.1610
 2410PBP     C190195  15.580  14.980  13.424  0.2048  0.0459 -0.0682
 2410PBP     C190196  15.418  14.782  13.112  0.1697  0.0356 -0.0774
 2410PBP     CP90197  15.104  14.671  12.893  0.4283 -0.1511 -0.0379
 2410PBP     CP90198  14.797  14.587  12.787 -0.0883  0.0604  0.3274
 2410PBP     CP90199  14.597  14.357  12.705 -0.3368  0.3272  0.0765
 2410PBP     Ch90200  14.530  14.137  12.642  0.0692  0.5190 -0.1763
 2411PBP     C190201  13.220  11.274   7.603  0.0298 -0.2031 -0.0459
 2411PBP     C190202  13.588  11.293   7.653 -0.0606 -0.0703 -0.2206
 2411PBP     C190203  13.621  10.969   7.969 -0.0605  0.3514 -0.1205
 2411PBP     C190204  13.484  10.839   8.466  0.1836 -0.1677 -0.3698
 2411PBP     C190205  13.341  10.863   8.895 -0.1008  0.7308 -0.1854
 2411PBP     C190206  13.122  10.465   9.124  0.3144 -0.2004  0.1124
 2411PBP     C190207  12.857  10.074   9.360 -0.0917  0.3582 -0.1258
 2411PBP     C190208  12.994   9.905   9.716 -0.0489  0.0165 -0.0263
 2411PBP     CP90209  12.974   9.852  10.117 -0.0945  0.1967  0.2058
 2411PBP     CP90210  13.275   9.736  10.211  0.0902  0.4211  0.0595
 2411PBP     CP90211  13.532   9.552  10.214  0.0286 -0.1883  0.4037
 2411PBP     Ch90212  13.710   9.383  10.266 -0.0576 -0.1182  0.2119
 2412PBP     C190213   4.782  11.033  12.068 -0.0969  0.3335 -0.2475
 2412PBP     C190214   4.462  11.126  11.810  0.0770 -0.1461  0.0303
 2412PBP     C190215   4.432  11.184  11.349  0.2200 -0.2609 -0.0172
 2412PBP     C190216   4.419  10.855  11.060  0.4213 -0.1178 -0.0992
 2412PBP     C190217   4.584  10.501  10.875 -0.2358  0.3622 -0.2154
 2412PBP     C190218   4.790  10.182  10.797  0.2399  0.0596 -0.2509
 2412PBP     C190219   4.716   9.731  10.737 -0.4836  0.1467  0.0541
 2412PBP     C190220   4.747   9.306  10.815  0.3331  0.0668 -0.1920
 2412PBP     CP90221   5.045   9.075  10.958  0.0167 -0.6384  0.1820
 2412PBP     CP90222   5.292   8.922  10.835 -0.1567 -0.2217  0.3257
 2412PBP     CP90223   5.368   8.608  10.910 -0.3511 -0.2755 -0.1658
 2412PBP     Ch90224   5.267   8.383  10.850  0.7160  0.3722 -0.0022
 2413PBP     C190225   7.966  17.799  12.727  0.0751 -0.0061  0.0756
 2413PBP     C190226   7.655  17.385  12.721  0.0242  0.0437  0.0170
 2413PBP     C190227   7.675  16.887  12.563 -0.0661  0.2288 -0.0936
 2413PBP     C190228   7.923  16.592  12.674 -0.0390  0.2996 -0.0226
 2413PBP     C190229   8.111  16.146  12.615 -0.1214 -0.2018  0.0706
 2413PBP     C190230   8.012  15.824  12.828  0.0971 -0.1206 -0.3392
 2413PBP     C190231   8.197  15.564  13.184  0.3427 -0.0488  0.0239
 2413PBP     C190232   8.145  15.341  13.514  0.3782  0.4556  0.1461
 2413PBP     CP90233   8.378  15.022  13.610 -0.1644  0.2349  0.0604
 2413PBP     CP90234   8.374  14.717  13.704  0.3673 -0.0884  0.1147
 2413PBP     CP90235   8.218  14.478  13.555 -0.0831 -0.0067 -0.1958
 2413PBP     Ch90236   8.120  14.271  13.368 -0.3717 -0.1593 -0.1209
 2414PBP     C190237  13.989   5.566   8.141  0.0372  0.5271  0.0121
 2414PBP     C190238  13.492   5.514   8.225 -0.4489  0.1309  0.0598
 2414PBP     C190239  13.203   5.825   8.168 -0.1383 -0.0525 -0.2920
 2414PBP     C190240  12.772   5.985   8.071 -0.0747  0.4066  0.1664
 2414PBP     C190241  12.362   5.760   8.185 -0.2240  0.1367  0.1505
 2414PBP     C190242  11.886   5.830   8.268 -0.0482 -0.1817 -0.2366
 2414PBP     C190243  11.573   5.855   8.456 -0.0241  0.1044 -0.3030
 2414PBP     C190244  11.316   5.813   8.757 -0.1031 -0.1903  0.4462
 2414PBP     CP90245  11.363   6.140   8.998  0.5976  0.2410  0.0657
 2414PBP     CP90246  11.596   6.428   9.078  0.1753 -0.2263 -0.0870
 2414PBP     CP90247  11.579   6.755   9.098 -0.0989 -0.1785 -0.6339
 2414PBP     Ch90248  11.364   7.005   9.059  0.1891 -0.0020  0.2326
 2415PBP     C190249  15.368  16.541   9.713 -0.0794 -0.3783 -0.0527
 2415PBP     C190250  15.605  16.936   9.767  0.3937  0.5371  0.4960
 2415PBP     C190251  15.941  17.055  10.041  0.2618  0.4775 -0.0055
 2415PBP     C190252  16.239  17.007  10.309 -0.3048  0.1864 -0.0003
 2415PBP     C190253  16.052  16.856  10.690  0.2265 -0.2313  0.0848
 2415PBP     C190254  15.710  16.951  11.011 -0.2745  0.0080  0.1759
 2415PBP     C190255  15.476  16.868  11.398 -0.2091 -0.2446 -0.1794
 2415PBP     C190256  15.411  16.473  11.732 -0.0893 -0.2765  0.4418
 2415PBP     CP90257  15.110  16.241  11.736 -0.2349 -0.0039 -0.0010
 2415PBP     CP90258  14.842  16.366  11.585  0.1141 -0.4764 -0.0928
 2415PBP     CP90259  14.528  16.300  11.488  0.6080  0.2886 -0.0073
 2415PBP     Ch90260  14.484  16.260  11.269  0.0439 -0.1773 -0.0133
 2416PBP     C190261  21.191   4.237  14.235  0.0732  0.0639 -0.4667
 2416PBP     C190262  21.051   4.546  13.865 -0.0954 -0.0351 -0.0455
 2416PBP     C190263  20.879   4.546  13.446 -0.1679  0.1807 -0.0937
 2416PBP     C190264  20.656   4.103  13.231  0.0032 -0.0078 -0.1895
 2416PBP     C190265  20.466   3.946  12.830  0.1190  0.4580 -0.0518
 2416PBP     C190266  20.036   3.664  12.602  0.1337 -0.2267 -0.0952
 2416PBP     C190267  19.763   3.466  12.568 -0.1180  0.1898  0.1402
 2416PBP     C190268  19.392   3.463  12.814 -0.0298 -0.2195 -0.1349
 2416PBP     CP90269  19.215   3.661  12.571 -0.2281  0.0803  0.2094
 2416PBP     CP90270  19.096   3.741  12.268  0.3112  0.0344  0.2141
 2416PBP     CP90271  19.072   4.089  12.193  0.1411  0.1640 -0.4641
 2416PBP     Ch90272  19.341   4.116  12.093 -0.0881 -0.0951  0.0441
 2417PBP     C190273   3.592  12.765  10.103  0.0516 -0.2276  0.1572
 2417PBP     C190274   3.608  12.827  10.602 -0.1018 -0.1134 -0.4132
 2417PBP     C190275   3.687  13.009  10.994  0.1266  0.1241 -0.0577
 2417PBP     C190276   3.616  13.237  11.441  0.0416 -0.1472 -0.0683
 2417PBP     C190277   3.818  13.279  11.821 -0.0264 -0.1753 -0.4145
 2417PBP     C190278   4.051  13.558  12.021 -0.3833 -0.1804 -0.1977
 2417PBP     C190279   4.382  13.478  12.175  0.0636 -0.1214  0.0498
 2417PBP     C190280   4.666  13.854  12.323 -0.1139  0.1970  0.0400
 2417PBP     CP90281   4.760  14.199  12.484  0.1779  0.0961  0.2665
 2417PBP     CP90282   4.937  14.454  12.579 -0.2107 -0.1469 -0.2613
 2417PBP     CP90283   5.175  14.442  12.785  0.6476 -0.2078  0.1769
 2417PBP     Ch90284   5.384  14.578  12.636  0.2376  0.5535  0.2065
 2418PBP     C190285   7.889  12.382   6.275 -0.4674 -0.0537 -0.2915
 2418PBP     C190286   7.719  12.784   6.065 -0.2164 -0.6548  0.4977
 2418PBP     C190287   7.670  12.989   6.405  0.3938 -0.3206  0.0845
 2418PBP     C190288   7.583  13.195   6.898 -0.3118  0.1366 -0.1024
 2418PBP     C190289   7.787  13.269   7.346 -0.1219  0.4809 -0.0930
 2418PBP     C190290   7.650  13.421   7.683 -0.2482 -0.2023  0.1362
 2418PBP     C190291   7.581  13.540   8.050  0.4243  0.1203  0.1056
 2418PBP     C190292   7.885  13.465   8.413  0.1775 -0.0466 -0.0345
 2418PBP     CP90293   7.984  13.166   8.597 -0.0232 -0.1896 -0.1180
 2418PBP     CP90294   8.037  12.989   8.867  0.0943 -0.3109  0.1348
 2418PBP     CP90295   8.246  12.790   8.961  0.0624  0.1075 -0.1553
 2418PBP     Ch90296   8.353  12.529   8.969  0.2018  0.6102  0.0751
 2419PBP     C190297   6.152   7.118  12.703  0.3656 -0.1902 -0.3168
 2419PBP     C190298   5.969   7.234  12.320 -0.1249 -0.2251  0.5871
 2419PBP     C190299   5.590   6.977  12.044  0.2438  0.3645 -0.0209
 2419PBP     C190300   5.361   7.082  11.612 -0.0646 -0.3839  0.0915
 2419PBP     C190301   5.024   7.259  11.291  0.1068 -0.0922  0.3145
 2419PBP     C190302   5.075   7.291  10.879 -0.1396 -0.1206  0.2531
 2419PBP     C190303   5.438   7.327  10.726 -0.0127 -0.2915 -0.1517
 2419PBP     C190304   5.702   7.587  10.449 -0.0819  0.2535 -0.2615
 2419PBP     CP90305   6.089   7.699  10.375  0.1135  0.4106 -0.0721
 2419PBP     CP90306   6.389   7.714  10.533 -0.2934  0.3159 -0.7936
 2419PBP     CP90307   6.724   7.800  10.613 -0.1673  0.7627 -0.3930
 2419PBP     Ch90308   6.985   7.806  10.704 -0.0440  0.0073  0.0431
 2420PBP     C190309   7.355  16.286   9.356  0.0915 -0.0844 -0.2205
 2420PBP     C190310   7.374  16.121   8.916  0.0263 -0.1937 -0.1604
 2420PBP     C190311   7.123  16.086   8.667  0.1022 -0.0039  0.0541
 2420PBP     C190312   6.908  16.178   8.175 -0.1983  0.2112 -0.3552
 2420PBP     C190313   6.930  15.955   7.795  0.0802  0.0110 -0.0408
 2420PBP     C190314   6.736  15.687   7.557 -0.2746 -0.5484  0.0313
 2420PBP     C190315   6.469  15.329   7.637 -0.0260 -0.1807  0.4727
 2420PBP     C190316   6.387  15.199   7.949 -0.1517  0.0652  0.4515
 2420PBP     CP90317   6.493  15.202   8.344 -0.1485 -0.2014  0.0737
 2420PBP     CP90318   6.800  15.142   8.429  0.0214 -0.0240  0.2523
 2420PBP     CP90319   6.966  14.857   8.459 -0.3833 -0.2302 -0.0761
 2420PBP     Ch90320   7.127  14.679   8.592 -0.1281 -0.0860  0.0023
 2421PBP     C190321  17.127   8.740  10.944 -0.1922  0.0422 -0.0094
 2421PBP     C190322  17.236   8.513  11.321 -0.3428 -0.0965  0.0827
 2421PBP     C190323  17.362   8.462  11.589  0.3033 -0.1265 -0.1453
 2421PBP     C190324  17.530   8.635  11.933 -0.2837  0.0120 -0.1291
 2421PBP     C190325  17.338   8.542  12.193  0.2245  0.2658  0.0150
 2421PBP     C190326  17.007   8.302  12.172  0.2281 -0.1961 -0.3531
 2421PBP     C190327  16.636   8.004  12.183 -0.1716  0.0834 -0.1329
 2421PBP     C190328  16.087   7.927  12.199 -0.0699 -0.2558 -0.1056
 2421PBP     CP90329  15.682   8.041  12.101  0.0433 -0.2562  0.1796
 2421PBP     CP90330  15.467   8.327  12.133  0.2353  0.4123 -0.6442
 2421PBP     CP90331  15.164   8.367  12.003 -0.2443  0.5750 -0.4684
 2421PBP     Ch90332  14.898   8.284  11.894 -0.2457  0.0365 -0.0943
 2422PBP     C190333   7.983  11.596  14.825 -0.1177  0.0368  0.1400
 2422PBP     C190334   8.306  11.451  15.169  0.2350 -0.1093 -0.1658
 2422PBP     C190335   8.707  11.268  15.178  0.1023 -0.4194 -0.1619
 2422PBP     C190336   9.031  11.012  15.136 -0.0896 -0.2634 -0.0179
 2422PBP     C190337   9.133  10.854  14.739 -0.0324  0.0526 -0.0008
 2422PBP     C190338   8.994  10.931  14.350 -0.1078  0.0260  0.1843
 2422PBP     C190339   9.206  11.043  13.985  0.1972  0.3396 -0.3322
 2422PBP     C190340   8.981  11.260  13.723 -0.2007 -0.0256  0.1913
 2422PBP     CP90341   8.882  11.302  13.270  0.3353 -0.0187  0.0954
 2422PBP     CP90342   8.757  11.188  13.056  0.2109 -0.1393 -0.1890
 2422PBP     CP90343   8.583  10.891  13.046  0.3252 -0.1300  0.3607
 2422PBP     Ch90344   8.550  10.615  12.960 -0.8015 -0.5086 -0.3814
 2423PBP     C190345  17.470   8.538  10.406 -0.1257 -0.2047 -0.5447
 2423PBP     C190346  17.375   8.954  10.483  0.4863  0.0170 -0.5385
 2423PBP     C190347  17.142   9.233  10.900  0.0953 -0.3595 -0.0599
 2423PBP     C190348  16.970   9.556  10.905 -0.3578 -0.1180  0.2287
 2423PBP     C190349  16.603   9.680  10.960 -0.5719  0.1288 -0.1067
 2423PBP     C190350  16.505  10.167  10.848 -0.0850  0.2123  0.4610
 2423PBP     C190351  16.530  10.671  11.133  0.0070 -0.1356 -0.7130
 2423PBP     C190352  16.058  10.836  11.149  0.0242  0.2271  0.4093
 2423PBP     CP90353  15.661  10.843  11.087 -0.1940 -0.2965 -0.3601
 2423PBP     CP90354  15.455  10.605  10.972  0.3773  0.5943 -0.3035
 2423PBP     CP90355  15.456  10.254  10.892 -0.1592 -0.2113 -0.3270
 2423PBP     Ch90356  15.260  10.060  10.838 -0.0438  0.0612  0.1449
 2424PBP     C190357   4.709   6.025   8.743  0.2387 -0.6027 -0.2231
 2424PBP     C190358   5.145   6.118   8.586  0.0372 -0.2205  0.0678
 2424PBP     C190359   5.549   6.371   8.370  0.2765  0.2547  0.1538
 2424PBP     C190360   5.757   6.291   8.052 -0.1083  0.4909 -0.2340
 2424PBP     C190361   5.954   6.564   7.698 -0.0666  0.2668  0.1918
 2424PBP     C190362   5.900   6.473   7.164 -0.0910  0.2329 -0.0700
 2424PBP     C190363   6.379   6.340   7.147 -0.2896  0.0405  0.0693
 2424PBP     C190364   6.718   6.179   7.248 -0.3223 -0.2886 -0.0448
 2424PBP     CP90365   6.956   6.155   7.541  0.3279 -0.0202 -0.3347
 2424PBP     CP90366   7.184   6.113   7.743  0.4627 -0.8489 -0.1419
 2424PBP     CP90367   7.504   6.122   7.694  0.4324  0.0950 -0.2390
 2424PBP     Ch90368   7.701   6.142   7.817  0.3334  0.2989  0.1680
 2425PBP     C190369  11.484  15.404   8.218 -0.1851 -0.1373  0.0944
 2425PBP     C190370  11.587  14.969   8.058  0.0470  0.4557  0.2208
 2425PBP     C190371  11.766  14.659   8.306  0.2638 -0.0384  0.0542
 2425PBP     C190372  12.128  14.543   8.606  0.0594  0.1722  0.2245
 2425PBP     C190373  12.239  14.446   9.057 -0.0647  0.2871 -0.2731
 2425PBP     C190374  12.531  14.080   9.239 -0.2361  0.2564  0.2773
 2425PBP     C190375  12.450  14.075   9.612  0.0103  0.1598  0.0798
 2425PBP     C190376  12.439  14.243   9.998  0.0897 -0.2600 -0.0988
 2425PBP     CP90377  12.703  14.460  10.188  0.1065 -0.0757 -0.3537
 2425PBP     CP90378  12.979  14.335  10.261 -0.4902  0.1494 -0.3764
 2425PBP     CP90379  13.265  14.432  10.331  0.0450 -0.2280 -0.1718
 2425PBP     Ch90380  13.325  14.637  10.489 -0.3632 -0.1791 -0.2384
 2426PBP     C190381  15.429   7.436   7.574  0.3272  0.1215  0.3910
 2426PBP     C190382  15.019   7.514   7.806  0.0006  0.2546 -0.0497
 2426PBP     C190383  14.565   7.287   7.895  0.1941 -0.3092  0.2647
 2426PBP     C190384  14.371   7.188   8.166 -0.1206 -0.0079  0.0875
 2426PBP     C190385  14.203   7.351   8.602 -0.2142 -0.1662  0.1491
 2426PBP     C190386  14.125   7.569   9.059 -0.5495 -0.3122 -0.0602
 2426PBP     C190387  13.830   7.501   9.368  0.1568 -0.4619 -0.3434
 2426PBP     C190388  13.462   7.167   9.288  0.0059  0.1466 -0.1448
 2426PBP     CP90389  13.132   7.012   9.214 -0.1103 -0.0775  0.5864
 2426PBP     CP90390  12.834   6.896   9.101 -0.1248  0.0391  0.0710
 2426PBP     CP90391  12.596   6.633   9.193  0.1174  0.3184  0.3614
 2426PBP     Ch90392  12.596   6.663   9.440  0.1175  0.1197  0.1208
 2427PBP     C190393   7.980  14.837  14.954  0.2404  0.0851 -0.1558
 2427PBP     C190394   7.904  15.316  14.778  0.0204 -0.4580  0.2609
 2427PBP     C190395   7.763  15.460  14.413 -0.2115  0.1663  0.0965
 2427PBP     C190396   7.474  15.763  14.301  0.0076 -0.1938 -0.0173
 2427PBP     C190397   7.029  15.643  14.191  0.1234  0.1777  0.0458
 2427PBP     C190398   6.779  15.393  13.979 -0.0863  0.0626  0.2620
 2427PBP     C190399   6.597  15.249  13.577 -0.2253 -0.1824 -0.0398
 2427PBP     C190400   6.403  14.976  13.445 -0.0151  0.1874  0.2906
 2427PBP     CP90401   6.428  14.776  13.106  0.0192 -0.2005 -0.0841
 2427PBP     CP90402   6.382  14.615  12.885  0.1733 -0.1681  0.0453
 2427PBP     CP90403   6.358  14.336  12.868 -0.2327  0.2256 -0.0234
 2427PBP     Ch90404   6.205  14.153  12.729 -0.0689  0.1964  0.2333
 2428PBP     C190405  16.209  15.145  14.266  0.0722  0.0730 -0.0002
 2428PBP     C190406  15.849  14.802  14.118  0.4307 -0.0231 -0.1991
 2428PBP     C190407  15.679  14.301  14.119 -0.2213 -0.0014 -0.0588
 2428PBP     C190408  15.618  13.910  14.026 -0.1253  0.3283 -0.4048
 2428PBP     C190409  15.771  13.531  14.108 -0.2803  0.0247  0.2096
 2428PBP     C190410  15.958  13.086  14.143 -0.3023 -0.1330 -0.2235
 2428PBP     C190411  15.679  12.667  14.361 -0.0219 -0.2225 -0.2627
 2428PBP     C190412  15.389  12.380  14.281 -0.3102  0.2178  0.2232
 2428PBP     CP90413  15.108  12.476  14.044  0.0887  0.2070 -0.0291
 2428PBP     CP90414  15.011  12.157  13.927 -0.2580  0.0182  0.5251
 2428PBP     CP90415  14.722  12.042  13.845  0.3663 -0.1684 -0.0471
 2428PBP     Ch90416  14.480  12.045  13.775  0.3342 -0.3750 -0.0842
 2429PBP     C190417   3.510  14.470  11.030 -0.1605  0.0181  0.1283
 2429PBP     C190418   3.603  14.052  11.059 -0.3882 -0.2825 -0.1615
 2429PBP     C190419   3.388  13.817  10.758  0.1890  0.0779  0.2390
 2429PBP     C190420   3.569  13.391  10.651  0.1593  0.0177 -0.1154
 2429PBP     C190421   4.017  13.261  10.666 -0.0446  0.1250 -0.0528
 2429PBP     C190422   4.411  13.423  10.708 -0.1327  0.0097  0.2518
 2429PBP     C190423   4.840  13.383  10.823 -0.1443  0.2435 -0.4428
 2429PBP     C190424   5.084  13.058  10.956 -0.1094  0.0694  0.4170
 2429PBP     CP90425   5.490  13.059  10.974 -0.0300  0.1617 -0.3965
 2429PBP     CP90426   5.819  13.053  11.142  0.3566 -0.1944  0.2352
 2429PBP     CP90427   6.058  13.229  11.188  0.4679 -0.0137 -0.5201
 2429PBP     Ch90428   6.348  13.164  11.242 -0.0008  0.0783  0.2923
 2430PBP     C190429  19.092   6.838  10.641 -0.1431  0.1081  0.1597
 2430PBP     C190430  18.717   7.162  10.581  0.1429 -0.0932  0.3695
 2430PBP     C190431  18.343   7.290  10.749 -0.1496 -0.0767  0.3127
 2430PBP     C190432  17.991   7.154  10.717  0.4843  0.1500  0.0192
 2430PBP     C190433  17.686   6.840  10.710 -0.3301 -0.1113  0.0571
 2430PBP     C190434  17.250   6.813  10.662  0.2089 -0.0061 -0.3095
 2430PBP     C190435  17.119   7.314  10.794  0.0312  0.0887  0.1551
 2430PBP     C190436  16.761   7.521  10.987  0.0145 -0.0071 -0.1698
 2430PBP     CP90437  16.597   7.828  11.037 -0.2041 -0.0704 -0.0408
 2430PBP     CP90438  16.353   7.823  10.884 -0.0790 -0.0952  0.0051
 2430PBP     CP90439  16.175   7.533  10.765 -0.3545 -0.2183 -0.2977
 2430PBP     Ch90440  16.272   7.297  10.828  0.2372 -0.0318 -0.1930
 2431PBP     C190441  17.371   8.610  14.940  0.1246  0.3293  0.0395
 2431PBP     C190442  17.101   8.471  14.621 -0.3699 -0.0122  0.1826
 2431PBP     C190443  16.889   8.524  14.195  0.5258 -0.0546  0.0874
 2431PBP     C190444  16.725   8.565  13.775 -0.0937 -0.3333 -0.2291
 2431PBP     C190445  16.306   8.723  13.611  0.3704  0.4238 -0.1932
 2431PBP     C190446  16.118   9.162  13.473  0.1511 -0.5323  0.1387
 2431PBP     C190447  16.043   9.251  12.974 -0.2055  0.1390  0.0877
 2431PBP     C190448  15.987   9.327  12.554 -0.7263  0.2994 -0.2365
 2431PBP     CP90449  15.697   9.331  12.338  0.0738  0.0176 -0.0097
 2431PBP     CP90450  15.442   9.315  12.238  0.0064  0.3842 -0.3825
 2431PBP     CP90451  15.239   9.090  12.178 -0.2225 -0.0716 -0.0507
 2431PBP     Ch90452  15.173   8.861  12.085  0.1179 -0.0577  0.0770
 2432PBP     C190453  13.592   8.285  16.577 -0.0778 -0.4648 -0.3322
 2432PBP     C190454  13.845   8.280  16.344 -0.2093  0.0740  0.1721
 2432PBP     C190455  13.901   8.278  15.918 -0.2752  0.1307  0.4331
 2432PBP     C190456  13.520   8.136  15.616  0.3470  0.1769  0.0976
 2432PBP     C190457  13.356   8.157  15.354  0.3775  0.1511  0.2032
 2432PBP     C190458  13.101   8.134  15.103  0.0517 -0.0298 -0.0069
 2432PBP     C190459  12.651   8.120  15.099  0.1844 -0.4765 -0.0491
 2432PBP     C190460  12.311   8.051  14.745  0.3973  0.3947  0.0195
 2432PBP     CP90461  12.121   8.151  14.418 -0.3272  0.1341 -0.0716
 2432PBP     CP90462  12.031   8.219  14.116 -0.5331 -0.1844  0.2755
 2432PBP     CP90463  11.830   8.372  13.944  0.0752 -0.0919  0.3083
 2432PBP     Ch90464  11.811   8.328  13.676  0.3835  0.1729  0.3752
 2433PBP     C190465  15.766  14.050  11.060  0.1433  0.5156  0.1315
 2433PBP     C190466  15.458  13.814  10.889 -0.0253  0.3773 -0.1404
 2433PBP     C190467  15.131  13.527  10.680  0.0744  0.2940 -0.0489
 2433PBP     C190468  15.043  13.311  10.357  0.3703  0.3209  0.3165
 2433PBP     C190469  14.878  13.032  10.037 -0.1279  0.1366  0.0729
 2433PBP     C190470  14.802  12.612  10.029 -0.2409 -0.6299 -0.3713
 2433PBP     C190471  14.987  12.268  10.201 -0.2168 -0.0867  0.1078
 2433PBP     C190472  14.765  11.985  10.380  0.3586 -0.2704  0.0642
 2433PBP     CP90473  14.396  11.867  10.474 -0.3520  0.3695  0.1226
 2433PBP     CP90474  14.234  11.625  10.665 -0.7545 -0.2757  0.2136
 2433PBP     CP90475  14.135  11.310  10.600  0.0123 -0.0985  0.5154
 2433PBP     Ch90476  13.883  11.241  10.671  0.0348  0.4345  0.1244
 2434PBP     C190477   5.953  17.647  10.339  0.3221 -0.0942 -0.0509
 2434PBP     C190478   6.377  17.539  10.575 -0.4554  0.5327  0.1878
 2434PBP     C190479   6.847  17.536  10.463  0.1740 -0.1237 -0.0977
 2434PBP     C190480   7.231  17.521  10.621 -0.3740 -0.1629 -0.0870
 2434PBP     C190481   7.091  17.120  10.775  0.5466  0.2836 -0.1546
 2434PBP     C190482   6.691  16.894  10.941  0.2432 -0.0274 -0.0169
 2434PBP     C190483   6.767  16.418  11.025  0.1180  0.3624 -0.1084
 2434PBP     C190484   6.966  15.953  10.792  0.0315 -0.0057 -0.1179
 2434PBP     CP90485   7.092  15.731  10.431 -0.0700  0.4851 -0.0930
 2434PBP     CP90486   6.930  15.411  10.370  0.3925  0.3450 -0.0160
 2434PBP     CP90487   7.022  15.115  10.339  0.0782 -0.0367 -0.0490
 2434PBP     Ch90488   7.170  14.940  10.403  0.4019  0.3517  0.0004
 2435PBP     C190489  11.566  11.218   8.070  0.1930 -0.5133 -0.6553
 2435PBP     C190490  11.236  11.082   7.819  0.5062  0.0958 -0.0380
 2435PBP     C190491  10.963  11.484   7.866  0.1496  0.0289 -0.1503
 2435PBP     C190492  10.534  11.691   7.758 -0.1034 -0.1623 -0.1321
 2435PBP     C190493  10.279  11.634   8.052 -0.1545 -0.2956  0.2459
 2435PBP     C190494  10.241  11.549   8.515 -0.0747 -0.0812 -0.1136
 2435PBP     C190495  10.550  11.286   8.740 -0.1083  0.1637  0.0278
 2435PBP     C190496  10.597  10.996   9.073 -0.5270  0.0215  0.2128
 2435PBP     CP90497  10.688  10.976   9.475  0.2237 -0.3184  0.0111
 2435PBP     CP90498  10.935  10.978   9.641 -0.1664  0.0951 -0.2202
 2435PBP     CP90499  11.264  10.997   9.655  0.2413 -0.4696  0.0487
 2435PBP     Ch90500  11.469  11.054   9.778  0.3591  0.1009  0.0856
 2436PBP     C190501  10.561  18.369  14.531  0.0895  0.6253  0.0116
 2436PBP     C190502  10.425  18.220  14.055 -0.0120 -0.0220 -0.0203
 2436PBP     C190503  10.394  18.000  13.641  0.1488  0.4711 -0.3041
 2436PBP     C190504  10.314  17.644  13.395  0.0428  0.3390 -0.3201
 2436PBP     C190505  10.601  17.239  13.472  0.1001 -0.2172 -0.3043
 2436PBP     C190506  10.733  16.915  13.191 -0.3449  0.2367 -0.0164
 2436PBP     C190507  10.911  16.463  13.284 -0.3458 -0.1944  0.1402
 2436PBP     C190508  10.625  16.092  13.138 -0.0915  0.2498  0.0973
 2436PBP     CP90509  10.721  15.735  13.011  0.1389  0.3177 -0.1421
 2436PBP     CP90510  10.568  15.432  12.947 -0.0797 -0.2438  0.0165
 2436PBP     CP90511  10.672  15.134  12.896  0.3191 -0.1554  0.0895
 2436PBP     Ch90512  10.842  14.881  12.892  0.0350 -0.3574 -0.2196
 2437PBP     C190513   7.119  10.890  14.991 -0.1148  0.0035  0.0072
 2437PBP     C190514   6.843  11.139  14.782 -0.2104  0.0017  0.2911
 2437PBP     C190515   6.992  11.526  14.668 -0.1852 -0.0816 -0.1059
 2437PBP     C190516   7.315  11.613  14.333  0.0062 -0.1813  0.1553
 2437PBP     C190517   7.399  11.918  13.962  0.1884  0.0519 -0.1399
 2437PBP     C190518   7.419  12.263  13.800  0.0189 -0.2130  0.2638
 2437PBP     C190519   7.369  12.609  13.726  0.0038  0.3103  0.2131
 2437PBP     C190520   7.287  12.890  13.414 -0.3005 -0.0021  0.1598
 2437PBP     CP90521   7.678  13.044  13.356 -0.0834 -0.4241 -0.4289
 2437PBP     CP90522   7.937  13.133  13.519 -0.1288 -0.3900  0.2433
 2437PBP     CP90523   8.190  13.312  13.450  0.6684  0.2110 -0.2238
 2437PBP     Ch90524   8.307  13.444  13.255 -0.1616  0.3979 -0.8722
 2438PBP     C190525   6.780  16.167  15.147 -0.0897 -0.2082 -0.2368
 2438PBP     C190526   6.956  15.901  15.346  0.0824  0.1814 -0.0600
 2438PBP     C190527   7.372  15.624  15.232 -0.1427  0.1909  0.5179
 2438PBP     C190528   7.538  15.741  14.902 -0.1014  0.2415 -0.1253
 2438PBP     C190529   7.932  15.940  14.668 -0.1988  0.2284  0.1536
 2438PBP     C190530   8.339  16.040  14.545  0.1448  0.1338 -0.1839
 2438PBP     C190531   8.775  15.911  14.339  0.2705 -0.1063 -0.0913
 2438PBP     C190532   8.903  15.494  14.135  0.0835  0.4303 -0.5081
 2438PBP     CP90533   8.957  15.402  13.773 -0.1610 -0.2743  0.1835
 2438PBP     CP90534   9.040  15.604  13.516 -0.1660  0.2179 -0.2115
 2438PBP     CP90535   9.189  15.740  13.225 -0.2189  0.2317 -0.2512
 2438PBP     Ch90536   9.181  15.948  13.056 -0.4515 -0.6598  0.2078
 2439PBP     C190537  12.595  16.919   8.231  0.1438  0.3196  0.6184
 2439PBP     C190538  12.468  16.637   8.559  0.0708  0.1535  0.8339
 2439PBP     C190539  12.356  16.535   8.972  0.0571 -0.0519 -0.4765
 2439PBP     C190540  11.948  16.548   9.181  0.0690 -0.2154 -0.0819
 2439PBP     C190541  11.650  16.374   9.444  0.0135  0.2819 -0.3980
 2439PBP     C190542  11.633  15.951   9.456  0.4618  0.0167 -0.0577
 2439PBP     C190543  12.000  15.654   9.625 -0.1942  0.1297  0.1738
 2439PBP     C190544  12.197  15.279   9.891 -0.0608 -0.0261  0.3138
 2439PBP     CP90545  12.505  15.014   9.973  0.2910 -0.3851 -0.0799
 2439PBP     CP90546  12.599  15.132  10.238 -0.2317  0.2972 -0.0107
 2439PBP     CP90547  12.403  15.314  10.431 -0.3461 -0.2682  0.0695
 2439PBP     Ch90548  12.291  15.149  10.648  0.1050  0.1130  0.1806
 2440PBP     C190549  10.609  13.931   8.429 -0.3033 -0.0141 -0.0356
 2440PBP     C190550  10.826  13.562   8.555 -0.2118  0.1215 -0.1181
 2440PBP     C190551  10.823  13.099   8.797  0.2946  0.0929  0.2442
 2440PBP     C190552  10.664  12.636   8.660  0.0485  0.4081 -0.0383
 2440PBP     C190553  10.615  12.340   8.299  0.2361  0.1857 -0.1732
 2440PBP     C190554  10.223  12.551   8.407  0.0192  0.1884  0.1046
 2440PBP     C190555   9.978  12.429   8.670  0.2096 -0.1581  0.0208
 2440PBP     C190556   9.804  12.476   8.989  0.0261 -0.0750 -0.2024
 2440PBP     CP90557   9.536  12.439   9.291  0.4854  0.0881  0.0704
 2440PBP     CP90558   9.335  12.682   9.353  0.2864  0.4029  0.3056
 2440PBP     CP90559   9.213  12.948   9.225  0.5336  0.0900  0.3640
 2440PBP     Ch90560   9.023  13.059   9.326 -0.0647 -0.2748  0.6413
 2441PBP     C190561   3.827  15.177   9.998  0.0868 -0.3572  0.0394
 2441PBP     C190562   4.037  15.544  10.135 -0.0100  0.1260 -0.0729
 2441PBP     C190563   4.346  15.436  10.381 -0.5415  0.1335 -0.0914
 2441PBP     C190564   4.553  14.931  10.582  0.1060 -0.0185 -0.0971
 2441PBP     C190565   4.724  14.407  10.643 -0.0342 -0.0459  0.2918
 2441PBP     C190566   4.466  14.123  10.711 -0.0587  0.3753 -0.1316
 2441PBP     C190567   4.259  13.802  10.447 -0.3275  0.2433 -0.2013
 2441PBP     C190568   4.405  13.454  10.190 -0.3701  0.1455 -0.1493
 2441PBP     CP90569   4.618  13.125  10.114  0.1127 -0.1785  0.0799
 2441PBP     CP90570   4.899  12.979  10.203 -0.0486  0.2269  0.1356
 2441PBP     CP90571   5.066  12.752  10.106 -0.2033 -0.0542 -0.2641
 2441PBP     Ch90572   5.010  12.519  10.219 -0.2183  0.1624 -0.1739
 2442PBP     C190573  12.167  14.989   7.985 -0.3163  0.3546 -0.2798
 2442PBP     C190574  11.953  15.267   8.317 -0.2252  0.1335 -0.1186
 2442PBP     C190575  11.815  15.016   8.686 -0.1346  0.1269  0.0229
 2442PBP     C190576  11.851  14.730   8.919 -0.0431 -0.2943 -0.1278
 2442PBP     C190577  11.972  14.832   9.254  0.1120  0.2580 -0.0494
 2442PBP     C190578  12.135  15.173   9.392  0.0217  0.1097 -0.1724
 2442PBP     C190579  12.562  15.275   9.520 -0.3065  0.3867 -0.0566
 2442PBP     C190580  12.686  15.433   9.876  0.0401 -0.2019  0.2863
 2442PBP     CP90581  12.901  15.500  10.202  0.2898  0.0224 -0.0294
 2442PBP     CP90582  12.776  15.750  10.408 -0.2390 -0.1618 -0.0393
 2442PBP     CP90583  12.498  15.747  10.534  0.3166 -0.1796 -0.1825
 2442PBP     Ch90584  12.422  15.630  10.765 -0.4904 -0.1140  0.1094
 2443PBP     C190585  15.543   9.390   7.811 -0.2152 -0.1662  0.1066
 2443PBP     C190586  15.570   9.001   7.513  0.1043  0.0308 -0.1886
 2443PBP     C190587  15.223   8.814   7.637 -0.0482  0.0463 -0.0328
 2443PBP     C190588  15.138   8.637   7.889  0.4648 -0.2024 -0.2372
 2443PBP     C190589  15.140   8.361   8.244 -0.0172 -0.3130  0.0097
 2443PBP     C190590  15.141   7.992   8.449  0.2118  0.1077  0.0906
 2443PBP     C190591  15.031   7.793   8.862 -0.1216 -0.0619 -0.4875
 2443PBP     C190592  15.140   7.656   9.316  0.1763 -0.0761  0.2178
 2443PBP     CP90593  15.250   7.883   9.630 -0.0175 -0.2898 -0.3663
 2443PBP     CP90594  15.087   8.056   9.875 -0.2382 -0.0658 -0.2378
 2443PBP     CP90595  14.986   8.329   9.921  0.1545  0.2085 -0.8182
 2443PBP     Ch90596  14.806   8.498  10.027  0.2271 -0.1203 -0.3436
 2444PBP     C190597  13.304  10.478   7.222  0.1397 -0.2502 -0.2065
 2444PBP     C190598  13.416  10.001   7.457 -0.4397 -0.0828  0.0232
 2444PBP     C190599  13.615   9.797   7.797 -0.0975 -0.0939 -0.1289
 2444PBP     C190600  13.598   9.768   8.324 -0.2720  0.0413 -0.1462
 2444PBP     C190601  13.844   9.576   8.665  0.0915  0.0477 -0.0012
 2444PBP     C190602  14.216   9.506   8.920  0.2234  0.0275 -0.3996
 2444PBP     C190603  14.484   9.496   9.250 -0.1951 -0.5517 -0.0982
 2444PBP     C190604  14.438   9.573   9.700  0.0998  0.2578 -0.0857
 2444PBP     CP90605  14.742   9.396   9.978 -0.0341 -0.2830  0.2387
 2444PBP     CP90606  14.953   9.205  10.137  0.4645  0.1859  0.2508
 2444PBP     CP90607  14.991   9.034  10.445 -0.5835 -0.5428  0.0995
 2444PBP     Ch90608  14.884   9.132  10.630  0.2273 -0.2243  0.2730
 2445PBP     C190609  10.854  13.390  16.976 -0.1551  0.2898  0.4378
 2445PBP     C190610  10.696  13.289  16.523 -0.1951  0.1736  0.1242
 2445PBP     C190611  10.565  13.170  16.182 -0.1031 -0.1049 -0.1258
 2445PBP     C190612  10.279  13.334  15.731  0.0854 -0.3857  0.0517
 2445PBP     C190613  10.188  13.258  15.318  0.4379  0.1090 -0.4681
 2445PBP     C190614   9.993  13.337  14.988 -0.0480  0.3521  0.0395
 2445PBP     C190615   9.871  12.987  14.727 -0.0651  0.2920  0.0543
 2445PBP     C190616   9.842  13.029  14.287  0.1965 -0.4036  0.0740
 2445PBP     CP90617   9.684  13.095  13.894 -0.0971 -0.2457 -0.5265
 2445PBP     CP90618   9.490  12.986  13.682  0.0105 -0.1818 -0.0724
 2445PBP     CP90619   9.188  12.992  13.616  0.0672  0.1823 -0.1624
 2445PBP     Ch90620   8.970  12.997  13.473 -0.6153 -0.5024  0.0998
 2446PBP     C190621  10.270  12.430   6.708  0.0331 -0.1658  0.0840
 2446PBP     C190622   9.838  12.482   6.815  0.0454 -0.1556 -0.3160
 2446PBP     C190623   9.789  12.150   7.039 -0.1497  0.1494  0.1287
 2446PBP     C190624   9.499  12.033   7.137  0.3643 -0.2806 -0.1871
 2446PBP     C190625   9.001  12.168   7.281  0.0345  0.1249  0.1374
 2446PBP     C190626   8.767  12.435   7.588  0.0268 -0.1331 -0.3421
 2446PBP     C190627   8.836  12.607   7.918 -0.3283  0.0244 -0.0598
 2446PBP     C190628   8.854  12.903   8.333 -0.0952 -0.3170 -0.2692
 2446PBP     CP90629   8.798  12.942   8.736 -0.0658 -0.1795 -0.1958
 2446PBP     CP90630   8.654  12.995   8.995  0.2499 -0.0863 -0.1456
 2446PBP     CP90631   8.575  13.226   9.180 -0.2181 -0.0125  0.1695
 2446PBP     Ch90632   8.388  13.341   9.074 -0.3987 -0.3650 -0.0791
 2447PBP     C190633   7.454  11.094  14.591  0.1559 -0.2687 -0.0372
 2447PBP     C190634   7.522  10.681  14.771 -0.4022  0.2928 -0.3277
 2447PBP     C190635   7.847  10.469  14.992  0.0766 -0.1230  0.2472
 2447PBP     C190636   8.108  10.282  14.891  0.1570  0.2686  0.2836
 2447PBP     C190637   8.311  10.223  14.388  0.0859 -0.2484  0.0736
 2447PBP     C190638   8.325  10.014  13.949  0.2315 -0.3036  0.2178
 2447PBP     C190639   8.244  10.176  13.628 -0.3058 -0.2936  0.1977
 2447PBP     C190640   8.151  10.662  13.396  0.1713 -0.2366  0.3432
 2447PBP     CP90641   8.178  11.078  13.276 -0.1451 -0.2382  0.4101
 2447PBP     CP90642   8.324  11.292  13.033  0.2867 -0.1749 -0.5884
 2447PBP     CP90643   8.443  11.567  13.124  0.2294  0.2375 -0.0368
 2447PBP     Ch90644   8.416  11.679  13.373  0.0585 -0.2199  0.2736
 2448PBP     C190645  13.338  17.503  10.443 -0.2629  0.0500 -0.1450
 2448PBP     C190646  13.260  17.032  10.170 -0.1894 -0.0942  0.1242
 2448PBP     C190647  13.178  16.688   9.943 -0.3299 -0.0539  0.2398
 2448PBP     C190648  12.820  16.705   9.721  0.0255 -0.2023  0.1913
 2448PBP     C190649  12.658  17.046   9.723 -0.1086  0.1963  0.2485
 2448PBP     C190650  12.376  17.141   9.983  0.2264  0.1385 -0.4475
 2448PBP     C190651  11.967  17.074  10.281 -0.0698  0.3273 -0.1362
 2448PBP     C190652  11.805  16.753  10.501 -0.3215 -0.0329 -0.0184
 2448PBP     CP90653  11.722  16.657  10.857 -0.1676  0.5625 -0.0797
 2448PBP     CP90654  11.816  16.685  11.153  0.0905 -0.3026  0.4632
 2448PBP     CP90655  12.087  16.719  11.312 -0.3690 -0.0150 -0.1782
 2448PBP     Ch90656  12.369  16.748  11.272 -0.2686  0.5334  0.2425
 2449PBP     C190657  12.117   9.529  17.167  0.3540  0.2500  0.0337
 2449PBP     C190658  12.334   9.428  16.660  0.1952 -0.1611  0.0121
 2449PBP     C190659  12.625   9.324  16.331 -0.3706  0.0553 -0.0316
 2449PBP     C190660  12.766   9.258  15.902 -0.0053  0.3651 -0.3523
 2449PBP     C190661  12.875   9.356  15.511 -0.3861  0.1557  0.3359
 2449PBP     C190662  13.274   9.409  15.323  0.2592  0.0121 -0.2370
 2449PBP     C190663  13.568   9.126  15.375 -0.1430 -0.0185  0.3599
 2449PBP     C190664  13.915   8.919  15.192  0.2840 -0.1135 -0.1489
 2449PBP     CP90665  14.249   8.880  14.930 -0.4405 -0.0088  0.3076
 2449PBP     CP90666  14.508   8.982  14.736  0.3032 -0.0186 -0.0344
 2449PBP     CP90667  14.825   9.069  14.880 -0.0059  0.0186  0.3881
 2449PBP     Ch90668  14.934   8.979  15.100 -0.4659 -0.4255  0.0706
 2450PBP     C190669  12.165  10.543   9.013  0.1434  0.0450  0.3827
 2450PBP     C190670  11.847  10.477   9.154  0.1433  0.4530 -0.5406
 2450PBP     C190671  11.525  10.226   9.106 -0.1796 -0.2330  0.2202
 2450PBP     C190672  11.167   9.888   9.046 -0.1772  0.0374 -0.0183
 2450PBP     C190673  11.007   9.572   8.849  0.0652  0.1273 -0.2738
 2450PBP     C190674  10.922   9.066   8.790  0.1361  0.1322 -0.0266
 2450PBP     C190675  10.662   8.734   8.691  0.0649 -0.0907  0.4313
 2450PBP     C190676  10.479   8.317   8.550  0.1347  0.3327 -0.1286
 2450PBP     CP90677  10.256   8.000   8.368  0.1003  0.2894  0.2182
 2450PBP     CP90678   9.980   7.852   8.459 -0.2283 -0.1988  0.3488
 2450PBP     CP90679   9.832   7.911   8.745  0.4463 -0.2645  0.0964
 2450PBP     Ch90680   9.869   8.154   8.915 -0.1067 -0.1058 -0.1207
 2451PBP     C190681   7.065  12.454   6.887  0.2613 -0.0357 -0.2919
 2451PBP     C190682   7.475  12.504   6.771  0.1042 -0.1086  0.1969
 2451PBP     C190683   7.749  12.398   7.109 -0.1955 -0.3030 -0.2103
 2451PBP     C190684   8.146  12.157   7.385 -0.2060  0.0123 -0.2831
 2451PBP     C190685   8.543  12.000   7.523  0.1328 -0.2920 -0.3413
 2451PBP     C190686   8.811  12.007   7.967  0.0763 -0.0047 -0.0978
 2451PBP     C190687   9.166  11.725   8.129 -0.4892  0.3444 -0.7420
 2451PBP     C190688   9.430  11.458   8.458  0.1084 -0.1935  0.3559
 2451PBP     CP90689   9.107  11.202   8.650  0.3945 -0.1875  0.3816
 2451PBP     CP90690   8.887  10.981   8.521 -0.4578  0.2713  0.0283
 2451PBP     CP90691   8.620  10.878   8.657  0.0262 -0.2756  0.1375
 2451PBP     Ch90692   8.624  10.755   8.865 -0.0554  0.0995  0.2703
 2452PBP     C190693   9.623   8.908  16.139 -0.1157  0.2451  0.2387
 2452PBP     C190694   9.950   8.561  16.023 -0.0811  0.4782 -0.0820
 2452PBP     C190695  10.137   8.605  15.635 -0.0225  0.1691 -0.5124
 2452PBP     C190696  10.232   8.641  15.120 -0.2004 -0.2250 -0.4730
 2452PBP     C190697  10.717   8.477  14.958  0.0251 -0.3000 -0.0773
 2452PBP     C190698  10.997   8.602  14.884 -0.0488 -0.1827  0.1087
 2452PBP     C190699  11.036   8.747  14.470 -0.2971  0.3225  0.0777
 2452PBP     C190700  11.122   8.545  14.002 -0.1155  0.0423  0.1029
 2452PBP     CP90701  11.320   8.749  13.756  0.1225  0.2690  0.4222
 2452PBP     CP90702  11.577   8.760  13.657 -0.5246  0.6115 -0.2327
 2452PBP     CP90703  11.811   8.869  13.849 -0.1584 -0.0116 -0.1306
 2452PBP     Ch90704  12.052   8.795  13.848  0.2455 -0.1798 -0.0205
 2453PBP     C190705   2.171  14.003   8.718  0.1852 -0.0580 -0.3988
 2453PBP     C190706   2.609  13.824   8.719 -0.5108  0.1621 -0.1113
 2453PBP     C190707   3.003  13.783   8.891  0.0422  0.2239  0.0015
 2453PBP     C190708   3.464  13.622   9.147  0.2674 -0.4291  0.2190
 2453PBP     C190709   3.915  13.560   9.157  0.0749 -0.4361  0.0523
 2453PBP     C190710   4.329  13.513   9.189  0.1535 -0.1150  0.1047
 2453PBP     C190711   4.690  13.298   9.109  0.2742 -0.1705  0.1068
 2453PBP     C190712   5.118  13.255   9.098  0.1292  0.0712  0.3301
 2453PBP     CP90713   5.272  12.865   9.200  0.1744  0.0494  0.1434
 2453PBP     CP90714   5.185  12.608   9.028 -0.3031 -0.3298  0.0811
 2453PBP     CP90715   5.249  12.278   9.024 -0.3165  0.5157  0.6026
 2453PBP     Ch90716   5.257  11.973   8.926  0.2687 -0.3920 -0.3870
 2454PBP     C190717   7.080   9.847  15.117 -0.0933  0.0229 -0.4332
 2454PBP     C190718   7.338  10.244  15.176 -0.3145  0.1653  0.2079
 2454PBP     C190719   7.467  10.577  15.281 -0.1389 -0.3140  0.0463
 2454PBP     C190720   7.563  11.111  15.205 -0.3141  0.2007  0.1908
 2454PBP     C190721   8.016  11.121  14.983 -0.1536 -0.1813  0.0360
 2454PBP     C190722   8.033  11.175  14.585  0.1629 -0.0645  0.3052
 2454PBP     C190723   8.238  11.125  14.196  0.2226  0.2640  0.2785
 2454PBP     C190724   8.389  11.408  13.865  0.1660 -0.2233  0.0016
 2454PBP     CP90725   8.110  11.405  13.596  0.5032 -0.1863 -0.0343
 2454PBP     CP90726   7.908  11.515  13.428 -0.2758 -0.3804 -0.0525
 2454PBP     CP90727   7.933  11.564  13.122 -0.6494 -0.1339 -0.6526
 2454PBP     Ch90728   8.033  11.580  12.871  0.5936  0.2426  0.1370
 2455PBP     C190729  13.857   4.297  14.491 -0.0127 -0.1942  0.1592
 2455PBP     C190730  13.349   4.395  14.580  0.2124  0.0649 -0.2150
 2455PBP     C190731  13.256   4.555  14.218 -0.1909 -0.0903 -0.2036
 2455PBP     C190732  13.033   4.428  13.937 -0.5215  0.3758 -0.5518
 2455PBP     C190733  12.659   4.394  13.793  0.2024 -0.1438  0.3180
 2455PBP     C190734  12.482   4.558  13.385  0.2120 -0.0415 -0.0038
 2455PBP     C190735  12.091   4.441  13.060  0.3480  0.0760 -0.2043
 2455PBP     C190736  12.040   4.532  12.632  0.1681 -0.3676  0.0523
 2455PBP     CP90737  12.338   4.685  12.425 -0.2352 -0.4046  0.4091
 2455PBP     CP90738  12.602   4.794  12.358  0.2480  0.0291  0.2475
 2455PBP     CP90739  12.908   4.832  12.443 -0.1423  0.1694 -0.2635
 2455PBP     Ch90740  12.955   5.077  12.296 -0.0299  0.5298  0.2122
 2456PBP     C190741   4.837   7.948   7.923  0.1117 -0.0124  0.0035
 2456PBP     C190742   4.457   8.153   8.182 -0.2558  0.0195  0.0437
 2456PBP     C190743   4.102   8.188   8.209  0.2006 -0.0440  0.0328
 2456PBP     C190744   3.964   8.560   8.426  0.0906  0.1192  0.0991
 2456PBP     C190745   3.873   8.746   8.758 -0.1056 -0.3459 -0.2213
 2456PBP     C190746   4.114   9.099   8.802  0.1656  0.1810 -0.1117
 2456PBP     C190747   4.403   9.526   9.040  0.0305 -0.0888 -0.1641
 2456PBP     C190748   4.772   9.833   9.091  0.0283 -0.2716 -0.0121
 2456PBP     CP90749   5.135   9.971   9.176  0.2961 -0.1438 -0.0510
 2456PBP     CP90750   5.182   9.985   9.479 -0.2484 -0.3489 -0.1298
 2456PBP     CP90751   5.341  10.226   9.720 -0.1936 -0.3858 -0.0122
 2456PBP     Ch90752   5.258  10.302   9.979 -0.3079 -0.1295 -0.2310
 2457PBP     C190753   3.472   8.943   9.117 -0.0065 -0.1473  0.0093
 2457PBP     C190754   3.739   9.264   9.161  0.3452  0.3801 -0.1321
 2457PBP     C190755   3.899   9.697   9.015  0.1422  0.2725 -0.1361
 2457PBP     C190756   4.124  10.044   9.151  0.0894  0.3625 -0.2036
 2457PBP     C190757   4.131  10.327   8.872  0.1080 -0.1300 -0.0059
 2457PBP     C190758   4.382  10.653   8.838  0.2217 -0.0435  0.2471
 2457PBP     C190759   4.658  10.893   8.644  0.2575 -0.3572  0.3262
 2457PBP     C190760   5.023  11.253   8.686  0.3131 -0.0121  0.2468
 2457PBP     CP90761   5.345  11.541   8.660 -0.2093  0.0275 -0.0543
 2457PBP     CP90762   5.588  11.780   8.590 -0.1457  0.2368 -0.1729
 2457PBP     CP90763   5.616  12.050   8.580 -0.0537  0.1552  0.0219
 2457PBP     Ch90764   5.389  12.231   8.577  0.2425 -0.2047 -0.3715
 2458PBP     C190765  10.470  17.053  12.594  0.0155  0.0626 -0.0955
 2458PBP     C190766  10.293  16.578  12.530 -0.0923 -0.0831 -0.1088
 2458PBP     C190767   9.966  16.669  12.476  0.2513  0.1349 -0.2639
 2458PBP     C190768   9.387  16.753  12.425 -0.2303  0.1609 -0.1325
 2458PBP     C190769   9.135  16.699  12.076 -0.0808  0.1914  0.5037
 2458PBP     C190770   8.831  16.471  11.881 -0.4539 -0.2306 -0.1780
 2458PBP     C190771   8.933  16.155  11.497  0.1697  0.3086  0.1470
 2458PBP     C190772   9.106  16.067  11.094 -0.2756 -0.0583  0.0317
 2458PBP     CP90773   8.957  15.722  11.022 -0.1737 -0.2305 -0.1309
 2458PBP     CP90774   8.877  15.449  10.920 -0.1033 -0.3283  0.3423
 2458PBP     CP90775   9.015  15.159  10.944 -0.0913 -0.6095 -0.0398
 2458PBP     Ch90776   9.242  14.998  11.009 -0.1035 -0.0162 -0.2878
 2459PBP     C190777  13.083   3.969  10.126  0.1296 -0.0282 -0.1689
 2459PBP     C190778  12.877   4.345  10.545 -0.0230 -0.2162  0.0740
 2459PBP     C190779  12.345   4.366  10.648  0.0127  0.0441 -0.3138
 2459PBP     C190780  12.069   4.647  10.336 -0.3405 -0.1331  0.1363
 2459PBP     C190781  11.580   4.704  10.370 -0.3547  0.0160  0.2952
 2459PBP     C190782  11.275   4.905  10.608 -0.1249  0.0861  0.0467
 2459PBP     C190783  10.957   4.868  10.310 -0.1800  0.0179 -0.1319
 2459PBP     C190784  10.799   5.225  10.074 -0.3715  0.2777 -0.4779
 2459PBP     CP90785  10.697   5.601  10.098  0.2080  0.1086  0.5882
 2459PBP     CP90786  10.672   5.870  10.138 -0.4016 -0.0989 -0.3727
 2459PBP     CP90787  10.861   6.191  10.211 -0.1290 -0.0480 -0.0845
 2459PBP     Ch90788  11.005   6.465  10.333  0.3485  0.1728 -0.1980
 2460PBP     C190789   3.928   6.174   7.616  0.2401  0.0206 -0.1254
 2460PBP     C190790   4.191   6.373   7.705 -0.1158  0.5482 -0.2878
 2460PBP     C190791   4.430   6.708   7.684  0.0155  0.0977 -0.0028
 2460PBP     C190792   4.874   6.966   7.702  0.0049  0.0349  0.1406
 2460PBP     C190793   5.295   7.058   7.444  0.2511  0.3207 -0.0917
 2460PBP     C190794   5.701   6.851   7.478 -0.1081  0.3551 -0.0754
 2460PBP     C190795   6.160   6.884   7.234  0.1398  0.4208  0.2659
 2460PBP     C190796   6.500   6.926   7.168 -0.4303  0.2194  0.1381
 2460PBP     CP90797   6.829   6.706   7.197  0.0893  0.1812  0.2107
 2460PBP     CP90798   7.028   6.596   7.343 -0.1657 -0.1060  0.7128
 2460PBP     CP90799   7.172   6.531   7.626  0.5032 -0.3108  0.0779
 2460PBP     Ch90800   7.315   6.580   7.831 -0.1849 -0.1593  0.4265
 2461PBP     C190801   9.956  11.466  14.610  0.0317 -0.2141  0.0012
 2461PBP     C190802   9.666  11.185  14.833  0.1168 -0.2236  0.3072
 2461PBP     C190803   9.638  10.763  14.836  0.2318  0.3486 -0.1032
 2461PBP     C190804   9.971  10.591  14.746  0.4086 -0.1764  0.1425
 2461PBP     C190805  10.047  10.363  14.432 -0.0635 -0.0823  0.0972
 2461PBP     C190806  10.167  10.002  13.999 -0.0735  0.2288  0.4175
 2461PBP     C190807   9.960   9.839  13.744  0.4202 -0.0847 -0.3663
 2461PBP     C190808   9.704  10.280  13.696  0.4761 -0.0912 -0.4025
 2461PBP     CP90809   9.734  10.510  13.398  0.1652  0.3341  0.1512
 2461PBP     CP90810   9.466  10.438  13.239 -0.0066 -0.2243  0.1926
 2461PBP     CP90811   9.201  10.261  13.185  0.0029 -0.2379 -0.0454
 2461PBP     Ch90812   8.954  10.276  13.039  0.1965 -0.8344  0.2029
 2462PBP     C190813   2.877  14.752   8.380  0.2427 -0.4201 -0.1267
 2462PBP     C190814   3.160  14.941   8.613 -0.0419  0.2468 -0.1130
 2462PBP     C190815   3.290  15.107   9.077 -0.2210  0.2100  0.0057
 2462PBP     C190816   3.690  15.098   9.253 -0.2558 -0.0458 -0.0552
 2462PBP     C190817   4.157  14.825   9.253  0.2205  0.1535 -0.3278
 2462PBP     C190818   4.592  14.754   9.484 -0.3136  0.0241 -0.3162
 2462PBP     C190819   4.832  14.430   9.705 -0.0729  0.1025  0.2433
 2462PBP     C190820   5.251  14.323   9.787 -0.0287  0.3457  0.0730
 2462PBP     CP90821   5.678  14.285   9.818 -0.0665 -0.2293  0.3021
 2462PBP     CP90822   5.956  14.347   9.924 -0.4299 -0.0714 -0.3140
 2462PBP     CP90823   6.216  14.202   9.937 -0.1797  0.1216 -0.0696
 2462PBP     Ch90824   6.395  14.015  10.008  0.5160  0.5139 -0.2493
 2463PBP     C190825  15.406  10.742   9.774 -0.1306 -0.2529 -0.2574
 2463PBP     C190826  15.751  10.500   9.599  0.0201  0.1571  0.1215
 2463PBP     C190827  16.245  10.333   9.637 -0.0869 -0.1857  0.1230
 2463PBP     C190828  16.459  10.077   9.859 -0.0105 -0.0529 -0.0405
 2463PBP     C190829  16.197   9.628   9.974 -0.1584  0.0701  0.1830
 2463PBP     C190830  16.037   9.177   9.884  0.2705 -0.1764  0.1141
 2463PBP     C190831  15.670   9.502   9.937 -0.1883 -0.3445 -0.1954
 2463PBP     C190832  15.449   9.675  10.091  0.4900  0.1093 -0.0159
 2463PBP     CP90833  15.341   9.838  10.405  0.0538  0.3510 -0.4713
 2463PBP     CP90834  15.003   9.779  10.343  0.4520  0.5224 -0.3351
 2463PBP     CP90835  14.682   9.641  10.362  0.8951  0.0797  0.0527
 2463PBP     Ch90836  14.639   9.537  10.612 -0.3738 -0.3189  0.4449
 2464PBP     C190837  11.789   9.992   8.110 -0.1984 -0.0853 -0.2622
 2464PBP     C190838  12.080   9.993   8.475  0.1019 -0.0454 -0.1291
 2464PBP     C190839  12.511   9.749   8.607 -0.0431 -0.1064  0.4096
 2464PBP     C190840  12.738   9.406   8.607  0.1091  0.2383  0.0068
 2464PBP     C190841  12.720   8.897   8.671  0.1129  0.3143  0.0224
 2464PBP     C190842  12.291   8.631   8.796  0.1136 -0.2888  0.2758
 2464PBP     C190843  11.888   8.781   8.971 -0.0112 -0.0470  0.1863
 2464PBP     C190844  12.017   9.194   9.185  0.3226 -0.0528  0.2349
 2464PBP     CP90845  11.969   9.570   9.306  0.1689 -0.1636 -0.0307
 2464PBP     CP90846  11.967   9.909   9.356 -0.2604  0.1128  0.2909
 2464PBP     CP90847  11.806  10.120   9.583  0.0987  0.1015  0.3518
 2464PBP     Ch90848  11.623  10.179   9.779  0.0584 -0.3970 -0.2191
 2465PBP     C190849  14.109  12.630  17.824  0.0575 -0.0460 -0.1931
 2465PBP     C190850  14.041  12.604  17.400 -0.1470  0.1682  0.1975
 2465PBP     C190851  14.131  12.609  17.054  0.4818  0.1774 -0.1387
 2465PBP     C190852  14.279  12.358  16.759  0.0130  0.5694  0.2284
 2465PBP     C190853  14.165  12.070  16.406 -0.0455 -0.3833  0.4746
 2465PBP     C190854  13.875  11.679  16.236 -0.0842  0.4134 -0.2989
 2465PBP     C190855  13.491  11.889  15.959 -0.1752  0.3026 -0.1791
 2465PBP     C190856  13.473  11.989  15.524 -0.1293  0.1064  0.1563
 2465PBP     CP90857  13.245  12.272  15.339 -0.1770  0.0653 -0.0755
 2465PBP     CP90858  13.108  12.482  15.124 -0.0999 -0.1048  0.5182
 2465PBP     CP90859  13.219  12.765  15.087 -0.2792 -0.2146  0.5391
 2465PBP     Ch90860  13.239  12.926  14.860  0.1859 -0.0373  0.4708
 2466PBP     C190861   6.059  11.722  15.637 -0.2657  0.3197 -0.1809
 2466PBP     C190862   6.141  11.761  15.228  0.1003  0.3388  0.2318
 2466PBP     C190863   6.062  11.846  14.742 -0.0816  0.3773  0.0583
 2466PBP     C190864   5.936  11.865  14.330 -0.0288  0.0223  0.0339
 2466PBP     C190865   5.521  11.770  14.079  0.2004  0.3701 -0.0165
 2466PBP     C190866   5.363  11.847  13.660 -0.0290 -0.2698  0.3355
 2466PBP     C190867   5.586  12.048  13.228  0.0833  0.2671 -0.1323
 2466PBP     C190868   5.867  12.279  12.875  0.1644  0.1655 -0.4317
 2466PBP     CP90869   6.054  12.325  12.534  0.2178 -0.1307 -0.2696
 2466PBP     CP90870   6.387  12.356  12.532 -0.0030 -0.6917 -0.0216
 2466PBP     CP90871   6.634  12.162  12.635  0.0875  0.1837 -0.1561
 2466PBP     Ch90872   6.716  11.885  12.601 -0.1308  0.4089  0.3183
 2467PBP     C190873  12.360  15.828  10.080 -0.1574  0.2745 -0.1253
 2467PBP     C190874  12.466  16.221  10.124 -0.1593  0.1557  0.4626
 2467PBP     C190875  12.885  16.343  10.337  0.2947  0.3586  0.2118
 2467PBP     C190876  13.242  16.019  10.537  0.0158 -0.1828 -0.0760
 2467PBP     C190877  13.754  16.127  10.686  0.0864 -0.1102  0.0606
 2467PBP     C190878  14.149  16.076  10.721  0.0037  0.1136 -0.1164
 2467PBP     C190879  14.411  15.769  10.520  0.6265  0.0439  0.5291
 2467PBP     C190880  14.619  15.431  10.686 -0.2272 -0.0922  0.0483
 2467PBP     CP90881  14.601  15.023  10.833  0.2025 -0.2669 -0.2818
 2467PBP     CP90882  14.709  14.728  10.866 -0.0647 -0.1132 -0.1293
 2467PBP     CP90883  14.787  14.439  11.046  0.4370  0.5115 -0.0019
 2467PBP     Ch90884  14.816  14.478  11.291 -0.5623  0.0626  0.2006
 2468PBP     C190885   7.818  11.019  13.665 -0.0219 -0.0491 -0.1958
 2468PBP     C190886   7.854  11.349  14.019 -0.3805 -0.2048 -0.0526
 2468PBP     C190887   7.787  11.734  14.204 -0.1045 -0.1586 -0.3232
 2468PBP     C190888   7.744  12.144  14.196 -0.1796 -0.2310 -0.0102
 2468PBP     C190889   7.770  12.589  14.360 -0.1148  0.2737 -0.0517
 2468PBP     C190890   8.109  12.819  14.476  0.3334 -0.0715  0.2890
 2468PBP     C190891   8.450  12.843  14.425  0.1898 -0.0592  0.3351
 2468PBP     C190892   8.681  12.966  14.074 -0.2449 -0.0462 -0.0683
 2468PBP     CP90893   8.579  13.048  13.658  0.0569  0.0304  0.0283
 2468PBP     CP90894   8.459  12.872  13.375  0.1389  0.0614  0.0574
 2468PBP     CP90895   8.234  12.918  13.189  0.4733  0.0328  0.3640
 2468PBP     Ch90896   8.004  12.938  13.072  0.0839  0.1965 -0.0288
 2469PBP     C190897  14.820   4.357   9.860  0.1249 -0.0088  0.0572
 2469PBP     C190898  14.369   4.216  10.134  0.0533  0.0073 -0.2732
 2469PBP     C190899  14.286   4.463  10.369  0.2854  0.1460 -0.4770
 2469PBP     C190900  14.089   4.534  10.787 -0.2204  0.0019  0.2147
 2469PBP     C190901  14.309   5.016  10.926 -0.1481 -0.1931  0.0721
 2469PBP     C190902  14.510   5.369  10.820  0.0094 -0.0982 -0.0158
 2469PBP     C190903  14.539   5.503  10.356 -0.1497  0.3384 -0.3160
 2469PBP     C190904  14.631   5.663   9.957  0.1948  0.0125 -0.0594
 2469PBP     CP90905  14.635   6.038   9.793 -0.3330 -0.5624 -0.2168
 2469PBP     CP90906  14.860   6.269   9.723 -0.2659 -0.1603 -0.0845
 2469PBP     CP90907  15.002   6.460   9.910  0.2777 -0.2001  0.2420
 2469PBP     Ch90908  14.919   6.429  10.158  0.5537 -0.1318 -0.2175
 2470PBP     C190909   6.949   4.878  14.151  0.2248 -0.3530  0.1106
 2470PBP     C190910   7.309   4.815  14.130 -0.0084  0.1773 -0.0471
 2470PBP     C190911   7.648   5.011  14.199 -0.1610 -0.2564  0.1529
 2470PBP     C190912   8.026   5.057  14.001 -0.2464  0.0676  0.0925
 2470PBP     C190913   8.550   5.082  14.033  0.0375 -0.0746 -0.0357
 2470PBP     C190914   8.952   5.030  13.663 -0.2415  0.0259  0.0178
 2470PBP     C190915   9.139   5.343  13.266 -0.3035  0.1948  0.0879
 2470PBP     C190916   8.963   5.503  12.928 -0.0715 -0.2947 -0.1216
 2470PBP     CP90917   9.038   5.621  12.518 -0.2797 -0.3195  0.3857
 2470PBP     CP90918   8.853   5.821  12.425  0.5957  0.0770  0.5163
 2470PBP     CP90919   8.819   6.158  12.481 -0.2713  0.3095  0.2742
 2470PBP     Ch90920   8.635   6.300  12.387 -0.2205 -0.4563  0.2670
 2471PBP     C190921   6.512   9.435  14.143  0.0902  0.0958  0.4613
 2471PBP     C190922   6.387   9.653  13.771 -0.6402 -0.1665  0.0166
 2471PBP     C190923   6.515  10.058  13.489 -0.3059 -0.1644  0.1343
 2471PBP     C190924   6.758  10.194  13.116 -0.0235  0.0849 -0.1382
 2471PBP     C190925   6.554  10.485  12.906 -0.3904 -0.4545  0.0911
 2471PBP     C190926   6.219  10.765  13.008 -0.0554  0.0236 -0.3280
 2471PBP     C190927   6.098  11.079  12.894  0.1607 -0.2516  0.2491
 2471PBP     C190928   6.412  11.400  13.015 -0.5709  0.0807 -0.2879
 2471PBP     CP90929   6.742  11.547  12.839  0.2860  0.4646 -0.0167
 2471PBP     CP90930   7.026  11.556  12.621  0.3467 -0.3551  0.9173
 2471PBP     CP90931   7.348  11.544  12.725  0.1369 -0.5188 -0.1401
 2471PBP     Ch90932   7.560  11.513  12.813  0.0358  0.0070  0.3815
 2472PBP     C190933  12.798   9.196   6.884  0.0467  0.3290 -0.3506
 2472PBP     C190934  12.648   9.249   7.319 -0.4555 -0.1815  0.0632
 2472PBP     C190935  12.356   9.447   7.673 -0.2164 -0.3603  0.0615
 2472PBP     C190936  12.102   9.642   7.958  0.1786 -0.0145 -0.0191
 2472PBP     C190937  11.957   9.450   8.285 -0.4079 -0.5110  0.1945
 2472PBP     C190938  11.585   9.170   8.338 -0.1287  0.0406  0.2752
 2472PBP     C190939  11.443   9.074   8.800 -0.2405 -0.0363 -0.0605
 2472PBP     C190940  11.292   9.349   9.143 -0.0599 -0.3134  0.1592
 2472PBP     CP90941  11.067   9.523   9.401  0.2128 -0.1220 -0.0737
 2472PBP     CP90942  10.841   9.714   9.384  0.0541  0.1955  0.1431
 2472PBP     CP90943  10.551   9.727   9.203  0.4922  0.3316  0.0997
 2472PBP     Ch90944  10.395   9.538   9.238  0.0408  0.3190 -0.6412
 2473PBP     C190945  17.295   7.895  11.358 -0.1613  0.0962 -0.0946
 2473PBP     C190946  17.237   7.497  11.291  0.2444  0.0376  0.2018
 2473PBP     C190947  17.253   6.988  11.152 -0.1383  0.1221  0.4054
 2473PBP     C190948  17.063   6.606  11.040  0.0642 -0.3680  0.4576
 2473PBP     C190949  17.303   6.228  10.841  0.1339  0.3179  0.0841
 2473PBP     C190950  17.215   5.901  10.960 -0.3351  0.0055 -0.0633
 2473PBP     C190951  16.805   5.566  10.960  0.0153 -0.0574  0.1105
 2473PBP     C190952  16.341   5.465  11.153  0.3559 -0.1335 -0.1230
 2473PBP     CP90953  16.053   5.522  11.396 -0.4435 -0.0255 -0.1924
 2473PBP     CP90954  15.831   5.571  11.620  0.0222  0.1936  0.2387
 2473PBP     CP90955  15.761   5.581  11.943 -0.1480  0.1637  0.3692
 2473PBP     Ch90956  15.731   5.364  12.125  0.5922  0.2992 -0.1514
 2474PBP     C190957  15.925   8.101   8.234 -0.4537 -0.4672 -0.3917
 2474PBP     C190958  16.115   8.362   7.931  0.3565 -0.1426 -0.2214
 2474PBP     C190959  15.883   8.796   7.920 -0.0738  0.0616 -0.0441
 2474PBP     C190960  15.485   8.887   8.132  0.0240 -0.5680 -0.0931
 2474PBP     C190961  15.229   8.900   8.492 -0.1372  0.0339 -0.1426
 2474PBP     C190962  15.284   8.507   8.767  0.0704  0.4132  0.1125
 2474PBP     C190963  15.102   8.260   9.032  0.2592 -0.1843  0.2735
 2474PBP     C190964  14.894   8.172   9.386 -0.0730  0.2783 -0.4308
 2474PBP     CP90965  14.640   7.903   9.605 -0.5594  0.1817  0.1485
 2474PBP     CP90966  14.554   8.078   9.854  0.1392 -0.5673  0.1078
 2474PBP     CP90967  14.533   8.149  10.135 -0.2160 -0.0370  0.2966
 2474PBP     Ch90968  14.658   8.175  10.414  0.0595  0.4180  0.0665
 2475PBP     C190969  10.772   4.707  14.633  0.1674 -0.0026 -0.2676
 2475PBP     C190970  11.129   4.571  14.414 -0.1406 -0.4541  0.0628
 2475PBP     C190971  11.630   4.333  14.436  0.5637 -0.0511 -0.3277
 2475PBP     C190972  11.891   4.147  14.675  0.1482 -0.0381  0.5095
 2475PBP     C190973  12.194   4.255  14.808 -0.0557 -0.3027 -0.0965
 2475PBP     C190974  12.466   4.452  15.090  0.0996  0.3260 -0.0123
 2475PBP     C190975  12.503   4.607  15.521 -0.1974 -0.0575 -0.1419
 2475PBP     C190976  12.461   4.806  15.924 -0.3943 -0.0122  0.2885
 2475PBP     CP90977  12.577   4.948  16.284  0.1021  0.1264 -0.1554
 2475PBP     CP90978  12.666   5.228  16.409  0.0620  0.2441 -0.2938
 2475PBP     CP90979  12.961   5.422  16.410 -0.0455  0.1599  0.1563
 2475PBP     Ch90980  13.225   5.396  16.289 -0.0015 -0.0586  0.0154
 2476PBP     C190981  16.838  11.621  16.225 -0.0102 -0.0369 -0.4915
 2476PBP     C190982  16.473  11.574  16.037 -0.1154  0.1447 -0.1512
 2476PBP     C190983  16.024  11.761  15.987  0.1097  0.3736 -0.0984
 2476PBP     C190984  15.770  11.907  16.201  0.1092  0.1318  0.0686
 2476PBP     C190985  15.591  12.185  16.410 -0.3463 -0.1141 -0.0947
 2476PBP     C190986  15.212  12.555  16.299 -0.3656  0.1085  0.0872
 2476PBP     C190987  14.665  12.661  16.141  0.2459 -0.1810 -0.1170
 2476PBP     C190988  14.666  12.723  15.684 -0.3177  0.2156  0.2892
 2476PBP     CP90989  14.393  12.837  15.421  0.2661  0.1973 -0.1219
 2476PBP     CP90990  14.135  12.996  15.275  0.0869  0.0357  0.1440
 2476PBP     CP90991  13.828  13.000  15.235  0.2395  0.0770  0.1231
 2476PBP     Ch90992  13.677  12.989  15.003 -0.0355  0.3608 -0.4007
 2477PBP     C190993  14.583  16.017  16.905 -0.4171 -0.1481  0.0100
 2477PBP     C190994  14.716  15.646  17.015 -0.0779 -0.4624  0.1972
 2477PBP     C190995  14.750  15.208  16.942 -0.1567  0.0755  0.2990
 2477PBP     C190996  14.743  14.802  16.771  0.1026  0.4884  0.1735
 2477PBP     C190997  14.412  14.611  16.708  0.2210 -0.3400 -0.3595
 2477PBP     C190998  14.255  14.337  16.393 -0.3644  0.1683  0.2149
 2477PBP     C190999  13.839  14.227  16.127  0.1646 -0.3149  0.1733
 2477PBP     C191000  13.599  14.183  15.718  0.2350  0.0651  0.0478
 2477PBP     CP91001  13.219  14.082  15.637 -0.4269  0.0778 -0.4639
 2477PBP     CP91002  13.016  14.025  15.465 -0.0191 -0.3568  0.6653
 2477PBP     CP91003  12.707  14.103  15.331 -0.2130 -0.2309  0.0259
 2477PBP     Ch91004  12.714  14.360  15.432 -0.0204  0.0192 -0.0513
 2478PBP     C191005   5.809   7.386  11.775  0.0709 -0.1691  0.0101
 2478PBP     C191006   5.768   7.623  11.986 -0.1439 -0.1555 -0.1610
 2478PBP     C191007   5.712   7.822  12.413 -0.2608 -0.2189 -0.0898
 2478PBP     C191008   6.077   8.024  12.340  0.3095  0.0968  0.0908
 2478PBP     C191009   6.572   8.190  12.574  0.1159 -0.2603  0.0463
 2478PBP     C191010   6.789   8.349  12.890 -0.1020  0.3190  0.0823
 2478PBP     C191011   7.136   8.117  13.111  0.0267 -0.0826  0.0484
 2478PBP     C191012   7.508   7.837  12.917 -0.2411 -0.2892 -0.0523
 2478PBP     CP91013   7.564   7.606  12.614 -0.0045 -0.1347  0.2663
 2478PBP     CP91014   7.630   7.513  12.351 -0.1748  0.1485  0.2160
 2478PBP     CP91015   7.657   7.220  12.264 -0.0667  0.1509  0.5245
 2478PBP     Ch91016   7.552   7.007  12.146  0.2740 -0.0133  0.1979
 2479PBP     C191017   8.008  14.331   7.570 -0.0655  0.0979 -0.3442
 2479PBP     C191018   8.313  14.200   7.744  0.0518  0.0205 -0.1114
 2479PBP     C191019   8.675  14.020   8.093  0.5250 -0.0104 -0.2459
 2479PBP     C191020   8.775  13.865   8.419  0.1102  0.0240 -0.1357
 2479PBP     C191021   9.161  13.723   8.525 -0.0630 -0.2601  0.1823
 2479PBP     C191022   9.254  13.230   8.409  0.1125  0.0625 -0.0771
 2479PBP     C191023   9.207  13.012   7.968 -0.3375  0.1412  0.1591
 2479PBP     C191024   8.719  13.093   7.906 -0.0728  0.0239 -0.3225
 2479PBP     CP91025   8.377  13.063   8.082  0.3398  0.0239 -0.2565
 2479PBP     CP91026   8.080  13.035   8.165 -0.1971 -0.0678 -0.4240
 2479PBP     CP91027   7.935  12.777   8.216 -0.0402 -0.3308  0.2176
 2479PBP     Ch91028   7.847  12.753   8.482 -0.0066 -0.5266 -0.3113
 2480PBP     C191029  15.901  17.108  21.027 -0.1901 -0.2322 -0.1687
 2480PBP     C191030  15.683  17.374  20.709  0.1240  0.3187  0.3306
 2480PBP     C191031  15.464  17.663  20.594  0.1985  0.0943 -0.2882
 2480PBP     C191032  15.290  18.046  20.772  0.0662 -0.3762 -0.1607
 2480PBP     C191033  15.043  18.285  21.169  0.1596 -0.1070  0.3789
 2480PBP     C191034  14.594  18.399  21.382  0.0188  0.2442  0.0274
 2480PBP     C191035  14.285  18.668  21.197  0.0572  0.0764 -0.0281
 2480PBP     C191036  13.874  18.737  21.411  0.2327  0.4652 -0.1683
 2480PBP     CP91037  13.558  18.989  21.254 -0.5699  0.4182 -0.2188
 2480PBP     CP91038  13.477  19.147  21.015 -1.0760  0.5252  0.2066
 2480PBP     CP91039  13.454  19.399  20.884 -0.2320 -0.0525 -0.4278
 2480PBP     Ch91040  13.714  19.528  20.859 -0.2658  0.3034 -0.4722
 2481PBP     C191041   3.685   7.499   9.532 -0.1871  0.1549 -0.1675
 2481PBP     C191042   3.992   7.826   9.672 -0.2035  0.4950  0.0636
 2481PBP     C191043   4.280   7.985   9.364  0.4772  0.3588  0.0696
 2481PBP     C191044   4.645   7.942   9.072  0.2460 -0.1274 -0.5573
 2481PBP     C191045   4.795   7.947   8.643  0.3689  0.1026 -0.2169
 2481PBP     C191046   5.094   7.549   8.441 -0.1135 -0.4407 -0.4294
 2481PBP     C191047   5.608   7.556   8.542  0.1314 -0.0806 -0.0920
 2481PBP     C191048   5.930   7.471   8.841  0.1822  0.2389  0.0862
 2481PBP     CP91049   6.269   7.572   9.026  0.0700 -0.0896 -0.1241
 2481PBP     CP91050   6.565   7.602   9.118  0.6025  0.0921  0.3128
 2481PBP     CP91051   6.796   7.314   9.161  0.0119  0.3536  0.2475
 2481PBP     Ch91052   6.972   7.140   9.192 -0.2498 -0.0721  0.2110
 2482PBP     C191053   8.511   9.261   7.003  0.4701  0.0534 -0.0025
 2482PBP     C191054   8.942   8.964   6.815  0.2125 -0.0091 -0.1276
 2482PBP     C191055   9.212   8.622   6.836 -0.1623 -0.1416 -0.3817
 2482PBP     C191056   9.565   8.431   6.728  0.0023  0.1296  0.4581
 2482PBP     C191057   9.782   8.098   7.033 -0.0412  0.2716  0.3387
 2482PBP     C191058   9.713   7.947   7.308  0.0973  0.6106 -0.2684
 2482PBP     C191059   9.458   7.858   7.616 -0.0423 -0.1727 -0.3060
 2482PBP     C191060   9.126   7.753   7.798  0.0233  0.1900 -0.1685
 2482PBP     CP91061   8.926   7.712   8.154 -0.3368  0.2909  0.3873
 2482PBP     CP91062   8.670   7.680   8.324 -0.0444  0.2623 -0.5074
 2482PBP     CP91063   8.378   7.741   8.212 -0.2354 -0.2596  0.3853
 2482PBP     Ch91064   8.222   7.550   8.247 -0.3122 -0.2499  0.2854
 2483PBP     C191065  15.091  10.144  15.647  0.5401 -0.2949  0.2467
 2483PBP     C191066  14.888  10.083  15.333 -0.1857 -0.3972 -0.1351
 2483PBP     C191067  15.085   9.959  15.062  0.4037  0.1194 -0.3188
 2483PBP     C191068  15.404   9.876  14.649  0.0598  0.3732  0.3448
 2483PBP     C191069  15.580   9.486  14.634 -0.0845 -0.2730 -0.1435
 2483PBP     C191070  15.489   9.036  14.606  0.2265 -0.4074  0.2118
 2483PBP     C191071  15.341   8.657  14.924  0.5399 -0.0153 -0.1678
 2483PBP     C191072  15.315   8.167  14.852  0.1751  0.0297  0.4375
 2483PBP     CP91073  14.999   7.994  14.839  0.4067 -0.0702 -0.2622
 2483PBP     CP91074  14.798   7.760  14.721 -0.1046 -0.5185  0.2316
 2483PBP     CP91075  14.503   7.737  14.674 -0.0326 -0.1058  0.0073
 2483PBP     Ch91076  14.328   7.611  14.595  0.3614  0.2735 -0.1419
 2484PBP     C191077   9.914   3.071   8.770  0.1176  0.1839 -0.0464
 2484PBP     C191078   9.801   3.351   8.445  0.0669  0.2692 -0.0049
 2484PBP     C191079   9.829   3.737   8.302 -0.1681 -0.4834 -0.0117
 2484PBP     C191080   9.740   4.053   8.251  0.0453 -0.3159  0.0283
 2484PBP     C191081   9.717   4.502   8.124 -0.3568 -0.0912  0.3792
 2484PBP     C191082   9.831   4.867   8.491  0.0247  0.4171  0.2078
 2484PBP     C191083   9.758   4.810   8.965 -0.4383  0.3380  0.0012
 2484PBP     C191084   9.343   4.739   9.090  0.2370 -0.3513  0.0129
 2484PBP     CP91085   9.032   4.894   9.143 -0.0946  0.0154  0.2114
 2484PBP     CP91086   9.040   5.064   9.441  0.2687  0.2950  0.0497
 2484PBP     CP91087   9.315   5.080   9.643 -0.6680 -0.1817 -0.4666
 2484PBP     Ch91088   9.480   4.970   9.790  0.1731 -0.3398 -0.4203
 2485PBP     C191089   8.906   5.718  15.476 -0.2921 -0.2132  0.0824
 2485PBP     C191090   8.857   6.081  15.280 -0.2283  0.2663 -0.3655
 2485PBP     C191091   9.051   6.539  15.045  0.0237 -0.0619 -0.0159
 2485PBP     C191092   9.376   6.831  14.938 -0.0042 -0.2355 -0.4871
 2485PBP     C191093   9.476   7.240  14.785 -0.0462  0.0074  0.2070
 2485PBP     C191094   9.605   7.606  14.615  0.1858  0.2334  0.0212
 2485PBP     C191095   9.889   7.823  14.422  0.1245 -0.0352 -0.0931
 2485PBP     C191096  10.208   7.765  14.115  0.2055  0.0775  0.0293
 2485PBP     CP91097  10.444   7.878  13.803  0.4419 -0.0283 -0.1209
 2485PBP     CP91098  10.748   7.978  13.798  0.0252  0.0598 -0.1867
 2485PBP     CP91099  10.902   8.108  13.556  0.2365 -0.4954 -0.2036
 2485PBP     Ch91100  10.859   8.246  13.322 -0.4082 -0.1249  0.3961
 2486PBP     C191101  14.344   9.028   8.961  0.3157 -0.0100 -0.0785
 2486PBP     C191102  13.953   8.876   8.621  0.2640 -0.1092 -0.0551
 2486PBP     C191103  13.744   8.408   8.786 -0.2152  0.0867  0.0157
 2486PBP     C191104  13.364   8.303   8.553  0.3089  0.0579  0.2915
 2486PBP     C191105  13.056   8.322   8.848  0.1311 -0.1538 -0.2215
 2486PBP     C191106  13.198   8.410   9.195 -0.3445 -0.1891 -0.0366
 2486PBP     C191107  13.657   8.376   9.382  0.2933 -0.1323 -0.0445
 2486PBP     C191108  13.900   8.721   9.625 -0.1788 -0.2767  0.0580
 2486PBP     CP91109  14.073   9.005   9.852  0.0649 -0.5740 -0.0166
 2486PBP     CP91110  14.205   9.262   9.984  0.4006 -0.2463 -0.3297
 2486PBP     CP91111  14.198   9.489  10.248 -0.3292  0.0829  0.0742
 2486PBP     Ch91112  14.156   9.429  10.468  0.2891 -0.2044 -0.2772
 2487PBP     C191113  11.253  11.964   6.631  0.0782  0.2292 -0.3396
 2487PBP     C191114  11.106  11.595   6.920 -0.3884 -0.6660 -0.3179
 2487PBP     C191115  11.023  11.357   7.318 -0.0118  0.2046 -0.0823
 2487PBP     C191116  10.589  11.251   7.503  0.0333 -0.0313 -0.0420
 2487PBP     C191117  10.292  11.431   7.334 -0.0425  0.3123  0.4156
 2487PBP     C191118   9.981  11.483   7.612  0.0786 -0.1611  0.0363
 2487PBP     C191119   9.706  11.257   7.857 -0.3539  0.0652  0.0012
 2487PBP     C191120   9.495  11.115   8.093  0.0509  0.1294  0.4973
 2487PBP     CP91121   9.411  10.966   8.428  0.5763 -0.3751 -0.3055
 2487PBP     CP91122   9.519  11.028   8.768  0.5628 -0.0231 -0.3677
 2487PBP     CP91123   9.673  10.862   9.002  0.0624 -0.2246  0.2240
 2487PBP     Ch91124   9.477  10.858   9.200 -0.3358 -0.0445  0.3240
 2488PBP     C191125   4.356   8.600  10.337 -0.1331  0.1100 -0.3603
 2488PBP     C191126   4.370   9.017  10.172 -0.0862  0.0254  0.1515
 2488PBP     C191127   4.347   9.336   9.860 -0.1501 -0.3051 -0.1267
 2488PBP     C191128   4.807   9.392   9.903 -0.0350 -0.1215  0.2472
 2488PBP     C191129   5.235   9.371   9.932  0.3274 -0.0704 -0.0404
 2488PBP     C191130   5.479   9.126   9.701  0.0025 -0.0146 -0.0788
 2488PBP     C191131   5.736   8.838   9.505 -0.1409  0.1384  0.1824
 2488PBP     C191132   5.947   8.911   9.213  0.3222 -0.1175 -0.1148
 2488PBP     CP91133   6.330   8.896   9.218  0.3109 -0.0541  0.5074
 2488PBP     CP91134   6.628   8.974   9.359 -0.0202 -0.0973  0.1297
 2488PBP     CP91135   6.905   8.864   9.409  0.2114 -0.2531  0.3334
 2488PBP     Ch91136   7.183   8.924   9.532 -0.4646  0.2843  0.2341
 2489PBP     C191137  12.631  17.465   8.213 -0.1247  0.0911  0.1507
 2489PBP     C191138  12.250  17.428   8.339  0.0419 -0.0852  0.4828
 2489PBP     C191139  12.105  17.063   8.390  0.5697 -0.0446 -0.0223
 2489PBP     C191140  12.046  16.915   8.785 -0.2823  0.2177 -0.0013
 2489PBP     C191141  12.126  17.046   9.172  0.3752 -0.1085  0.0854
 2489PBP     C191142  12.173  16.856   9.511  0.0758 -0.2005  0.1442
 2489PBP     C191143  12.137  16.657  10.007 -0.2057 -0.1827  0.1759
 2489PBP     C191144  11.984  16.379  10.222  0.2527 -0.1536  0.3138
 2489PBP     CP91145  11.845  16.170  10.558  0.0465 -0.1150 -0.3475
 2489PBP     CP91146  12.132  16.017  10.720 -0.2003 -0.6969 -0.4331
 2489PBP     CP91147  12.439  16.153  10.708 -0.1513 -0.3969  0.4459
 2489PBP     Ch91148  12.653  16.028  10.878  0.4865 -0.0051 -0.2022
 2490PBP     C191149   5.380   9.373  14.325  0.0249 -0.1801 -0.2835
 2490PBP     C191150   5.640   9.363  14.149 -0.0519 -0.2951 -0.1346
 2490PBP     C191151   5.723   9.693  13.864 -0.2553  0.3301  0.3999
 2490PBP     C191152   5.568   9.768  13.483  0.0714  0.2742 -0.0943
 2490PBP     C191153   5.699  10.189  13.231  0.5991  0.2827 -0.0337
 2490PBP     C191154   5.767  10.520  12.970  0.2454 -0.1364  0.1297
 2490PBP     C191155   5.713  10.254  12.639 -0.1720  0.1736 -0.1813
 2490PBP     C191156   5.661  10.229  12.253  0.2241 -0.1952  0.1287
 2490PBP     CP91157   5.670   9.898  12.062  0.2553  0.1402  0.2667
 2490PBP     CP91158   5.789   9.599  12.004 -0.1986 -0.0050  0.4799
 2490PBP     CP91159   6.020   9.422  12.093 -0.0178  0.2156 -0.1925
 2490PBP     Ch91160   6.113   9.202  12.024  0.1798 -0.3999 -0.1427
 2491PBP     C191161   8.650  11.881   6.353 -0.4763  0.0461 -0.3026
 2491PBP     C191162   8.203  11.682   6.352  0.2033  0.0160 -0.0975
 2491PBP     C191163   7.756  11.744   6.441 -0.0743  0.0105 -0.1314
 2491PBP     C191164   7.453  12.018   6.539 -0.2330 -0.1980  0.1483
 2491PBP     C191165   7.167  11.969   6.980  0.1999 -0.0070 -0.3592
 2491PBP     C191166   7.252  12.204   7.262 -0.3357  0.2382 -0.1081
 2491PBP     C191167   7.514  12.188   7.507 -0.2728  0.0663 -0.2152
 2491PBP     C191168   7.913  12.096   7.801 -0.0455  0.1806 -0.2569
 2491PBP     CP91169   7.856  11.995   8.163  0.4011  0.2065 -0.5011
 2491PBP     CP91170   7.565  12.123   8.309  0.4213 -0.0693  0.1110
 2491PBP     CP91171   7.293  12.055   8.375 -0.0442  0.3505 -0.3463
 2491PBP     Ch91172   7.239  11.980   8.590 -0.2181 -0.4006  0.1127
 2492PBP     C191173  10.246  11.170   6.891  0.3085  0.0580 -0.2076
 2492PBP     C191174  10.488  10.790   6.975 -0.1848  0.0036 -0.0423
 2492PBP     C191175  10.726  10.459   7.112  0.1460 -0.1020  0.2775
 2492PBP     C191176  10.537  10.192   7.474  0.3105 -0.2850 -0.4794
 2492PBP     C191177  10.516   9.995   7.851 -0.0857  0.0157 -0.0984
 2492PBP     C191178  10.626   9.614   7.883 -0.0254  0.2230  0.1355
 2492PBP     C191179  10.659   9.424   8.355  0.1245 -0.1006 -0.0267
 2492PBP     C191180  10.424   9.158   8.704  0.3076  0.1784 -0.0820
 2492PBP     CP91181  10.169   9.174   9.016  0.0243 -0.1069 -0.5755
 2492PBP     CP91182   9.924   9.133   9.017  0.4138 -0.1882  0.6718
 2492PBP     CP91183   9.620   9.267   8.906 -0.0903  0.4286  0.1031
 2492PBP     Ch91184   9.452   9.493   8.939 -0.1783  0.1090 -0.0119
 2493PBP     C191185   8.271  14.627   7.063  0.0062 -0.0697 -0.2147
 2493PBP     C191186   8.478  14.370   7.162  0.1482 -0.2099  0.0178
 2493PBP     C191187   8.197  13.969   7.231 -0.0138 -0.1489 -0.4321
 2493PBP     C191188   8.091  13.764   7.540  0.0772 -0.3205 -0.2716
 2493PBP     C191189   8.338  13.292   7.589  0.1491 -0.1100 -0.2706
 2493PBP     C191190   8.474  13.019   7.491 -0.1047 -0.1441 -0.2069
 2493PBP     C191191   8.383  12.706   7.680 -0.2032 -0.2340  0.2115
 2493PBP     C191192   8.355  12.271   7.950 -0.1002 -0.0209  0.0028
 2493PBP     CP91193   8.360  11.942   8.159  0.1367 -0.1700 -0.2774
 2493PBP     CP91194   8.464  11.974   8.506 -0.1001  0.4025 -0.4468
 2493PBP     CP91195   8.430  11.774   8.719  0.1026 -0.0981  0.0379
 2493PBP     Ch91196   8.460  11.656   8.950 -0.2810 -0.3169 -0.4371
 2494PBP     C191197  14.497   7.679  15.798  0.1375  0.2258  0.2711
 2494PBP     C191198  14.248   7.454  16.080  0.3037 -0.0065  0.1049
 2494PBP     C191199  13.877   7.088  16.097 -0.3741 -0.1000  0.4111
 2494PBP     C191200  13.749   6.692  15.786  0.2227  0.1489 -0.3781
 2494PBP     C191201  13.804   6.540  15.304 -0.0745 -0.1832 -0.2403
 2494PBP     C191202  13.976   6.141  15.179 -0.2620 -0.0120  0.6647
 2494PBP     C191203  13.584   6.075  14.954 -0.1302 -0.0167  0.1397
 2494PBP     C191204  13.434   5.754  14.704  0.1119  0.1913 -0.2738
 2494PBP     CP91205  13.461   5.638  14.358  0.0633 -0.6450 -0.0298
 2494PBP     CP91206  13.774   5.584  14.250 -0.0025  0.6668  0.3362
 2494PBP     CP91207  14.003   5.347  14.060 -0.1346 -0.0745 -0.3061
 2494PBP     Ch91208  14.224   5.481  14.129  0.0526 -0.0874  0.0751
 2495PBP     C191209   5.900  10.544  14.720 -0.3929  0.2029 -0.1227
 2495PBP     C191210   5.760  10.750  14.401  0.2165 -0.3980 -0.1251
 2495PBP     C191211   5.836  10.579  14.011 -0.1348 -0.2287 -0.4740
 2495PBP     C191212   5.773  10.590  13.523  0.3475 -0.1006 -0.0862
 2495PBP     C191213   5.781  10.899  13.263  0.0285 -0.2916  0.1071
 2495PBP     C191214   5.986  11.226  13.326  0.2215 -0.1642  0.1776
 2495PBP     C191215   5.765  11.520  13.183 -0.1584 -0.3913 -0.2364
 2495PBP     C191216   6.051  11.825  13.258 -0.0490  0.3235 -0.2171
 2495PBP     CP91217   6.277  11.972  12.890  0.0913  0.2094  0.3987
 2495PBP     CP91218   6.352  12.274  12.968 -0.0445 -0.1678  0.0865
 2495PBP     CP91219   6.586  12.460  12.949  0.1999 -0.1455  0.6777
 2495PBP     Ch91220   6.773  12.320  13.103 -0.1896 -0.2580 -0.4817
 2496PBP     C191221  10.915   3.003  11.730 -0.0937  0.1543 -0.3619
 2496PBP     C191222  11.084   3.483  11.621  0.0195 -0.2038 -0.1149
 2496PBP     C191223  11.039   3.898  11.463  0.0167  0.4538 -0.0075
 2496PBP     C191224  11.331   4.144  11.259 -0.1775  0.3905  0.0639
 2496PBP     C191225  11.346   4.153  10.764 -0.2663  0.0468 -0.0273
 2496PBP     C191226  11.783   4.486  10.732 -0.0198 -0.5342  0.0309
 2496PBP     C191227  11.821   4.955  10.748 -0.2026 -0.0331  0.1550
 2496PBP     C191228  11.734   5.233  10.421 -0.2381  0.6365 -0.1749
 2496PBP     CP91229  11.536   5.544  10.347 -0.2658  0.3821  0.2813
 2496PBP     CP91230  11.546   5.782  10.441 -0.0305  0.0120  0.4753
 2496PBP     CP91231  11.626   6.096  10.463  0.2259  0.0075 -0.3490
 2496PBP     Ch91232  11.835   6.245  10.534 -0.1640  0.4560  0.2073
 2497PBP     C191233   7.784   4.289  14.758 -0.0619 -0.0050  0.0183
 2497PBP     C191234   7.545   4.462  14.374  0.4478  0.2429  0.1468
 2497PBP     C191235   7.713   4.477  13.912  0.4800 -0.0859  0.0602
 2497PBP     C191236   7.840   4.838  13.544  0.1810  0.1816 -0.3288
 2497PBP     C191237   7.629   5.079  13.194 -0.0096  0.1134  0.1620
 2497PBP     C191238   7.502   4.832  12.810  0.0646  0.3259  0.0855
 2497PBP     C191239   7.808   4.924  12.496 -0.2613 -0.0584  0.1052
 2497PBP     C191240   8.348   4.661  12.423  0.5054 -0.0117  0.4554
 2497PBP     CP91241   8.674   4.869  12.306 -0.0941  0.2824  0.3370
 2497PBP     CP91242   8.997   4.868  12.320 -0.3580 -0.0189  0.1670
 2497PBP     CP91243   9.210   4.998  12.497 -0.2928  0.2420 -0.3168
 2497PBP     Ch91244   9.497   4.989  12.489  0.5548  0.4315 -0.6281
 2498PBP     C191245  11.977  18.111  13.222  0.0797 -0.0617  0.0553
 2498PBP     C191246  11.923  17.764  13.509  0.1259  0.3685 -0.0523
 2498PBP     C191247  12.237  17.423  13.496 -0.1062  0.1119  0.1029
 2498PBP     C191248  12.493  17.180  13.660  0.1657  0.0283  0.1833
 2498PBP     C191249  12.720  16.860  13.459 -0.0255 -0.1412  0.1002
 2498PBP     C191250  12.882  16.467  13.217 -0.4675  0.2604 -0.1721
 2498PBP     C191251  12.904  16.540  12.850 -0.2716  0.0655 -0.1559
 2498PBP     C191252  13.331  16.519  12.859 -0.0615 -0.1262 -0.6036
 2498PBP     CP91253  13.550  16.248  12.645  0.1563 -0.1993 -0.5730
 2498PBP     CP91254  13.754  15.989  12.644  0.2894 -0.4507  0.4844
 2498PBP     CP91255  13.867  15.705  12.622  0.1448 -0.0865 -0.1320
 2498PBP     Ch91256  14.022  15.485  12.663  0.1963 -0.1979 -0.4463
 2499PBP     C191257  10.457   9.005  15.444 -0.3317 -0.2318 -0.0504
 2499PBP     C191258  10.641   9.058  15.081 -0.0477 -0.1071 -0.0176
 2499PBP     C191259  10.686   8.983  14.777 -0.3468 -0.1474  0.1106
 2499PBP     C191260  10.899   9.236  14.570  0.1872  0.1850  0.0972
 2499PBP     C191261  10.977   9.672  14.628  0.3755 -0.1320 -0.1604
 2499PBP     C191262  11.191  10.048  14.492  0.3572 -0.0332  0.1753
 2499PBP     C191263  11.219  10.553  14.436 -0.3656 -0.3421  0.1618
 2499PBP     C191264  11.506  10.851  14.491 -0.0047  0.1533  0.2295
 2499PBP     CP91265  11.696  11.206  14.473  0.1799  0.2614  0.0405
 2499PBP     CP91266  11.787  11.441  14.275  0.0560 -0.0741 -0.0471
 2499PBP     CP91267  11.841  11.747  14.310 -0.0970 -0.0197  0.4361
 2499PBP     Ch91268  11.816  11.965  14.202 -0.5449  0.3879  0.1693
 2500PBP     C191269  17.011  14.570  12.787 -0.1861 -0.3166 -0.1362
 2500PBP     C191270  16.794  14.921  12.850 -0.1287  0.1344 -0.0163
 2500PBP     C191271  16.512  15.127  12.865  0.1576 -0.0648 -0.1730
 2500PBP     C191272  16.167  15.229  13.026 -0.0701 -0.2895  0.1781
 2500PBP     C191273  16.105  15.000  13.163  0.2203  0.3325  0.2092
 2500PBP     C191274  16.344  14.684  13.350  0.1434  0.0226 -0.1216
 2500PBP     C191275  16.434  14.384  13.710  0.1531 -0.1459 -0.0953
 2500PBP     C191276  16.217  13.935  13.786  0.1183 -0.0379 -0.0578
 2500PBP     CP91277  16.005  13.688  13.635 -0.3886  0.1028  0.4394
 2500PBP     CP91278  15.704  13.834  13.581  0.2697  0.4442 -0.1118
 2500PBP     CP91279  15.408  13.907  13.626 -0.4731 -0.3665  0.2471
 2500PBP     Ch91280  15.232  13.940  13.806  0.1718 -0.2514 -0.5420
 2501PBP     C191281   6.643  13.246   6.307  0.2164  0.0798 -0.4327
 2501PBP     C191282   6.616  13.589   6.612 -0.1596 -0.1022 -0.2738
 2501PBP     C191283   6.548  13.977   6.694 -0.0185  0.3937 -0.2037
 2501PBP     C191284   6.314  14.162   7.048 -0.1992  0.0511  0.1325
 2501PBP     C191285   6.218  14.415   7.239  0.0256 -0.0069 -0.1174
 2501PBP     C191286   6.391  14.742   7.527 -0.0829  0.0821  0.2185
 2501PBP     C191287   6.473  14.664   7.945 -0.3519 -0.0587 -0.2036
 2501PBP     C191288   6.209  14.527   8.377 -0.1632  0.2204 -0.2133
 2501PBP     CP91289   6.331  14.185   8.590  0.8132 -0.2329 -0.1934
 2501PBP     CP91290   6.680  14.198   8.650 -0.4028 -0.2107  0.8266
 2501PBP     CP91291   6.967  14.208   8.628 -0.2613 -0.2698 -0.0668
 2501PBP     Ch91292   7.131  14.172   8.861  0.2855 -0.2888 -0.1083
 2502PBP     C191293  12.958   8.919  16.393 -0.4473  0.0564 -0.3669
 2502PBP     C191294  13.049   8.711  16.032  0.0439  0.1994 -0.0469
 2502PBP     C191295  13.053   8.377  15.728  0.1230  0.0749  0.1234
 2502PBP     C191296  13.043   7.951  15.651  0.5253 -0.1854 -0.0775
 2502PBP     C191297  12.886   7.579  15.477  0.0340 -0.1055 -0.1731
 2502PBP     C191298  13.146   7.280  15.391  0.3101  0.7338 -0.5170
 2502PBP     C191299  13.510   7.058  15.444 -0.4087 -0.2796 -0.2775
 2502PBP     C191300  14.017   7.036  15.288  0.1089 -0.0088  0.1088
 2502PBP     CP91301  14.305   7.185  15.095 -0.1040 -0.1586  0.2591
 2502PBP     CP91302  14.283   7.048  14.805 -0.1243  0.2949  0.4474
 2502PBP     CP91303  14.103   7.102  14.553 -0.0314 -0.1976  0.0773
 2502PBP     Ch91304  14.097   7.275  14.378  0.3083 -0.1704  0.1571
 2503PBP     C191305  10.304  10.255  16.162  0.3401  0.0600  0.1924
 2503PBP     C191306  10.522   9.907  15.940 -0.1184 -0.0668 -0.0065
 2503PBP     C191307  10.978  10.012  15.653 -0.1387 -0.0344 -0.1734
 2503PBP     C191308  11.049  10.330  15.347 -0.0739  0.0283  0.1523
 2503PBP     C191309  10.996  10.424  14.916  0.0013  0.0732 -0.0007
 2503PBP     C191310  10.711  10.337  14.545  0.0805  0.1993 -0.2072
 2503PBP     C191311  10.496  10.447  14.133  0.0499 -0.2541  0.2782
 2503PBP     C191312  10.346  10.773  13.894 -0.0950  0.1352  0.0863
 2503PBP     CP91313  10.141  11.117  13.821  0.1361  0.0484  0.1156
 2503PBP     CP91314  10.200  11.372  13.604 -0.3080  0.4166 -0.1656
 2503PBP     CP91315  10.037  11.589  13.580 -0.1937  0.3557 -0.0238
 2503PBP     Ch91316   9.840  11.759  13.512  0.2218  0.0421  0.4687
 2504PBP     C191317  13.220   9.261  15.903 -0.0175  0.1133 -0.3018
 2504PBP     C191318  13.242   9.412  16.312  0.2675 -0.3431 -0.3673
 2504PBP     C191319  13.215   9.831  16.639  0.0947 -0.0913 -0.1267
 2504PBP     C191320  13.184  10.250  16.334  0.3018  0.0691 -0.4786
 2504PBP     C191321  13.411  10.674  16.102  0.0540 -0.2179 -0.4890
 2504PBP     C191322  13.657  10.609  15.918  0.1020 -0.1718  0.3287
 2504PBP     C191323  13.979  10.527  15.686  0.2053 -0.1832  0.4136
 2504PBP     C191324  13.965  10.605  15.332 -0.1242 -0.1998 -0.1968
 2504PBP     CP91325  13.676  10.389  15.150 -0.1588  0.0383 -0.4183
 2504PBP     CP91326  13.389  10.413  15.012  0.2735 -0.0518  0.0418
 2504PBP     CP91327  13.227  10.604  14.824  0.2857  0.1166  0.0252
 2504PBP     Ch91328  13.260  10.744  14.551  0.2496  0.3084  0.5604
 2505PBP     C191329  15.725  14.312  14.787 -0.0873 -0.0763 -0.4672
 2505PBP     C191330  15.352  14.310  15.005  0.1389 -0.4135  0.1505
 2505PBP     C191331  15.080  13.925  14.981  0.0713 -0.2488 -0.0855
 2505PBP     C191332  14.860  13.793  15.343 -0.3333 -0.2760 -0.1353
 2505PBP     C191333  14.583  14.007  15.523  0.1666  0.2257  0.1023
 2505PBP     C191334  14.223  13.935  15.853 -0.0586 -0.0980 -0.0929
 2505PBP     C191335  13.859  13.655  15.808 -0.0489  0.0143 -0.2632
 2505PBP     C191336  13.407  13.584  15.759 -0.5183 -0.3021 -0.5505
 2505PBP     CP91337  13.141  13.587  15.437 -0.4548  0.5168 -0.4693
 2505PBP     CP91338  12.849  13.637  15.293 -0.3900 -0.3913 -0.3406
 2505PBP     CP91339  12.556  13.689  15.260  0.4422  0.2390 -0.0810
 2505PBP     Ch91340  12.316  13.710  15.094 -0.1076 -0.0506 -0.0633
 2506PBP     C191341   6.135  17.858   9.332 -0.2095 -0.0808 -0.2035
 2506PBP     C191342   6.068  17.519   9.050  0.0036 -0.2201 -0.0363
 2506PBP     C191343   5.772  17.197   9.126 -0.3219 -0.0008 -0.2356
 2506PBP     C191344   5.301  17.269   9.319 -0.4917 -0.0474  0.0347
 2506PBP     C191345   5.193  16.873   9.260  0.0851 -0.0639 -0.2730
 2506PBP     C191346   5.468  16.515   9.283  0.0084  0.0319  0.2345
 2506PBP     C191347   5.687  16.106   9.410 -0.0706  0.0788 -0.2463
 2506PBP     C191348   5.836  15.900   9.801 -0.2444  0.1662 -0.2275
 2506PBP     CP91349   5.629  15.611  10.057  0.4102 -0.0171 -0.4374
 2506PBP     CP91350   5.578  15.304   9.950 -0.3222 -0.0767  0.0797
 2506PBP     CP91351   5.340  15.132   9.831  0.1137  0.1509 -0.2852
 2506PBP     Ch91352   5.331  14.857   9.806  0.1628 -0.0998 -0.2653
 2507PBP     C191353  11.541  13.258  16.708 -0.0576 -0.0001  0.0960
 2507PBP     C191354  11.351  12.969  16.612  0.1549 -0.1538  0.7096
 2507PBP     C191355  11.051  12.929  16.570 -0.0379  0.2217  0.3059
 2507PBP     C191356  10.813  12.656  16.316  0.3740 -0.1546 -0.1941
 2507PBP     C191357  10.836  12.267  15.963 -0.1917 -0.0287 -0.1047
 2507PBP     C191358  10.835  12.155  15.592 -0.2600  0.3382 -0.1682
 2507PBP     C191359  10.748  12.247  15.089 -0.3342  0.1380  0.0123
 2507PBP     C191360  10.680  12.024  14.847  0.0337 -0.0604 -0.0438
 2507PBP     CP91361  10.477  11.886  14.541 -0.1310  0.0396 -0.0682
 2507PBP     CP91362  10.335  11.763  14.300 -0.0973 -0.3883  0.4520
 2507PBP     CP91363  10.353  11.812  13.955 -0.2736 -0.1439  0.3511
 2507PBP     Ch91364  10.431  11.800  13.680  0.0506 -0.3983  0.4064
 2508PBP     C191365   3.718   6.755  10.425 -0.3265  0.1572 -0.1182
 2508PBP     C191366   3.650   6.317  10.178 -0.4019 -0.2247  0.0096
 2508PBP     C191367   3.964   5.933  10.387 -0.2819 -0.0479 -0.3172
 2508PBP     C191368   4.306   5.796  10.063 -0.0692 -0.3217  0.2850
 2508PBP     C191369   4.682   5.593  10.230  0.0140 -0.3325  0.1561
 2508PBP     C191370   5.047   5.814  10.450  0.2597  0.0562 -0.2134
 2508PBP     C191371   5.415   6.031  10.196  0.0379  0.1140  0.3795
 2508PBP     C191372   5.931   5.950  10.247 -0.0496 -0.0551  0.1478
 2508PBP     CP91373   6.397   5.904  10.266 -0.1299 -0.0497  0.0493
 2508PBP     CP91374   6.711   5.951  10.354  0.1837 -0.1187 -0.0149
 2508PBP     CP91375   6.875   6.217  10.445 -0.0014  0.0847 -0.1825
 2508PBP     Ch91376   7.000   6.454  10.513 -0.0174 -0.1490 -0.1018
 2509PBP     C191377  13.607  13.326   9.996  0.3284 -0.0188  0.1882
 2509PBP     C191378  13.710  13.537   9.593  0.0797  0.6074  0.1499
 2509PBP     C191379  14.149  13.853   9.645  0.2849 -0.1840 -0.0402
 2509PBP     C191380  14.650  14.004   9.631  0.2674 -0.1380 -0.0964
 2509PBP     C191381  14.983  13.660   9.506  0.1565 -0.0809  0.0592
 2509PBP     C191382  15.131  13.322   9.263 -0.0784  0.1692  0.0894
 2509PBP     C191383  14.952  12.925   9.384 -0.0239 -0.1309  0.3241
 2509PBP     C191384  14.516  12.808   9.678  0.1297 -0.2874  0.2246
 2509PBP     CP91385  14.365  13.054   9.948 -0.2438  0.1098 -0.1792
 2509PBP     CP91386  14.419  12.937  10.219 -0.2718  0.0639 -0.2447
 2509PBP     CP91387  14.231  12.829  10.421 -0.4551  0.2952 -0.0240
 2509PBP     Ch91388  14.321  12.820  10.665  0.4327  0.1633 -0.0612
 2510PBP     C191389   8.952  13.188   7.169 -0.2837  0.1548  0.0944
 2510PBP     C191390   9.014  13.254   7.542 -0.1305 -0.1708 -0.0858
 2510PBP     C191391   9.148  13.511   7.927 -0.1514 -0.1396 -0.1845
 2510PBP     C191392   9.265  13.860   8.044 -0.2513 -0.0940 -0.1465
 2510PBP     C191393   9.474  14.054   8.338  0.2514 -0.1027  0.0780
 2510PBP     C191394   9.777  13.991   8.619 -0.4294  0.2034  0.2223
 2510PBP     C191395  10.227  14.091   8.764 -0.0401 -0.0343  0.7406
 2510PBP     C191396  10.468  14.237   9.228 -0.1826  0.4671 -0.0073
 2510PBP     CP91397  10.751  14.077   9.557 -0.4281 -0.1189  0.1753
 2510PBP     CP91398  10.979  13.955   9.679 -0.1682 -0.4399 -0.0097
 2510PBP     CP91399  11.097  13.809   9.947  0.2369  0.0790 -0.4335
 2510PBP     Ch91400  11.136  13.648  10.108  0.3366 -0.2372  0.1799
 2511PBP     C191401   6.507  11.607  14.929 -0.2077 -0.2112  0.1137
 2511PBP     C191402   6.749  11.975  14.706  0.2821  0.0264 -0.3458
 2511PBP     C191403   6.858  12.198  14.466 -0.2772  0.3592  0.0958
 2511PBP     C191404   7.346  12.388  14.565  0.3075  0.2189 -0.1378
 2511PBP     C191405   7.567  12.490  14.933 -0.0285 -0.0547 -0.0775
 2511PBP     C191406   7.611  12.870  14.981  0.1082 -0.1868 -0.0643
 2511PBP     C191407   7.741  13.113  14.669  0.3389  0.0428 -0.0589
 2511PBP     C191408   7.746  13.400  14.202  0.2895  0.1089 -0.1585
 2511PBP     CP91409   7.849  13.625  13.898 -0.1130  0.5248  0.0323
 2511PBP     CP91410   7.970  13.838  13.691 -0.3334 -0.0901  0.3320
 2511PBP     CP91411   7.968  13.733  13.426 -0.4530 -0.2119  0.5564
 2511PBP     Ch91412   7.976  13.892  13.221  0.4743  0.2289  0.2236
 2512PBP     C191413   6.182   6.571  14.660 -0.0907  0.3688 -0.4258
 2512PBP     C191414   6.486   7.000  14.796 -0.0037 -0.4284  0.0483
 2512PBP     C191415   6.754   7.236  14.685 -0.0129 -0.0638  0.3243
 2512PBP     C191416   7.194   7.545  14.592 -0.0755 -0.1383  0.3510
 2512PBP     C191417   7.436   7.342  14.249 -0.0767 -0.5445  0.0942
 2512PBP     C191418   7.465   7.501  13.780  0.1030  0.0823  0.0285
 2512PBP     C191419   7.825   7.539  13.425 -0.0689 -0.2958 -0.0650
 2512PBP     C191420   8.020   7.329  13.056 -0.0169  0.0639  0.1799
 2512PBP     CP91421   8.354   7.191  12.917  0.0612  0.1219  0.0439
 2512PBP     CP91422   8.414   6.898  12.853  0.0527 -0.2200 -0.3842
 2512PBP     CP91423   8.374   6.736  12.577 -0.1278  0.1493  0.0897
 2512PBP     Ch91424   8.363   6.670  12.328  0.2588 -0.0348  0.0178
 2513PBP     C191425   3.548  11.574  13.818 -0.1251  0.1543  0.1463
 2513PBP     C191426   3.777  12.013  13.933  0.2223  0.0192 -0.0431
 2513PBP     C191427   4.045  12.252  13.651  0.4482 -0.0542 -0.3576
 2513PBP     C191428   4.083  12.726  13.708  0.0351  0.0493 -0.0541
 2513PBP     C191429   4.317  12.973  13.366 -0.2756 -0.2768 -0.2847
 2513PBP     C191430   4.535  12.864  12.964 -0.1181 -0.1535  0.2460
 2513PBP     C191431   4.802  12.822  12.716 -0.1641  0.1032 -0.0907
 2513PBP     C191432   5.135  12.700  12.979  0.1879 -0.0500  0.2927
 2513PBP     CP91433   5.466  12.600  12.929 -0.0252 -0.3610 -0.0945
 2513PBP     CP91434   5.723  12.764  12.855  0.2719 -0.1405 -0.4308
 2513PBP     CP91435   6.035  12.728  12.740 -0.1370 -0.0416 -0.5536
 2513PBP     Ch91436   6.134  12.766  12.505 -0.3149  0.0595  0.2307
 2514PBP     C191437   8.541   4.181  12.671 -0.0525  0.3000  0.1309
 2514PBP     C191438   8.056   4.224  12.603 -0.2377  0.2303  0.1254
 2514PBP     C191439   7.712   4.303  12.347 -0.3863  0.0735  0.2380
 2514PBP     C191440   7.647   4.300  11.899  0.0387 -0.2275  0.1883
 2514PBP     C191441   7.652   4.109  11.636  0.0657 -0.1285 -0.0092
 2514PBP     C191442   7.637   4.090  11.292 -0.1260 -0.4188  0.1762
 2514PBP     C191443   7.482   4.224  10.906 -0.3402 -0.2360  0.0007
 2514PBP     C191444   7.708   4.413  10.594  0.0793  0.0772 -0.2502
 2514PBP     CP91445   7.600   4.785  10.458 -0.1963  0.4369 -0.1967
 2514PBP     CP91446   7.405   5.059  10.435  0.1842  0.0198  0.1145
 2514PBP     CP91447   7.463   5.355  10.492  0.5367 -0.3114  0.2112
 2514PBP     Ch91448   7.500   5.589  10.594 -0.1611 -0.5292 -0.4145
 2515PBP     C191449   9.081   3.943   9.897  0.0533 -0.0653 -0.0493
 2515PBP     C191450   9.007   3.619  10.197  0.6733 -0.0395  0.0009
 2515PBP     C191451   9.382   3.405  10.373 -0.2902 -0.1176 -0.2050
 2515PBP     C191452   9.541   3.106  10.731 -0.0241 -0.2137 -0.1744
 2515PBP     C191453  10.007   3.390  10.843  0.4561  0.3078  0.2539
 2515PBP     C191454  10.202   3.707  11.006  0.2935  0.1591 -0.0498
 2515PBP     C191455  10.503   3.997  11.033  0.0878  0.0380 -0.1486
 2515PBP     C191456  10.877   4.292  11.008  0.0467  0.2090 -0.0259
 2515PBP     CP91457  11.171   4.563  10.921 -0.0867  0.1700 -0.3108
 2515PBP     CP91458  11.200   4.778  11.152  0.1458 -0.2481  0.5400
 2515PBP     CP91459  11.074   4.807  11.419 -0.6564  0.0129  0.2700
 2515PBP     Ch91460  11.047   5.009  11.553 -0.0153  0.0095 -0.1451
 2516PBP     C191461  14.381   6.442   7.567 -0.0918 -0.0261  0.1991
 2516PBP     C191462  13.961   6.629   7.649  0.1795 -0.0521 -0.0212
 2516PBP     C191463  13.704   6.710   8.009 -0.0660 -0.2589  0.1542
 2516PBP     C191464  13.461   6.463   8.380  0.0679 -0.1817 -0.2096
 2516PBP     C191465  13.040   6.313   8.401  0.1851 -0.1281 -0.1795
 2516PBP     C191466  12.697   6.470   8.733  0.0857 -0.1316  0.1285
 2516PBP     C191467  12.226   6.636   8.785 -0.1229  0.1544 -0.0218
 2516PBP     C191468  11.981   6.959   8.868 -0.3118  0.2776 -0.2684
 2516PBP     CP91469  11.879   7.201   9.186  0.1637 -0.0321  0.0662
 2516PBP     CP91470  11.953   7.467   9.401  0.2029  0.1586 -0.1041
 2516PBP     CP91471  11.903   7.773   9.423 -0.4599  0.2721 -0.3532
 2516PBP     Ch91472  11.681   7.931   9.410  0.0059  0.4241  0.6187
 2517PBP     C191473  17.369   4.629  10.479 -0.3153  0.2124 -0.4615
 2517PBP     C191474  17.117   5.007  10.493 -0.0968  0.0057  0.0430
 2517PBP     C191475  16.765   5.298  10.554  0.3018  0.0044 -0.0067
 2517PBP     C191476  16.992   5.745  10.531 -0.1922  0.0717 -0.1506
 2517PBP     C191477  16.758   6.198  10.600 -0.1203  0.2981  0.0195
 2517PBP     C191478  16.844   6.188  11.079 -0.4576 -0.0342  0.4296
 2517PBP     C191479  16.872   6.140  11.474  0.1539  0.4760  0.0373
 2517PBP     C191480  16.638   6.053  11.815 -0.1047 -0.3229 -0.2924
 2517PBP     CP91481  16.437   6.353  12.036 -0.0053  0.0574 -1.0293
 2517PBP     CP91482  16.222   6.577  12.080  0.2624  0.2633  0.3627
 2517PBP     CP91483  15.879   6.601  12.014  0.0961 -0.5823 -0.0600
 2517PBP     Ch91484  15.655   6.574  11.932  0.2469  0.1069 -0.0392
 2518PBP     C191485   3.398  15.172  12.257  0.2449  0.0230 -0.0348
 2518PBP     C191486   3.675  15.062  12.554 -0.1449  0.2774  0.1607
 2518PBP     C191487   4.027  14.598  12.538 -0.1620 -0.1118 -0.1964
 2518PBP     C191488   4.250  14.253  12.465  0.0425  0.1358 -0.0923
 2518PBP     C191489   4.295  13.984  12.007  0.1970  0.1507 -0.0849
 2518PBP     C191490   4.477  13.827  11.673 -0.0111 -0.0488  0.1799
 2518PBP     C191491   4.647  13.769  11.336  0.3303  0.3015 -0.2185
 2518PBP     C191492   5.009  13.852  11.082 -0.1877  0.2654  0.1579
 2518PBP     CP91493   5.425  13.903  11.125  0.0249 -0.0721 -0.2073
 2518PBP     CP91494   5.735  13.901  11.216  0.2265 -0.3003 -0.4087
 2518PBP     CP91495   6.033  13.707  11.261  0.1269 -0.0331  0.0569
 2518PBP     Ch91496   6.231  13.961  11.340 -0.2359  0.7069  0.2193
 2519PBP     C191497   3.779   8.218  10.075 -0.2389  0.1043  0.0370
 2519PBP     C191498   3.492   7.979   9.712 -0.1268 -0.5450  0.1537
 2519PBP     C191499   3.639   7.858   9.214  0.0383 -0.3611  0.2570
 2519PBP     C191500   3.980   7.798   9.043  0.1033 -0.4359  0.1634
 2519PBP     C191501   4.293   7.555   9.261  0.0633  0.0672 -0.0297
 2519PBP     C191502   4.737   7.530   9.397 -0.2935 -0.2236  0.0574
 2519PBP     C191503   5.224   7.508   9.374 -0.3505 -0.0761 -0.1720
 2519PBP     C191504   5.333   7.203   9.668  0.1988  0.2708 -0.0179
 2519PBP     CP91505   5.587   7.037   9.894 -0.1866  0.3853 -0.2072
 2519PBP     CP91506   5.756   7.017  10.212  0.1145 -0.2623 -0.1634
 2519PBP     CP91507   5.976   7.247  10.312  0.3444 -0.3370  0.3541
 2519PBP     Ch91508   6.250   7.276  10.387  0.1245 -0.2408 -0.1908
 2520PBP     C191509   8.776   4.808  15.643  0.1718  0.0831  0.2830
 2520PBP     C191510   8.484   4.699  15.324 -0.3451  0.1672  0.1363
 2520PBP     C191511   8.633   4.667  14.790  0.4097  0.1964 -0.1987
 2520PBP     C191512   8.763   4.468  14.385  0.0928  0.1875  0.2661
 2520PBP     C191513   8.884   4.598  13.943 -0.1820 -0.1612  0.0081
 2520PBP     C191514   9.166   4.433  13.707  0.1159  0.0231 -0.0497
 2520PBP     C191515   9.353   4.695  13.450 -0.2678 -0.1259  0.0898
 2520PBP     C191516   9.685   5.031  13.234  0.2674 -0.0090  0.3393
 2520PBP     CP91517   9.853   5.398  13.040 -0.3450 -0.1110  0.2177
 2520PBP     CP91518   9.982   5.658  12.988  0.5381  0.5735  0.0431
 2520PBP     CP91519  10.264   5.743  12.907  0.2038  0.1080 -0.3674
 2520PBP     Ch91520  10.382   5.949  12.858  0.4863 -0.0514 -0.0540
 2521PBP     C191521  15.592  11.981  15.137 -0.4655  0.1978 -0.0134
 2521PBP     C191522  15.082  12.130  15.213  0.0270  0.3320  0.1823
 2521PBP     C191523  14.776  12.126  15.538 -0.2495  0.4628 -0.0331
 2521PBP     C191524  14.292  12.361  15.557  0.0748  0.1895 -0.0161
 2521PBP     C191525  14.014  12.029  15.647  0.1320 -0.0097 -0.1659
 2521PBP     C191526  13.816  11.606  15.623  0.2013 -0.1227 -0.3053
 2521PBP     C191527  13.508  11.443  15.443  0.0632  0.2712  0.1088
 2521PBP     C191528  13.141  11.809  15.237  0.1312  0.1631  0.1585
 2521PBP     CP91529  13.038  11.979  14.924 -0.2061 -0.3668  0.0838
 2521PBP     CP91530  12.918  12.007  14.685 -0.0684 -0.2306  0.3180
 2521PBP     CP91531  12.604  12.060  14.581 -0.2907 -0.0771  0.4012
 2521PBP     Ch91532  12.412  11.917  14.477  0.7761 -0.6647  0.0481
 2522PBP     C191533  17.433  15.695  11.574  0.0008  0.4695 -0.0852
 2522PBP     C191534  17.385  16.147  11.578 -0.1963  0.1404 -0.1800
 2522PBP     C191535  17.172  16.426  11.421  0.1844 -0.1766  0.0660
 2522PBP     C191536  17.057  16.677  11.764  0.4971 -0.2851 -0.1668
 2522PBP     C191537  16.641  16.699  11.867  0.0613 -0.2619  0.2684
 2522PBP     C191538  16.214  16.600  11.610  0.1033  0.1435 -0.3920
 2522PBP     C191539  15.877  16.382  11.728  0.0217 -0.3837 -0.1703
 2522PBP     C191540  15.685  16.043  11.829 -0.0822 -0.0785 -0.0107
 2522PBP     CP91541  15.355  15.774  11.724  0.4471 -0.0925 -0.3619
 2522PBP     CP91542  15.240  15.472  11.657 -0.0861  0.2014  0.4206
 2522PBP     CP91543  15.003  15.370  11.500  0.2907  0.0780 -0.4325
 2522PBP     Ch91544  14.726  15.375  11.486  0.6557 -0.2924 -0.0590
 2523PBP     C191545  10.538  12.744   7.158  0.2664  0.0203 -0.4389
 2523PBP     C191546  10.485  13.048   7.312  0.0394 -0.0746 -0.0056
 2523PBP     C191547  10.665  13.063   7.785 -0.1020  0.2171 -0.1161
 2523PBP     C191548  11.058  13.145   8.192 -0.2748 -0.2355 -0.0419
 2523PBP     C191549  11.301  13.358   8.267 -0.0894  0.1319  0.1248
 2523PBP     C191550  11.386  13.288   8.699  0.3832  0.1755  0.0872
 2523PBP     C191551  11.147  13.525   8.998 -0.1039 -0.0594  0.2566
 2523PBP     C191552  11.149  13.530   9.421  0.1590 -0.1240 -0.2213
 2523PBP     CP91553  11.344  13.435   9.773 -0.0600  0.0845 -0.1755
 2523PBP     CP91554  11.494  13.307  10.058  0.4196  0.1872  0.4969
 2523PBP     CP91555  11.766  13.283  10.157  0.0644 -0.1535  0.3174
 2523PBP     Ch91556  11.982  13.314  10.267 -0.1651  0.1223  0.1543
 2524PBP     C191557  11.538  12.378   9.300  0.0749 -0.0591  0.0685
 2524PBP     C191558  11.828  12.494   9.614  0.0247  0.1816 -0.5459
 2524PBP     C191559  12.276  12.580   9.693 -0.1193 -0.0193  0.3516
 2524PBP     C191560  12.509  12.219   9.774 -0.1188  0.0611  0.2277
 2524PBP     C191561  12.809  11.832   9.669  0.1476  0.3215  0.4294
 2524PBP     C191562  12.720  11.352   9.616  0.4542 -0.1449  0.1531
 2524PBP     C191563  12.364  11.026   9.476  0.1818 -0.0078  0.2474
 2524PBP     C191564  11.995  10.754   9.561 -0.2248  0.0205  0.0690
 2524PBP     CP91565  11.621  10.677   9.601  0.1116  0.1073 -0.6948
 2524PBP     CP91566  11.361  10.567   9.692  0.4458  0.4429 -0.1993
 2524PBP     CP91567  11.122  10.539   9.500 -0.7073 -0.2953 -0.1666
 2524PBP     Ch91568  10.880  10.554   9.542  0.2831  0.1939  0.1425
 2525PBP     C191569  12.964  15.819  15.684 -0.1347 -0.1263  0.0098
 2525PBP     C191570  12.796  15.514  15.790  0.0303 -0.1595 -0.2093
 2525PBP     C191571  12.332  15.340  15.750  0.0937  0.1391  0.3090
 2525PBP     C191572  11.980  15.389  15.622 -0.0668  0.0894  0.2071
 2525PBP     C191573  11.820  15.232  15.255 -0.1002  0.1364  0.0875
 2525PBP     C191574  11.621  14.743  15.110 -0.2895  0.1106  0.0623
 2525PBP     C191575  11.392  14.538  15.007 -0.2797  0.1950 -0.4712
 2525PBP     C191576  10.921  14.408  14.772 -0.1902  0.4831  0.1242
 2525PBP     CP91577  10.619  14.561  14.509 -0.3787  0.6868 -0.1347
 2525PBP     CP91578  10.589  14.501  14.210  0.1120 -0.0980 -0.1035
 2525PBP     CP91579  10.403  14.229  14.075  0.1056 -0.2709 -0.0934
 2525PBP     Ch91580  10.158  14.349  14.122  0.4025 -0.3229  0.1900
 2526PBP     C191581  18.476   0.168  13.474  0.0573  0.2321 -0.1818
 2526PBP     C191582  18.139  -0.030  13.494  0.0883  0.4638 -0.0590
 2526PBP     C191583  17.698   0.156  13.483 -0.2419 -0.0914 -0.0037
 2526PBP     C191584  17.397   0.445  13.180  0.2832  0.1796  0.4974
 2526PBP     C191585  17.111   0.743  12.854 -0.2053  0.2076  0.0138
 2526PBP     C191586  16.901   0.716  12.432  0.1033  0.0983 -0.2177
 2526PBP     C191587  16.679   0.597  12.418  0.1828 -0.2010 -0.0038
 2526PBP     C191588  16.601   0.131  12.542 -0.2753 -0.2157 -0.1512
 2526PBP     CP91589  16.758  -0.284  12.480  0.1503  0.3933  0.0773
 2526PBP     CP91590  16.687  -0.469  12.229  0.1244 -0.3899 -0.6585
 2526PBP     CP91591  16.551  -0.754  12.198 -0.0377 -0.0760 -0.0048
 2526PBP     Ch91592  16.642  -1.054  12.153 -0.2068  0.0069 -0.2043
 2527PBP     C191593  11.022  14.962  16.383  0.4900 -0.3505  0.1047
 2527PBP     C191594  11.431  14.796  16.525 -0.5257 -0.0911 -0.0648
 2527PBP     C191595  11.770  14.712  16.906  0.1054  0.0152  0.2352
 2527PBP     C191596  12.221  14.779  16.928  0.1343 -0.1287 -0.0805
 2527PBP     C191597  12.566  14.863  16.705 -0.0892 -0.0238 -0.0860
 2527PBP     C191598  12.678  14.679  16.324 -0.3125 -0.0155  0.2902
 2527PBP     C191599  12.899  14.461  16.033 -0.0103  0.0377  0.0796
 2527PBP     C191600  13.112  14.519  15.726 -0.1671  0.2161 -0.0775
 2527PBP     CP91601  13.276  14.397  15.330 -0.3847 -0.0299  0.0828
 2527PBP     CP91602  13.258  14.271  15.060 -0.3643 -0.0609 -0.3843
 2527PBP     CP91603  13.017  14.089  15.004 -0.1397  0.1386 -0.1951
 2527PBP     Ch91604  13.056  13.830  14.940  0.0756 -0.3797  0.0594
 2528PBP     C191605   9.545   2.525  13.701 -0.2537 -0.2651  0.0992
 2528PBP     C191606   9.996   2.738  13.990 -0.2322  0.1298 -0.1301
 2528PBP     C191607   9.893   3.163  14.118  0.4102  0.3873 -0.1093
 2528PBP     C191608  10.167   3.565  14.181  0.1807  0.0916 -0.4365
 2528PBP     C191609   9.895   3.705  13.732 -0.1522  0.2485  0.0228
 2528PBP     C191610  10.025   4.095  13.384 -0.1368  0.0883  0.0763
 2528PBP     C191611  10.205   4.514  13.069 -0.1066 -0.0563 -0.1531
 2528PBP     C191612  10.447   4.852  12.940 -0.2874 -0.2825  0.0800
 2528PBP     CP91613  10.798   5.050  12.950  0.1799  0.2297  0.0122
 2528PBP     CP91614  11.060   4.918  12.996 -0.2806  0.6217 -0.4034
 2528PBP     CP91615  11.303   4.995  13.138  0.0394  0.2369 -0.4278
 2528PBP     Ch91616  11.533   5.102  13.181 -0.1151 -0.2111  0.0457
 2529PBP     C191617   9.397  10.836   7.754  0.1041  0.0740  0.0299
 2529PBP     C191618   9.233  10.524   7.885  0.1674  0.3260  0.0149
 2529PBP     C191619   9.140  10.135   7.612 -0.2658 -0.1769 -0.3009
 2529PBP     C191620   9.227   9.691   7.853 -0.1788 -0.4037  0.1618
 2529PBP     C191621   9.159   9.338   7.630  0.2835  0.0965  0.3199
 2529PBP     C191622   8.983   9.166   7.247  0.3755  0.0574  0.1165
 2529PBP     C191623   8.678   8.914   7.410  0.1645 -0.0815 -0.0286
 2529PBP     C191624   8.583   8.633   7.773 -0.1288 -0.0464  0.0853
 2529PBP     CP91625   8.253   8.630   7.970 -0.0726 -0.4881  0.7272
 2529PBP     CP91626   8.059   8.411   7.870 -0.2400 -0.4466  0.0136
 2529PBP     CP91627   7.961   8.140   8.047 -0.5154 -0.2147  0.1292
 2529PBP     Ch91628   7.917   7.940   8.220  0.2852 -0.0981 -0.0630
 2530PBP     C191629   5.729   9.846  15.094 -0.1663 -0.2336  0.0848
 2530PBP     C191630   5.631  10.095  14.742  0.1949  0.2464 -0.2528
 2530PBP     C191631   5.989  10.260  14.325 -0.0346 -0.4535  0.3755
 2530PBP     C191632   6.453  10.441  14.220  0.1275 -0.0630  0.2323
 2530PBP     C191633   6.651  10.755  13.926 -0.2109  0.0953 -0.0890
 2530PBP     C191634   6.888  11.076  13.702  0.1832 -0.0118  0.0299
 2530PBP     C191635   7.337  11.290  13.633 -0.1704 -0.2487  0.1725
 2530PBP     C191636   7.349  11.714  13.463 -0.0189 -0.2054 -0.2963
 2530PBP     CP91637   7.196  11.966  13.197 -0.1393 -0.1664 -0.1749
 2530PBP     CP91638   7.229  12.312  13.256 -0.0487  0.2701  0.6203
 2530PBP     CP91639   7.403  12.520  13.109  0.0357  0.0443  0.0056
 2530PBP     Ch91640   7.433  12.442  12.854  0.0640 -0.1207 -0.0282
 2531PBP     C191641  16.777   6.555  15.671 -0.2360  0.1266 -0.2718
 2531PBP     C191642  16.403   6.435  15.438 -0.1697 -0.0377 -0.0506
 2531PBP     C191643  16.055   6.337  15.263  0.1591  0.3286  0.1137
 2531PBP     C191644  15.700   6.174  15.067  0.0618  0.0396 -0.3457
 2531PBP     C191645  15.431   5.911  14.859  0.2610 -0.2950  0.0053
 2531PBP     C191646  15.436   5.514  14.654 -0.0531  0.3062  0.2095
 2531PBP     C191647  15.296   5.008  14.587  0.0391  0.0470 -0.0021
 2531PBP     C191648  15.042   4.781  14.411  0.1554 -0.1216 -0.3863
 2531PBP     CP91649  14.766   5.115  14.325 -0.2555  0.3627  0.4998
 2531PBP     CP91650  14.881   5.403  14.356  0.1203 -0.3431  0.1927
 2531PBP     CP91651  14.952   5.686  14.488  0.3568 -0.1226  0.2990
 2531PBP     Ch91652  15.035   5.886  14.443  0.0669  0.3532  0.4539
 2532PBP     C191653   5.212  12.945  15.252  0.3104 -0.2193  0.2484
 2532PBP     C191654   5.713  12.961  15.259 -0.2193  0.0238 -0.0793
 2532PBP     C191655   5.947  13.101  15.014  0.2135 -0.0861  0.1797
 2532PBP     C191656   6.292  13.290  14.925 -0.4021  0.0003  0.1432
 2532PBP     C191657   6.495  13.164  14.526  0.0731 -0.4179 -0.2510
 2532PBP     C191658   6.803  13.012  14.236 -0.2726 -0.0398  0.0949
 2532PBP     C191659   7.162  13.053  13.857 -0.3358 -0.4076 -0.2441
 2532PBP     C191660   7.452  13.204  13.788 -0.1841  0.4725 -0.1516
 2532PBP     CP91661   7.582  13.477  13.548 -0.5608  0.1105 -0.0064
 2532PBP     CP91662   7.527  13.725  13.367  0.0226 -0.1469  0.0522
 2532PBP     CP91663   7.412  13.817  13.084 -0.3133  0.3433  0.0018
 2532PBP     Ch91664   7.128  13.757  13.020 -0.0309  0.3475  0.5794
 2533PBP     C191665   8.236   8.889   6.640 -0.0848 -0.2470 -0.0021
 2533PBP     C191666   8.169   8.826   7.058 -0.1779 -0.0134 -0.0134
 2533PBP     C191667   8.130   8.809   7.544  0.1142 -0.1519 -0.3510
 2533PBP     C191668   8.248   9.035   7.787  0.1829  0.2253 -0.4388
 2533PBP     C191669   8.710   9.145   7.836 -0.1948 -0.3885 -0.0725
 2533PBP     C191670   8.938   9.322   8.110 -0.1553 -0.4657 -0.0820
 2533PBP     C191671   9.270   9.330   8.267 -0.0464 -0.0613  0.5930
 2533PBP     C191672   9.520   9.664   8.444 -0.2902  0.1114  0.0377
 2533PBP     CP91673   9.585   9.907   8.759  0.4252 -0.2171 -0.1684
 2533PBP     CP91674   9.582  10.029   9.061  0.2335  0.1994 -0.4403
 2533PBP     CP91675   9.691  10.291   9.121  0.1147 -0.3681  0.1600
 2533PBP     Ch91676   9.902  10.385   9.171  0.0843 -0.3636  0.0980
 2534PBP     C191677  16.002  14.520   8.185  0.0035 -0.4640  0.1814
 2534PBP     C191678  15.656  14.773   8.342  0.0213 -0.1853 -0.2986
 2534PBP     C191679  15.526  14.760   8.771  0.4900 -0.0108  0.0469
 2534PBP     C191680  15.206  14.628   9.149  0.0198  0.2459 -0.0474
 2534PBP     C191681  14.771  14.527   9.440 -0.1313 -0.1668  0.0797
 2534PBP     C191682  14.717  14.436   9.991 -0.1669 -0.1179  0.2920
 2534PBP     C191683  14.549  14.436  10.385 -0.0971  0.0691 -0.1133
 2534PBP     C191684  14.199  14.446  10.491 -0.2946 -0.1431 -0.3322
 2534PBP     CP91685  13.856  14.661  10.627  0.4085 -0.1425 -0.5294
 2534PBP     CP91686  13.662  14.713  10.844  0.2785  0.5585  0.0818
 2534PBP     CP91687  13.450  14.956  10.886 -0.1364  0.3780  0.1163
 2534PBP     Ch91688  13.321  15.073  10.738 -0.0647  0.1933 -0.3957
 2535PBP     C191689  20.336  15.519  16.565  0.1002  0.1510 -0.0784
 2535PBP     C191690  19.875  15.466  16.389  0.1507 -0.1849 -0.0131
 2535PBP     C191691  19.418  15.271  16.388 -0.1790 -0.0435  0.2372
 2535PBP     C191692  18.937  15.144  16.429  0.0674  0.0142  0.1201
 2535PBP     C191693  18.478  15.240  16.534 -0.6192 -0.0792 -0.1724
 2535PBP     C191694  18.029  15.136  16.474  0.1553  0.0006  0.0307
 2535PBP     C191695  17.706  15.404  16.745 -0.4187 -0.1455  0.2510
 2535PBP     C191696  17.258  15.416  16.786  0.0532 -0.4514  0.0373
 2535PBP     CP91697  16.966  15.634  16.785  0.0760 -0.4526  0.2513
 2535PBP     CP91698  16.751  15.846  16.956 -0.2279  0.0204  0.5062
 2535PBP     CP91699  16.719  16.151  16.894  0.2130 -0.5846 -0.6517
 2535PBP     Ch91700  16.428  16.199  16.941  0.4769 -0.2183 -0.0851
 2536PBP     C191701  14.650  13.343   9.321  0.3308  0.1925  0.0023
 2536PBP     C191702  14.459  13.660   9.246 -0.1526 -0.1394 -0.0653
 2536PBP     C191703  14.043  13.761   9.131 -0.0042  0.3312 -0.2935
 2536PBP     C191704  13.643  13.962   9.294  0.0930 -0.0900  0.1472
 2536PBP     C191705  13.422  14.362   9.155 -0.2523  0.0294  0.3933
 2536PBP     C191706  13.191  14.540   9.457 -0.1391  0.3685 -0.6252
 2536PBP     C191707  12.943  14.316   9.652 -0.1911 -0.1326  0.0661
 2536PBP     C191708  12.833  13.900   9.839  0.0016  0.1954  0.0949
 2536PBP     CP91709  12.583  13.825  10.151 -0.2121 -0.0682  0.0717
 2536PBP     CP91710  12.649  13.804  10.436  0.1911  0.2312 -0.1310
 2536PBP     CP91711  12.787  14.028  10.617  0.3246 -0.2542  0.0044
 2536PBP     Ch91712  12.831  14.290  10.699 -0.1197  0.3810  0.2233
 2537PBP     C191713   8.606  11.500   6.167 -0.0599 -0.1362 -0.2608
 2537PBP     C191714   8.495  11.280   6.615  0.3536 -0.1639  0.2136
 2537PBP     C191715   8.242  11.035   6.761  0.0864 -0.3569  0.0980
 2537PBP     C191716   8.282  10.828   7.177  0.1403  0.2780  0.2889
 2537PBP     C191717   8.576  10.796   7.523  0.0532  0.0962 -0.1766
 2537PBP     C191718   8.869  10.972   7.758 -0.4546 -0.0806  0.4483
 2537PBP     C191719   8.967  11.221   8.065 -0.4449 -0.2722  0.2466
 2537PBP     C191720   8.819  11.618   8.451  0.1300 -0.4038 -0.0466
 2537PBP     CP91721   8.968  11.589   8.830 -0.3617  0.4042 -0.2154
 2537PBP     CP91722   8.926  11.800   9.026  0.2950 -0.1036  0.2703
 2537PBP     CP91723   9.014  12.043   9.101  0.0688  0.0242  0.4262
 2537PBP     Ch91724   9.191  12.161   9.260 -0.3310  0.5316  0.5208
 2538PBP     C191725  10.322  10.935   8.436  0.1763 -0.3685 -0.1043
 2538PBP     C191726   9.894  10.852   8.213  0.0396 -0.1681 -0.3247
 2538PBP     C191727   9.950  10.726   7.792  0.4106  0.1585  0.0781
 2538PBP     C191728  10.125  10.326   7.667  0.2625 -0.1257  0.0763
 2538PBP     C191729   9.977   9.892   7.441 -0.2926  0.3106  0.0333
 2538PBP     C191730   9.706   9.586   7.581  0.1865  0.3117  0.2679
 2538PBP     C191731   9.590   9.260   7.909 -0.5006 -0.0804 -0.1488
 2538PBP     C191732   9.165   8.920   7.978 -0.3012  0.1161  0.1432
 2538PBP     CP91733   9.040   8.598   8.181  0.1224  0.3537  0.3581
 2538PBP     CP91734   8.789   8.491   8.258  0.1136  0.0194 -0.4481
 2538PBP     CP91735   8.605   8.566   8.506  0.0027  0.4864 -0.2494
 2538PBP     Ch91736   8.464   8.796   8.448 -0.1298 -0.0057  0.4213
 2539PBP     C191737  15.118  19.234  11.365 -0.3847  0.0924 -0.1436
 2539PBP     C191738  14.637  19.076  11.521  0.1572  0.1452 -0.2147
 2539PBP     C191739  14.355  18.876  11.703  0.2001 -0.1680  0.0091
 2539PBP     C191740  14.389  18.488  12.033  0.3103 -0.1755  0.0226
 2539PBP     C191741  14.827  18.249  12.093  0.2128 -0.2300  0.1300
 2539PBP     C191742  15.003  18.020  12.440  0.0267  0.0770  0.0645
 2539PBP     C191743  15.259  17.741  12.749 -0.4449  0.3289 -0.2455
 2539PBP     C191744  15.188  17.258  12.701  0.0017  0.0355 -0.0911
 2539PBP     CP91745  15.085  16.895  12.612  0.1641  0.8222  0.0832
 2539PBP     CP91746  14.857  16.747  12.818 -0.3511  0.0540 -0.3158
 2539PBP     CP91747  14.550  16.590  12.755  0.6375 -0.3030 -0.3241
 2539PBP     Ch91748  14.423  16.385  12.913 -0.1848 -0.1756 -0.4504
 2540PBP     C191749   5.705   6.728  13.414  0.0092  0.0230  0.0801
 2540PBP     C191750   5.578   6.365  13.452  0.0745 -0.0189 -0.1035
 2540PBP     C191751   5.307   6.043  13.184 -0.3555  0.4301 -0.2127
 2540PBP     C191752   4.784   6.172  13.021  0.3060 -0.0323 -0.1298
 2540PBP     C191753   4.700   6.393  12.671 -0.1163  0.1613  0.1353
 2540PBP     C191754   4.931   6.604  12.490 -0.0264 -0.1673  0.3765
 2540PBP     C191755   5.298   6.801  12.443  0.1069 -0.1324  0.3071
 2540PBP     C191756   5.787   6.501  12.560  0.0681  0.2416  0.0134
 2540PBP     CP91757   6.130   6.657  12.381 -0.2107 -0.2135  0.2298
 2540PBP     CP91758   6.333   6.887  12.260 -0.1530 -0.0493  0.3159
 2540PBP     CP91759   6.598   6.912  12.103  0.0387  0.2281 -0.0412
 2540PBP     Ch91760   6.563   6.918  11.842 -0.0685  0.5309 -0.3756
 2541PBP     C191761  14.643   5.948   8.690 -0.1089  0.0392  0.1985
 2541PBP     C191762  14.545   6.296   8.707 -0.0750 -0.2818 -0.0779
 2541PBP     C191763  14.361   6.696   8.755 -0.0013  0.0790 -0.0535
 2541PBP     C191764  14.036   6.859   8.446 -0.0514 -0.1858 -0.1729
 2541PBP     C191765  13.683   7.087   8.376  0.0262 -0.1473 -0.3689
 2541PBP     C191766  13.624   7.524   8.182  0.1582 -0.1094  0.0039
 2541PBP     C191767  13.627   7.866   8.538  0.1306  0.0518 -0.2603
 2541PBP     C191768  13.794   7.948   8.936  0.0076  0.4634  0.0313
 2541PBP     CP91769  13.586   7.899   9.309  0.2328  0.3046 -0.1982
 2541PBP     CP91770  13.675   7.896   9.642  0.2791  0.0165  0.1863
 2541PBP     CP91771  13.636   8.158   9.856 -0.0637  0.3621  0.6029
 2541PBP     Ch91772  13.578   8.083  10.070 -0.4422 -0.2749  0.6712
 2542PBP     C191773   9.570   3.398  13.594 -0.0941 -0.0855  0.2922
 2542PBP     C191774   9.602   3.635  13.305 -0.3231 -0.2218 -0.0910
 2542PBP     C191775   9.241   3.892  13.196  0.1122  0.3209  0.3370
 2542PBP     C191776   8.904   4.128  13.121 -0.4435  0.0033 -0.2894
 2542PBP     C191777   8.875   4.552  13.123 -0.2586 -0.0211 -0.1515
 2542PBP     C191778   8.867   4.910  12.823  0.3260 -0.1247  0.0430
 2542PBP     C191779   8.492   5.280  12.806 -0.3294  0.0205 -0.1979
 2542PBP     C191780   8.004   5.371  12.550 -0.1984  0.4020  0.2871
 2542PBP     CP91781   7.849   5.688  12.347 -0.3324 -0.0627 -0.2678
 2542PBP     CP91782   7.879   5.931  12.163 -0.0102 -0.0222 -0.3234
 2542PBP     CP91783   8.111   6.143  12.207 -0.2535 -0.3814 -0.4357
 2542PBP     Ch91784   8.159   6.309  12.466  0.2111 -0.4564  0.5870
 2543PBP     C191785   5.007   8.289   8.253 -0.1103 -0.2289 -0.1361
 2543PBP     C191786   5.327   7.927   8.270 -0.2208  0.1942 -0.2720
 2543PBP     C191787   5.603   7.702   7.950 -0.0830  0.1114 -0.1254
 2543PBP     C191788   5.833   7.366   7.697  0.0539 -0.0050 -0.0170
 2543PBP     C191789   6.048   7.476   7.268  0.2027 -0.0515  0.0410
 2543PBP     C191790   6.241   7.394   6.965 -0.5144 -0.3258  0.0983
 2543PBP     C191791   6.678   7.418   6.915 -0.0618  0.2204 -0.0654
 2543PBP     C191792   6.829   7.717   7.274 -0.2251  0.1137 -0.0289
 2543PBP     CP91793   6.975   7.600   7.666 -0.1274  0.1151  0.2482
 2543PBP     CP91794   7.169   7.519   7.903  0.1413 -0.0021  0.0497
 2543PBP     CP91795   7.482   7.554   7.961  0.3383 -0.3881 -0.0347
 2543PBP     Ch91796   7.747   7.516   8.108 -0.0946  0.4834  0.1284
 2544PBP     C191797   5.792   4.346   9.525 -0.1921  0.2807 -0.0365
 2544PBP     C191798   5.877   4.125   9.236  0.1994 -0.3079 -0.1588
 2544PBP     C191799   5.695   4.132   8.847 -0.0252 -0.1136  0.0113
 2544PBP     C191800   5.898   3.755   8.504 -0.0569 -0.1269  0.1832
 2544PBP     C191801   5.788   3.850   8.126 -0.1417 -0.1819 -0.2171
 2544PBP     C191802   6.193   4.053   7.981 -0.0507  0.2867  0.1260
 2544PBP     C191803   6.408   4.288   7.610 -0.0169  0.2639 -0.1318
 2544PBP     C191804   6.785   4.540   7.694 -0.1654 -0.3102  0.0480
 2544PBP     CP91805   7.012   4.783   7.924 -0.3298  0.2605  0.1728
 2544PBP     CP91806   7.259   4.998   7.890 -0.0403 -0.0614 -0.3967
 2544PBP     CP91807   7.325   5.142   7.639  0.0312 -0.6618 -0.2844
 2544PBP     Ch91808   7.216   5.132   7.454  0.0963  0.1747 -0.1704
 2545PBP     C191809  12.367   3.710  11.521 -0.1296 -0.1353 -0.0872
 2545PBP     C191810  12.534   3.923  11.937 -0.3385  0.0940  0.1131
 2545PBP     C191811  12.800   3.966  12.380 -0.0834  0.0679 -0.2198
 2545PBP     C191812  13.208   3.833  12.638 -0.1154 -0.2200  0.1322
 2545PBP     C191813  13.544   4.073  12.729 -0.3011  0.3687 -0.2271
 2545PBP     C191814  13.739   4.168  13.205 -0.0275 -0.2892  0.2258
 2545PBP     C191815  13.736   4.524  13.516 -0.0664 -0.1721  0.4117
 2545PBP     C191816  13.654   4.877  13.847 -0.0415  0.0638  0.1421
 2545PBP     CP91817  13.581   5.257  13.936 -0.6391 -0.0000  0.4420
 2545PBP     CP91818  13.367   5.403  13.810  0.1021  0.0873  0.4535
 2545PBP     CP91819  13.132   5.595  13.869  0.0863 -0.0306 -0.1515
 2545PBP     Ch91820  13.023   5.788  13.740 -0.1525 -0.1081  0.5112
 2546PBP     C191821  10.190   6.880  15.442  0.1591 -0.2011  0.1488
 2546PBP     C191822  10.113   6.559  15.260 -0.1060  0.0317 -0.4024
 2546PBP     C191823   9.789   6.266  15.091 -0.2764 -0.0908 -0.1587
 2546PBP     C191824   9.384   5.993  15.063  0.1079  0.4592  0.2460
 2546PBP     C191825   9.378   5.719  14.655 -0.0520  0.4109 -0.1570
 2546PBP     C191826   9.657   5.320  14.299  0.0481  0.0157 -0.1387
 2546PBP     C191827   9.997   5.407  13.884 -0.1663  0.3527 -0.3136
 2546PBP     C191828  10.272   5.477  13.430 -0.1998 -0.4973 -0.1928
 2546PBP     CP91829  10.329   5.310  13.089 -0.2020  0.0584 -0.0062
 2546PBP     CP91830  10.204   5.260  12.785 -0.0846 -0.1916  0.3575
 2546PBP     CP91831  10.013   5.037  12.678  0.4110  0.0867 -0.2304
 2546PBP     Ch91832   9.870   4.859  12.824 -0.2422  0.2522  0.0478
 2547PBP     C191833   9.610  13.955   7.013 -0.0030  0.1164  0.0207
 2547PBP     C191834   9.886  13.670   7.231 -0.2692 -0.2177 -0.2700
 2547PBP     C191835  10.045  13.178   7.162  0.3209 -0.1669  0.2761
 2547PBP     C191836   9.835  13.014   7.499 -0.4550 -0.0540 -0.1364
 2547PBP     C191837   9.727  12.913   7.872 -0.2483  0.2741  0.1204
 2547PBP     C191838   9.616  12.917   8.328 -0.1657  0.1982  0.2997
 2547PBP     C191839   9.741  13.086   8.641 -0.0743 -0.4063 -0.3776
 2547PBP     C191840   9.727  13.037   9.044  0.2381 -0.1381  0.1451
 2547PBP     CP91841   9.972  13.213   9.302 -0.0043 -0.5507 -0.1222
 2547PBP     CP91842  10.104  13.164   9.612  0.0144 -0.0930 -0.4542
 2547PBP     CP91843  10.447  13.173   9.783 -0.1078  0.0093 -0.2556
 2547PBP     Ch91844  10.612  13.098   9.640  0.2922 -0.0603  0.0141
 2548PBP     C191845   6.950  17.608  12.144 -0.0796  0.3821  0.4734
 2548PBP     C191846   6.843  17.190  12.152  0.1951 -0.1333 -0.4518
 2548PBP     C191847   7.014  16.873  11.919  0.0178 -0.1433  0.1874
 2548PBP     C191848   7.047  16.416  12.002 -0.0125 -0.2654  0.0101
 2548PBP     C191849   7.231  16.038  12.048  0.2711  0.4188  0.1472
 2548PBP     C191850   7.140  15.676  12.301 -0.4111  0.0585  0.1610
 2548PBP     C191851   6.763  15.581  12.585 -0.0312  0.0486 -0.1157
 2548PBP     C191852   6.346  15.590  12.298  0.2490  0.5447  0.0122
 2548PBP     CP91853   6.008  15.580  12.107 -0.4502  0.1827  0.2291
 2548PBP     CP91854   5.735  15.473  12.241 -0.2743  0.1892  0.2313
 2548PBP     CP91855   5.670  15.293  12.531  0.3382 -0.0072  0.1090
 2548PBP     Ch91856   5.695  15.084  12.718 -0.3958  0.1628 -0.2720
 2549PBP     C191857  16.276   7.696  13.685 -0.1382 -0.1940 -0.0177
 2549PBP     C191858  16.118   7.562  14.045 -0.1325  0.1533 -0.4990
 2549PBP     C191859  16.249   7.330  14.382  0.2422 -0.0008 -0.0303
 2549PBP     C191860  15.946   7.485  14.780 -0.0862  0.0688  0.0016
 2549PBP     C191861  15.657   7.801  14.699 -0.0418 -0.1119 -0.2541
 2549PBP     C191862  15.642   8.086  14.444 -0.1023  0.2441 -0.0505
 2549PBP     C191863  15.853   7.987  14.142 -0.0092 -0.1123 -0.0097
 2549PBP     C191864  15.770   7.953  13.577 -0.1792  0.1410 -0.0192
 2549PBP     CP91865  15.340   7.971  13.487  0.1509  0.6331 -0.6987
 2549PBP     CP91866  15.050   8.070  13.347  0.3033 -0.0954 -0.1707
 2549PBP     CP91867  14.691   8.064  13.259 -0.1802  0.3137 -0.0701
 2549PBP     Ch91868  14.486   7.926  13.145  0.2524  0.5406 -0.0962
 2550PBP     C191869  21.116  14.166   2.690  0.3687  0.1064  0.0330
 2550PBP     C191870  21.580  14.174   2.881  0.2568 -0.0664 -0.0105
 2550PBP     C191871  21.766  14.392   3.230 -0.0121  0.3121 -0.0391
 2550PBP     C191872  21.812  14.669   3.599 -0.1123 -0.1115 -0.4879
 2550PBP     C191873  21.456  15.005   3.586 -0.0264 -0.1541  0.0798
 2550PBP     C191874  21.287  15.373   3.938  0.1523  0.0705 -0.0077
 2550PBP     C191875  21.096  15.736   4.138  0.0311  0.0577 -0.1140
 2550PBP     C191876  20.832  15.837   3.946  0.0147  0.1502  0.0211
 2550PBP     CP91877  20.714  15.748   3.598  0.3254 -0.0289  0.5481
 2550PBP     CP91878  20.618  15.523   3.372  0.0385  0.1243 -0.0595
 2550PBP     CP91879  20.307  15.532   3.247  0.1368  0.1413 -0.3339
 2550PBP     Ch91880  20.047  15.487   3.245  0.2992  0.1464 -0.1963
 2551PBP     C191881   4.617  12.065   9.897  0.1457  0.1711 -0.0517
 2551PBP     C191882   4.804  11.577   9.719  0.1587 -0.3097  0.0832
 2551PBP     C191883   4.709  11.159   9.663  0.0564 -0.2501 -0.0432
 2551PBP     C191884   4.759  10.747   9.668 -0.0347 -0.5688  0.2451
 2551PBP     C191885   4.793  10.206   9.753 -0.3542  0.0189 -0.5294
 2551PBP     C191886   4.987   9.858   9.997 -0.0336  0.0363  0.6661
 2551PBP     C191887   5.237   9.780  10.303  0.3639 -0.1461 -0.1176
 2551PBP     C191888   5.581   9.865  10.566 -0.3004 -0.1146 -0.0555
 2551PBP     CP91889   5.964   9.982  10.764 -0.0389 -0.5359 -0.3016
 2551PBP     CP91890   6.325   9.955  10.786  0.3854 -0.4496 -0.0794
 2551PBP     CP91891   6.552  10.114  10.921  0.1017 -0.0977  0.0771
 2551PBP     Ch91892   6.726  10.335  10.978 -0.3015 -0.2905  0.0590
 2552PBP     C191893   4.192  16.682   9.118 -0.1485 -0.3709 -0.2309
 2552PBP     C191894   4.475  17.037   9.090  0.4106  0.0650  0.2023
 2552PBP     C191895   4.776  17.024   9.441 -0.0196  0.0129  0.1593
 2552PBP     C191896   5.108  16.754   9.698  0.0680  0.1097  0.1582
 2552PBP     C191897   5.545  16.800   9.681  0.1610  0.4327  0.0288
 2552PBP     C191898   5.880  16.491   9.753  0.0411 -0.0154 -0.3275
 2552PBP     C191899   5.754  16.312  10.101 -0.1177 -0.4885  0.0893
 2552PBP     C191900   6.038  15.852  10.365  0.6667 -0.0645 -0.2159
 2552PBP     CP91901   6.083  15.571  10.097  0.3472 -0.4384 -0.2431
 2552PBP     CP91902   6.007  15.247  10.048  0.3931 -0.1610 -0.1661
 2552PBP     CP91903   6.200  14.958  10.058  0.1555  0.2988 -0.1096
 2552PBP     Ch91904   6.286  14.683  10.053  0.7325  0.2662  0.2252
 2553PBP     C191905  11.764  12.092  17.790 -0.3174 -0.0414 -0.0335
 2553PBP     C191906  12.026  12.140  17.413 -0.3346 -0.0803  0.0755
 2553PBP     C191907  12.291  12.434  17.096  0.0320 -0.1713 -0.2645
 2553PBP     C191908  12.526  12.351  16.839  0.2084 -0.1549  0.1433
 2553PBP     C191909  12.857  12.600  16.637  0.0854 -0.0378  0.1055
 2553PBP     C191910  13.068  12.864  16.555 -0.2379  0.3047 -0.0791
 2553PBP     C191911  13.233  13.068  16.249  0.2641 -0.0444 -0.1315
 2553PBP     C191912  13.316  13.026  15.851  0.0158  0.0157  0.3131
 2553PBP     CP91913  13.297  13.045  15.420  0.2878  0.4132 -0.3610
 2553PBP     CP91914  13.054  13.095  15.232 -0.2846 -0.0507 -0.0700
 2553PBP     CP91915  12.968  13.231  14.970 -0.2724 -0.0249  0.0513
 2553PBP     Ch91916  12.789  13.415  14.837  0.0407  0.5583 -0.2568
 2554PBP     C191917  14.952   6.358   7.555  0.0844  0.0067  0.4980
 2554PBP     C191918  15.113   6.346   7.937  0.0054 -0.3021 -0.0631
 2554PBP     C191919  15.157   6.585   8.228  0.3137 -0.2020 -0.2224
 2554PBP     C191920  15.345   6.603   8.716 -0.0922 -0.2190 -0.1202
 2554PBP     C191921  15.464   6.712   9.144  0.0701  0.1307  0.1626
 2554PBP     C191922  15.711   6.848   9.571 -0.0223 -0.0180  0.0591
 2554PBP     C191923  15.858   6.877  10.023  0.3609 -0.2148 -0.0486
 2554PBP     C191924  15.959   7.320  10.075 -0.3318 -0.3877  0.0445
 2554PBP     CP91925  15.711   7.634   9.969  0.2796  0.2483  0.1554
 2554PBP     CP91926  15.398   7.641  10.077 -0.0615  0.4805  0.1364
 2554PBP     CP91927  15.180   7.378  10.217  0.5056 -0.5474  0.5597
 2554PBP     Ch91928  15.234   7.286  10.444 -0.0168 -0.4027 -0.2317
 2555PBP     C191929   3.733  11.527  12.917 -0.2082  0.1895  0.0433
 2555PBP     C191930   3.585  11.542  12.425 -0.1467 -0.3532  0.0833
 2555PBP     C191931   3.546  11.514  12.060 -0.0355 -0.4486  0.1978
 2555PBP     C191932   3.671  11.956  11.775  0.1518  0.0048  0.2861
 2555PBP     C191933   3.876  12.111  11.376 -0.1335  0.5958 -0.0865
 2555PBP     C191934   4.372  12.072  11.346  0.0588 -0.0565 -0.5016
 2555PBP     C191935   4.811  11.677  11.314  0.1254 -0.1278  0.2167
 2555PBP     C191936   5.043  11.754  10.855  0.2792  0.2400 -0.3859
 2555PBP     CP91937   5.427  11.650  10.767 -0.2292 -0.3702  0.2709
 2555PBP     CP91938   5.787  11.645  10.889  0.5039  0.1798 -0.6241
 2555PBP     CP91939   6.033  11.428  10.951  0.4267 -0.3068  0.5046
 2555PBP     Ch91940   6.277  11.325  10.951 -0.5280 -0.0063  0.0659
 2556PBP     C191941  17.815   8.220  10.441 -0.2696  0.3311  0.0368
 2556PBP     C191942  18.054   7.969   9.985  0.0973 -0.1116  0.3598
 2556PBP     C191943  18.077   7.552   9.850 -0.3095  0.0971  0.1958
 2556PBP     C191944  17.998   7.127   9.891  0.1415 -0.2741 -0.0311
 2556PBP     C191945  17.703   6.781   9.780 -0.3110 -0.1562  0.0054
 2556PBP     C191946  17.198   6.549   9.866 -0.1923  0.0934  0.1425
 2556PBP     C191947  16.786   6.669   9.849 -0.2226  0.0278 -0.2224
 2556PBP     C191948  16.389   6.809  10.204  0.1686  0.2005  0.2987
 2556PBP     CP91949  16.185   6.916  10.539 -0.0221  0.1200 -0.2357
 2556PBP     CP91950  15.931   6.996  10.636 -0.1591 -0.2676  0.3105
 2556PBP     CP91951  15.755   7.180  10.543  0.0343 -0.1920 -0.3386
 2556PBP     Ch91952  15.654   7.410  10.632 -0.0352  0.7192 -0.0645
 2557PBP     C191953   5.486   8.918  14.029 -0.2360  0.2165 -0.2092
 2557PBP     C191954   5.292   9.287  13.774  0.4190  0.0313  0.1290
 2557PBP     C191955   5.046   9.625  13.494 -0.0735 -0.1261  0.1508
 2557PBP     C191956   5.001   9.754  13.025 -0.0633 -0.3195  0.2009
 2557PBP     C191957   4.802   9.977  12.731 -0.5630  0.4589 -0.0977
 2557PBP     C191958   4.555   9.862  12.221  0.5189 -0.1274 -0.1406
 2557PBP     C191959   4.365  10.134  11.933 -0.0859  0.1510 -0.4145
 2557PBP     C191960   4.582  10.632  11.720  0.0402  0.2804 -0.3886
 2557PBP     CP91961   4.803  10.859  11.434 -0.2851 -0.0090 -0.2140
 2557PBP     CP91962   4.909  11.051  11.177  0.5451  0.2904  0.0771
 2557PBP     CP91963   5.068  10.958  10.914  0.0395 -0.3371  0.2097
 2557PBP     Ch91964   5.265  10.865  10.743 -0.4952 -0.2172  0.0882
 2558PBP     C191965   5.205   8.885  14.453 -0.3227  0.3602  0.0120
 2558PBP     C191966   5.633   8.636  14.497 -0.0551  0.1575  0.0134
 2558PBP     C191967   5.846   8.745  14.914 -0.0561 -0.1869 -0.5481
 2558PBP     C191968   5.988   9.050  15.140 -0.1662 -0.0479  0.2109
 2558PBP     C191969   6.120   9.416  15.024  0.3430 -0.2336  0.0278
 2558PBP     C191970   6.369   9.471  15.172 -0.4673 -0.1203  0.0578
 2558PBP     C191971   6.560   9.976  15.131  0.2275 -0.2432 -0.0822
 2558PBP     C191972   6.886  10.367  15.320  0.2421  0.0509  0.2809
 2558PBP     CP91973   6.923  10.736  15.538 -0.3726 -0.2649  0.6509
 2558PBP     CP91974   7.014  11.033  15.481  0.5893 -0.1504  0.3577
 2558PBP     CP91975   6.925  11.366  15.460 -1.0206 -0.2398 -0.0661
 2558PBP     Ch91976   6.995  11.404  15.182  0.3916 -0.0066 -0.1770
 2559PBP     C191977  14.508   4.219  12.991  0.1676 -0.2763  0.0868
 2559PBP     C191978  14.188   4.261  13.337 -0.4562 -0.1359 -0.3503
 2559PBP     C191979  14.198   4.652  13.660 -0.0029 -0.2050 -0.1964
 2559PBP     C191980  14.561   4.679  13.992 -0.0578  0.0331  0.1136
 2559PBP     C191981  14.961   4.754  13.857 -0.1176 -0.1642 -0.0197
 2559PBP     C191982  15.417   4.822  13.508 -0.0905  0.1886 -0.1836
 2559PBP     C191983  15.929   4.924  13.530  0.2296  0.0860 -0.1990
 2559PBP     C191984  16.050   5.276  13.513 -0.2820  0.0773  0.2519
 2559PBP     CP91985  16.253   5.542  13.273 -0.0257  0.5029  0.0509
 2559PBP     CP91986  16.195   5.856  13.356  0.2514  0.5288  0.1544
 2559PBP     CP91987  16.165   6.178  13.322 -0.3415 -0.1331  0.5105
 2559PBP     Ch91988  15.936   6.287  13.381 -0.2882  0.2134 -0.1818
 2560PBP     C191989  14.722   4.608  16.004 -0.3447 -0.2974 -0.2316
 2560PBP     C191990  15.027   4.551  15.613  0.5669  0.0669  0.0754
 2560PBP     C191991  14.992   4.041  15.181 -0.1963  0.1742  0.0403
 2560PBP     C191992  14.805   3.857  14.976  0.1727 -0.0120 -0.3304
 2560PBP     C191993  14.459   3.794  14.620  0.0581  0.4129 -0.3574
 2560PBP     C191994  14.611   3.946  14.064 -0.2681  0.3214  0.1952
 2560PBP     C191995  14.636   4.223  13.832  0.1478 -0.0071  0.3277
 2560PBP     C191996  14.620   4.456  13.432  0.1211 -0.4577 -0.1119
 2560PBP     CP91997  14.753   4.832  13.457  0.3471 -0.0909 -0.4295
 2560PBP     CP91998  14.880   5.052  13.203 -0.0835 -0.2502 -0.5593
 2560PBP     CP91999  14.819   5.187  12.896  0.0134 -0.2521 -0.1636
 2560PBP     Ch92000  14.596   5.138  12.734 -0.0046  0.1330  0.2759
 2561PBP     C192001  13.301   6.340  15.987 -0.0650  0.0147 -0.2766
 2561PBP     C192002  13.427   6.172  15.696 -0.0027 -0.2293 -0.5003
 2561PBP     C192003  13.783   6.004  15.773  0.3767 -0.1145  0.1623
 2561PBP     C192004  14.116   5.648  15.728  0.0723  0.2726  0.2127
 2561PBP     C192005  14.572   5.742  15.769  0.1537  0.0850  0.2786
 2561PBP     C192006  14.941   5.650  15.546  0.0353  0.4566 -0.2599
 2561PBP     C192007  15.019   5.731  15.125 -0.3874 -0.0129 -0.0854
 2561PBP     C192008  14.825   6.124  14.818 -0.3176 -0.2009 -0.0739
 2561PBP     CP92009  14.775   6.275  14.434 -0.3547  0.1584 -0.1273
 2561PBP     CP92010  14.455   6.350  14.396  0.1798 -0.0151  0.0583
 2561PBP     CP92011  14.228   6.258  14.213 -0.0136  0.2908 -0.0948
 2561PBP     Ch92012  14.097   5.994  14.176  0.1902 -0.2319 -0.0624
 2562PBP     C192013   8.265  15.226   8.293  0.2078  0.6085  0.0736
 2562PBP     C192014   8.016  14.906   7.995  0.1551  0.3794 -0.1676
 2562PBP     C192015   7.905  14.466   8.103 -0.2902 -0.2567 -0.4094
 2562PBP     C192016   8.143  14.193   8.213 -0.1856  0.2618  0.0116
 2562PBP     C192017   8.113  13.818   8.119  0.1915  0.1437  0.1073
 2562PBP     C192018   8.063  13.439   7.946  0.4285 -0.2245  0.0870
 2562PBP     C192019   7.957  13.009   7.739  0.2788  0.1518  0.2592
 2562PBP     C192020   7.773  12.557   7.734  0.1240 -0.4044  0.1032
 2562PBP     CP92021   7.590  12.504   8.071 -0.2063 -0.3159  0.2310
 2562PBP     CP92022   7.370  12.545   8.238 -0.2242  0.5825  0.0456
 2562PBP     CP92023   7.397  12.556   8.576 -0.4118  0.1237  0.2261
 2562PBP     Ch92024   7.439  12.342   8.680  0.0260  0.1252  0.5602
 2563PBP     C192025  12.921   4.789  15.259 -0.1447 -0.2302  0.2882
 2563PBP     C192026  12.853   5.159  15.070  0.0614 -0.4259  0.0318
 2563PBP     C192027  12.556   5.397  14.802 -0.1081 -0.0072  0.0036
 2563PBP     C192028  12.234   5.472  14.503  0.0559 -0.2349  0.5051
 2563PBP     C192029  11.745   5.623  14.391  0.0062  0.3833 -0.2721
 2563PBP     C192030  11.558   6.018  14.161  0.1668  0.1231  0.2904
 2563PBP     C192031  11.430   6.080  13.714  0.4586  0.1153 -0.3335
 2563PBP     C192032  11.631   6.344  13.431  0.0651  0.1101  0.0938
 2563PBP     CP92033  11.391   6.628  13.310 -0.0739  0.0810 -0.1110
 2563PBP     CP92034  11.302   6.894  13.285  0.0666 -0.3044  0.2583
 2563PBP     CP92035  11.346   7.203  13.411 -0.8016  0.5897  0.1203
 2563PBP     Ch92036  11.482   7.435  13.357 -0.4524  0.4100  0.1310
 2564PBP     C192037  11.181  14.973  15.196 -0.1786 -0.1045 -0.0093
 2564PBP     C192038  10.731  14.922  15.121  0.2181  0.1993 -0.2276
 2564PBP     C192039  10.421  14.620  15.055 -0.0533 -0.0732  0.5436
 2564PBP     C192040  10.456  14.166  15.010 -0.1937 -0.0727  0.2527
 2564PBP     C192041  10.414  13.662  14.925 -0.0926  0.0383  0.2859
 2564PBP     C192042  10.650  13.329  14.689 -0.5718  0.0015  0.1040
 2564PBP     C192043  10.839  12.797  14.830  0.2946  0.1619  0.0005
 2564PBP     C192044  10.709  12.479  14.620  0.2831  0.4286 -0.1949
 2564PBP     CP92045  10.873  12.175  14.377  0.3398  0.1491 -0.0398
 2564PBP     CP92046  11.130  11.943  14.442 -0.3520 -0.2356 -0.1322
 2564PBP     CP92047  11.312  11.776  14.267  0.1399 -0.5955 -0.1941
 2564PBP     Ch92048  11.404  11.862  14.058 -0.5333  0.5264 -0.3688
 2565PBP     C192049  14.201  19.146  12.133  0.4341 -0.2179 -0.3598
 2565PBP     C192050  13.909  18.805  11.956  0.0428 -0.4354 -0.3056
 2565PBP     C192051  14.032  18.464  11.675  0.3861 -0.2507  0.1473
 2565PBP     C192052  14.360  18.126  11.617 -0.0310 -0.0519 -0.0050
 2565PBP     C192053  14.369  17.670  11.679  0.0774 -0.1443 -0.0750
 2565PBP     C192054  14.304  17.341  11.451 -0.0618 -0.0755  0.1868
 2565PBP     C192055  14.161  16.855  11.571  0.0446 -0.0134 -0.1041
 2565PBP     C192056  13.896  16.646  11.322 -0.0002  0.2317  0.3890
 2565PBP     CP92057  13.855  16.232  11.223  0.0868 -0.2983  0.5836
 2565PBP     CP92058  13.551  16.152  11.168  0.1167 -0.1726  0.1562
 2565PBP     CP92059  13.335  16.194  10.958  0.0914  0.0173 -0.3260
 2565PBP     Ch92060  13.062  16.128  10.994  0.1271 -0.0262  0.1498
 2566PBP     C192061   5.086  10.376   8.652  0.3583 -0.2705  0.0216
 2566PBP     C192062   4.894  10.663   8.960 -0.1343  0.0241 -0.2531
 2566PBP     C192063   4.599  10.953   9.161  0.0352 -0.1250 -0.1619
 2566PBP     C192064   4.541  11.352   9.201  0.0253 -0.1219 -0.1841
 2566PBP     C192065   4.531  11.760   9.175 -0.3395 -0.0816  0.3228
 2566PBP     C192066   4.247  12.089   9.463 -0.1659  0.2276  0.2132
 2566PBP     C192067   4.311  12.372   9.664 -0.3538  0.0715 -0.2342
 2566PBP     C192068   4.734  12.561   9.753  0.2849  0.0030  0.0849
 2566PBP     CP92069   5.025  12.516   9.558  0.3338  0.5193 -0.2165
 2566PBP     CP92070   5.323  12.425   9.440  0.0788  0.4058  0.0005
 2566PBP     CP92071   5.593  12.482   9.572  0.1097  0.2633  0.4208
 2566PBP     Ch92072   5.797  12.365   9.634 -0.2890 -0.1638  0.2684
 2567PBP     C192073  16.354   6.871  14.351 -0.0862  0.2908 -0.1340
 2567PBP     C192074  15.902   6.914  14.262  0.1656 -0.1037 -0.0238
 2567PBP     C192075  15.760   7.186  14.380 -0.1040  0.1616  0.3303
 2567PBP     C192076  15.473   7.310  14.670 -0.0760  0.4122 -0.2080
 2567PBP     C192077  15.269   7.530  14.918 -0.0129 -0.2199 -0.0956
 2567PBP     C192078  15.086   7.686  15.183  0.0374 -0.0879  0.1570
 2567PBP     C192079  14.608   7.650  15.135  0.1497  0.1038  0.2238
 2567PBP     C192080  14.288   8.047  14.967  0.0195 -0.1010  0.2438
 2567PBP     CP92081  13.998   8.261  14.819 -0.2449  0.0839 -0.4865
 2567PBP     CP92082  13.717   8.303  14.883  0.1843 -0.2397  0.5907
 2567PBP     CP92083  13.400   8.290  14.760  0.1281 -0.3000 -0.2204
 2567PBP     Ch92084  13.327   8.054  14.629  0.2864  0.1694 -0.1513
 2568PBP     C192085   4.895   9.308  13.071 -0.0346 -0.2877 -0.0898
 2568PBP     C192086   4.540   9.576  13.126  0.6737 -0.2484 -0.0893
 2568PBP     C192087   4.268   9.843  12.936 -0.2272 -0.0319 -0.3276
 2568PBP     C192088   4.292  10.114  12.638  0.2063 -0.5066  0.3618
 2568PBP     C192089   4.571  10.473  12.579 -0.4389  0.1931 -0.2612
 2568PBP     C192090   4.841  10.429  12.086 -0.1195  0.2194 -0.1116
 2568PBP     C192091   5.253  10.594  12.061  0.1499  0.3260 -0.2475
 2568PBP     C192092   5.401  10.974  12.102 -0.1764 -0.3976 -0.3268
 2568PBP     CP92093   5.584  11.360  12.184 -0.2370 -0.2686 -0.3113
 2568PBP     CP92094   5.719  11.557  12.332 -0.4539  0.0128  0.2464
 2568PBP     CP92095   5.851  11.537  12.603 -0.4653 -0.1277 -0.2245
 2568PBP     Ch92096   5.897  11.770  12.715 -0.4348  0.0671  0.0306
 2569PBP     C192097  15.815   5.072  12.545  0.2599  0.1183 -0.1654
 2569PBP     C192098  15.422   5.032  12.498 -0.2874 -0.2095 -0.0935
 2569PBP     C192099  15.093   4.993  12.449  0.0673  0.1658 -0.1608
 2569PBP     C192100  14.683   5.059  12.210 -0.0023  0.0090  0.0910
 2569PBP     C192101  14.291   5.029  12.116  0.1430  0.2577  0.3695
 2569PBP     C192102  13.990   4.993  11.824 -0.2400 -0.2169  0.0942
 2569PBP     C192103  14.180   5.091  11.466 -0.0885  0.0240 -0.0396
 2569PBP     C192104  14.365   5.467  11.286  0.1437 -0.2811 -0.0049
 2569PBP     CP92105  14.517   5.886  11.421  0.1704  0.4704  0.3296
 2569PBP     CP92106  14.510   6.156  11.444 -0.2170 -0.4359 -0.4889
 2569PBP     CP92107  14.708   6.412  11.551 -0.2755  0.3768 -0.2347
 2569PBP     Ch92108  14.672   6.601  11.616  0.0075  0.0546  0.1228
 2570PBP     C192109  10.411  16.453  14.488 -0.2151 -0.2585  0.0684
 2570PBP     C192110  10.115  16.550  14.200  0.2489 -0.2952  0.1000
 2570PBP     C192111  10.130  16.538  13.671  0.0758  0.0901 -0.2911
 2570PBP     C192112  10.565  16.703  13.634  0.0108 -0.0703  0.2484
 2570PBP     C192113  10.986  16.843  13.621  0.0578 -0.1367  0.1112
 2570PBP     C192114  11.323  16.921  13.337  0.0450 -0.0656  0.0175
 2570PBP     C192115  11.259  16.629  12.967 -0.3331  0.2272 -0.7146
 2570PBP     C192116  11.336  16.248  12.831  0.2694 -0.2187  0.3547
 2570PBP     CP92117  10.964  16.098  12.773  0.0262  0.2435 -0.0218
 2570PBP     CP92118  10.632  16.096  12.649  0.1334 -0.1246  0.1694
 2570PBP     CP92119  10.317  16.038  12.726 -0.2996 -0.2358 -0.6096
 2570PBP     Ch92120  10.291  15.797  12.827 -0.3483 -0.0479  0.2929
 2571PBP     C192121   6.567  11.939   6.768 -0.2614  0.1495 -0.2196
 2571PBP     C192122   6.663  11.675   7.066  0.0983 -0.1817 -0.1087
 2571PBP     C192123   6.623  11.356   7.275 -0.0581  0.0263  0.0302
 2571PBP     C192124   6.566  11.583   7.567  0.3767 -0.0585  0.3713
 2571PBP     C192125   6.673  11.809   7.869  0.2782  0.0951  0.0551
 2571PBP     C192126   7.130  12.056   7.874 -0.2798 -0.0016 -0.1669
 2571PBP     C192127   7.156  12.459   7.699 -0.0463 -0.0620 -0.1219
 2571PBP     C192128   7.425  12.833   7.775 -0.0567  0.1310 -0.1263
 2571PBP     CP92129   7.560  13.021   8.071  0.1789 -0.0732  0.0766
 2571PBP     CP92130   7.511  13.133   8.351  0.4764 -0.2228  0.0970
 2571PBP     CP92131   7.508  12.976   8.619 -0.1885 -0.2426  0.1223
 2571PBP     Ch92132   7.563  12.932   8.829 -0.1796 -0.0380 -0.3807
 2572PBP     C192133   9.537   3.816   9.250 -0.3642  0.2377 -0.3523
 2572PBP     C192134   9.855   3.940   9.622 -0.2148 -0.0180  0.0738
 2572PBP     C192135  10.139   4.312   9.682  0.1862 -0.0949  0.4077
 2572PBP     C192136  10.409   4.548   9.919  0.0982 -0.2069 -0.1948
 2572PBP     C192137  10.614   4.511  10.222  0.0352  0.3164 -0.2698
 2572PBP     C192138  10.626   4.678  10.603 -0.0025  0.1476 -0.4544
 2572PBP     C192139  10.706   4.747  11.044 -0.4307  0.1023 -0.4320
 2572PBP     C192140  10.557   4.827  11.418  0.1625  0.0243 -0.2561
 2572PBP     CP92141  10.305   5.137  11.360  0.1500 -0.4055  0.0799
 2572PBP     CP92142  10.323   5.466  11.410 -0.3539 -0.2664 -0.4377
 2572PBP     CP92143  10.466   5.761  11.484  0.0406  0.2689 -0.4555
 2572PBP     Ch92144  10.477   6.001  11.535  0.1599 -0.1042  0.4416
 2573PBP     C192145  13.635  12.941   9.148  0.0214  0.4842  0.2978
 2573PBP     C192146  13.262  12.851   9.121 -0.1384  0.3956 -0.1314
 2573PBP     C192147  13.024  13.108   8.795  0.0200  0.1707 -0.4939
 2573PBP     C192148  12.710  13.400   8.934  0.3347  0.4220  0.1048
 2573PBP     C192149  12.817  13.594   9.208  0.1888  0.1095 -0.2364
 2573PBP     C192150  12.867  13.326   9.480  0.2684  0.0772 -0.2512
 2573PBP     C192151  13.105  13.483   9.822  0.2509 -0.3240 -0.0695
 2573PBP     C192152  13.014  13.481  10.271 -0.1231 -0.0766 -0.3517
 2573PBP     CP92153  13.046  13.464  10.656 -0.1945 -0.1121  0.2227
 2573PBP     CP92154  13.391  13.395  10.775  0.1173  0.2452  0.0572
 2573PBP     CP92155  13.635  13.244  10.631 -0.0731 -0.4240 -0.0728
 2573PBP     Ch92156  13.736  13.043  10.824 -0.0916 -0.3948  0.1085
 2574PBP     C192157  10.644   5.283  15.854  0.2623  0.1406  0.0807
 2574PBP     C192158  10.253   5.588  15.657  0.2094 -0.0489  0.2061
 2574PBP     C192159  10.164   5.827  15.261  0.4928  0.1914 -0.2250
 2574PBP     C192160  10.344   6.110  15.070  0.1840  0.1374  0.2880
 2574PBP     C192161  10.773   6.059  14.793  0.3361  0.1959 -0.4474
 2574PBP     C192162  10.741   6.225  14.356  0.0635  0.0300  0.4156
 2574PBP     C192163  10.719   6.597  14.180  0.2846  0.2947  0.1906
 2574PBP     C192164  10.849   6.897  13.964 -0.0299  0.1847 -0.4386
 2574PBP     CP92165  10.863   7.233  13.716 -0.0427  0.1260 -0.3818
 2574PBP     CP92166  10.743   7.495  13.663  0.2232 -0.0236 -0.1006
 2574PBP     CP92167  10.700   7.747  13.433  0.3376  0.6597 -0.2997
 2574PBP     Ch92168  10.669   7.855  13.213 -0.2428 -0.2813 -0.0128
 2575PBP     C192169  10.857   9.920  16.269  0.1780 -0.0787 -0.4390
 2575PBP     C192170  11.279   9.761  16.549 -0.0573  0.0252 -0.1934
 2575PBP     C192171  11.593   9.741  16.385  0.4330 -0.1935  0.3629
 2575PBP     C192172  11.963   9.732  16.111 -0.3191 -0.0503 -0.1309
 2575PBP     C192173  12.319   9.566  15.683 -0.1696 -0.0357 -0.0288
 2575PBP     C192174  12.199   9.769  15.341  0.0109 -0.1179  0.3484
 2575PBP     C192175  11.957  10.238  15.241  0.2920 -0.1273  0.1167
 2575PBP     C192176  12.132  10.402  14.916 -0.5087 -0.2263 -0.3477
 2575PBP     CP92177  12.491  10.274  14.802 -0.0710 -0.0013 -0.0571
 2575PBP     CP92178  12.791  10.254  14.822 -0.1490 -0.6085  0.3087
 2575PBP     CP92179  13.011  10.229  14.634  0.1656 -0.4551  0.1195
 2575PBP     Ch92180  13.142  10.316  14.445  0.2385 -0.0854  0.3302
 2576PBP     C192181  16.579   9.638  16.758  0.1736 -0.1682  0.0577
 2576PBP     C192182  16.466  10.106  16.450  0.0593 -0.1559  0.0975
 2576PBP     C192183  16.076  10.303  16.405 -0.2686  0.2448 -0.2347
 2576PBP     C192184  15.664  10.259  16.635  0.0082 -0.2575 -0.0213
 2576PBP     C192185  15.368  10.602  16.582  0.3004 -0.2324 -0.1651
 2576PBP     C192186  15.037  10.944  16.452 -0.5706 -0.1470 -0.0351
 2576PBP     C192187  15.205  11.206  16.000 -0.3372  0.1790  0.0956
 2576PBP     C192188  14.992  11.356  15.698 -0.5096 -0.2609  0.0055
 2576PBP     CP92189  14.858  11.514  15.346 -0.1266 -0.1687 -0.0438
 2576PBP     CP92190  14.673  11.704  15.179 -0.0750  0.0628  0.0783
 2576PBP     CP92191  14.444  11.905  15.245  0.2839 -0.3193 -0.0018
 2576PBP     Ch92192  14.297  12.102  15.090  0.0483 -0.0705 -0.2472
 2577PBP     C192193  10.697   3.258  10.672 -0.0272  0.6415 -0.0881
 2577PBP     C192194  10.845   3.101  11.183  0.1353 -0.0358 -0.1092
 2577PBP     C192195  10.514   3.073  11.537 -0.1699 -0.0232  0.8146
 2577PBP     C192196  10.118   3.358  11.877 -0.3530 -0.1704  0.3183
 2577PBP     C192197   9.815   3.547  11.959 -0.5899  0.0501  0.1639
 2577PBP     C192198   9.555   3.978  11.648 -0.0429 -0.1935  0.0272
 2577PBP     C192199   9.257   4.215  11.525 -0.2357  0.1858 -0.2370
 2577PBP     C192200   8.974   4.394  11.315  0.4124  0.0104  0.2060
 2577PBP     CP92201   9.069   4.681  11.060 -0.3599  0.0867 -0.1167
 2577PBP     CP92202   8.820   4.645  10.839 -0.3272  0.3215 -0.2414
 2577PBP     CP92203   8.580   4.490  10.952  0.0081 -0.1648 -0.2175
 2577PBP     Ch92204   8.479   4.363  11.145 -0.3526 -0.0059  0.0932
 2578PBP     C192205  16.164  12.310  10.796 -0.2422  0.1887 -0.0587
 2578PBP     C192206  15.778  12.192  10.736 -0.1218 -0.1129 -0.1768
 2578PBP     C192207  15.584  12.170  10.393 -0.0926 -0.5455  0.2585
 2578PBP     C192208  15.317  11.930  10.162 -0.0583 -0.3144 -0.0485
 2578PBP     C192209  15.005  11.650  10.040 -0.1978 -0.2462 -0.1267
 2578PBP     C192210  15.131  11.216   9.952 -0.0977  0.0954  0.0023
 2578PBP     C192211  14.993  10.673  10.061 -0.2176  0.2192 -0.3350
 2578PBP     C192212  14.708  10.470  10.060  0.2833 -0.0991 -0.0639
 2578PBP     CP92213  14.533  10.134  10.136  0.4252 -0.2899  0.2030
 2578PBP     CP92214  14.272   9.960  10.121 -0.3519 -0.1965 -0.1655
 2578PBP     CP92215  14.012  10.020  10.301  0.1255  0.1895  0.5258
 2578PBP     Ch92216  13.885   9.820  10.441 -0.7269 -0.1658 -0.4867
 2579PBP     C192217   9.373   6.203  13.733 -0.0277  0.0274 -0.1181
 2579PBP     C192218   9.570   6.233  13.374  0.5272 -0.1083  0.0653
 2579PBP     C192219   9.144   6.413  13.329 -0.0182  0.2957 -0.1940
 2579PBP     C192220   8.676   6.262  13.363 -0.1388  0.0949 -0.2380
 2579PBP     C192221   8.265   6.551  13.380  0.3145  0.3380  0.2838
 2579PBP     C192222   7.945   6.891  13.346 -0.0940 -0.4122 -0.0426
 2579PBP     C192223   7.508   7.110  13.380  0.2441 -0.0445 -0.0096
 2579PBP     C192224   7.257   7.483  13.273  0.1528  0.0611  0.2772
 2579PBP     CP92225   7.124   7.498  12.924  0.1374 -0.0131  0.7535
 2579PBP     CP92226   7.091   7.431  12.620 -0.0843 -0.3037 -0.2316
 2579PBP     CP92227   7.163   7.522  12.383 -0.0740  0.4117 -0.1735
 2579PBP     Ch92228   7.207   7.486  12.121 -0.3016  0.1227  0.4854
 2580PBP     C192229  15.568  17.175   8.918 -0.1477  0.0888 -0.0845
 2580PBP     C192230  15.146  16.790   8.911 -0.1580 -0.2785  0.1736
 2580PBP     C192231  14.907  16.660   9.414 -0.0414 -0.0855  0.1007
 2580PBP     C192232  14.752  16.745   9.903  0.0928  0.1841  0.0774
 2580PBP     C192233  14.616  16.546  10.325 -0.1164  0.1709  0.1854
 2580PBP     C192234  14.460  16.492  10.706 -0.0311  0.0604  0.1941
 2580PBP     C192235  14.860  16.504  11.077 -0.0753 -0.0479 -0.1577
 2580PBP     C192236  15.088  16.169  11.179  0.1755  0.1594  0.1595
 2580PBP     CP92237  15.052  15.791  11.189 -0.0524 -0.3066 -0.0399
 2580PBP     CP92238  14.779  15.619  11.121  0.3117 -0.1372 -0.2232
 2580PBP     CP92239  14.490  15.654  11.167 -0.0828  0.3145 -0.1605
 2580PBP     Ch92240  14.346  15.819  11.334  0.1820  0.4414  0.4517
 2581PBP     C192241  16.223   4.412   8.976  0.1691 -0.0881 -0.1535
 2581PBP     C192242  16.013   4.807   9.262 -0.0331 -0.3022 -0.1208
 2581PBP     C192243  16.049   5.318   9.491  0.0214 -0.0725  0.1949
 2581PBP     C192244  15.945   5.734   9.762  0.1772 -0.1358 -0.1235
 2581PBP     C192245  15.547   5.880   9.766  0.0156 -0.5942  0.0678
 2581PBP     C192246  15.125   5.889  10.000 -0.3146  0.1001  0.2846
 2581PBP     C192247  14.959   5.655  10.393  0.2356  0.1303  0.3891
 2581PBP     C192248  15.135   5.408  10.741  0.0128 -0.1896  0.0539
 2581PBP     CP92249  15.012   5.414  11.135 -0.1382  0.4757 -0.3304
 2581PBP     CP92250  14.971   5.508  11.430  0.4058  0.0367  0.5913
 2581PBP     CP92251  14.739   5.387  11.571  0.2276  0.1907  0.1810
 2581PBP     Ch92252  14.687   5.306  11.767 -0.0304 -0.0347 -0.1533
 2582PBP     C192253   9.062  11.117  15.899 -0.1323  0.0863  0.2630
 2582PBP     C192254   9.349  11.148  15.663  0.2628 -0.0003 -0.0163
 2582PBP     C192255   9.508  11.156  15.292  0.4372 -0.0419 -0.2390
 2582PBP     C192256   9.348  11.445  15.028  0.1568  0.1155  0.2156
 2582PBP     C192257   9.180  11.493  14.557  0.0331  0.0263  0.5161
 2582PBP     C192258   9.113  11.927  14.304  0.0794 -0.1044 -0.2484
 2582PBP     C192259   8.650  12.259  14.275 -0.4367 -0.5577  0.2037
 2582PBP     C192260   8.237  12.397  14.223 -0.0498 -0.2696 -0.1494
 2582PBP     CP92261   8.022  12.367  13.889 -0.6852 -0.4411 -0.0486
 2582PBP     CP92262   7.847  12.495  13.646  0.3249 -0.1169 -0.0446
 2582PBP     CP92263   7.851  12.635  13.341 -0.2929 -0.3404  0.1894
 2582PBP     Ch92264   7.956  12.506  13.095  0.1594  0.1835  0.1241
 2583PBP     C192265   7.249   8.277   6.606  0.1604 -0.4438  0.0729
 2583PBP     C192266   7.088   8.685   6.796 -0.3653 -0.1419 -0.1815
 2583PBP     C192267   6.849   8.918   6.978  0.2262  0.2896 -0.1482
 2583PBP     C192268   6.680   9.129   7.384 -0.0609 -0.0871 -0.3311
 2583PBP     C192269   6.654   9.612   7.456 -0.2061  0.1109 -0.0206
 2583PBP     C192270   6.595   9.996   7.573 -0.1467 -0.2197 -0.1864
 2583PBP     C192271   6.359  10.416   7.539 -0.0160  0.2651  0.0079
 2583PBP     C192272   6.666  10.445   7.814 -0.0956 -0.3153 -0.0361
 2583PBP     CP92273   6.817  10.621   8.141 -0.5198  0.0103  0.3500
 2583PBP     CP92274   7.103  10.608   8.309 -0.3509 -0.0396  0.0333
 2583PBP     CP92275   7.373  10.470   8.339  0.0681 -0.4477  0.0621
 2583PBP     Ch92276   7.384  10.231   8.414 -0.2277 -0.1402 -0.1795
 2584PBP     C192277  11.879   8.275  14.875  0.1169  0.2287 -0.0918
 2584PBP     C192278  11.800   8.561  14.371 -0.1110  0.4018 -0.1068
 2584PBP     C192279  11.701   8.992  14.392  0.1957 -0.0375 -0.1033
 2584PBP     C192280  11.691   9.372  14.579 -0.0707 -0.3601 -0.4019
 2584PBP     C192281  11.718   9.450  15.029 -0.3540  0.1624 -0.0146
 2584PBP     C192282  12.008   9.334  15.405  0.0633  0.0230  0.0688
 2584PBP     C192283  12.205   8.969  15.365 -0.0408  0.5314  0.0488
 2584PBP     C192284  12.596   8.885  15.151  0.4797  0.1117  0.1523
 2584PBP     CP92285  12.933   9.067  14.992 -0.1459 -0.3684  0.2837
 2584PBP     CP92286  13.132   9.147  14.813 -0.3740 -0.2993 -0.1502
 2584PBP     CP92287  13.246   9.374  14.565 -0.0443  0.0858 -0.0340
 2584PBP     Ch92288  13.198   9.383  14.320  0.1757  0.2912  0.0924
 2585PBP     C192289  16.951   6.952  14.439  0.4336 -0.1184 -0.0723
 2585PBP     C192290  16.984   7.315  14.660 -0.1626  0.2613 -0.1527
 2585PBP     C192291  16.622   7.564  14.638 -0.4278 -0.0625 -0.0930
 2585PBP     C192292  16.271   7.900  14.739  0.2548  0.0738 -0.4567
 2585PBP     C192293  16.151   8.374  14.479 -0.3704  0.4040  0.0896
 2585PBP     C192294  16.260   8.330  13.887  0.1527  0.2838 -0.0697
 2585PBP     C192295  15.867   8.504  13.753 -0.2749 -0.1143  0.2507
 2585PBP     C192296  15.744   8.844  13.554  0.1660  0.3252 -0.1326
 2585PBP     CP92297  15.365   8.916  13.653 -0.2215  0.7231  0.0546
 2585PBP     CP92298  15.061   8.934  13.516 -0.6434 -0.2213 -0.3775
 2585PBP     CP92299  14.880   8.681  13.427  0.3967 -0.4265  0.2561
 2585PBP     Ch92300  14.825   8.481  13.359  0.0235 -0.1649 -0.0002
 2586PBP     C192301  10.250   5.013  15.321  0.1824 -0.1753 -0.1267
 2586PBP     C192302  10.572   5.386  15.345  0.3035 -0.3681  0.4344
 2586PBP     C192303  11.055   5.439  15.426  0.1418 -0.1561  0.2392
 2586PBP     C192304  11.399   5.329  15.227 -0.0849 -0.1228 -0.2742
 2586PBP     C192305  11.549   5.067  14.937  0.1208  0.1415  0.1423
 2586PBP     C192306  11.835   5.197  14.611 -0.2062 -0.2805  0.2454
 2586PBP     C192307  11.692   5.009  14.307 -0.1683  0.0446  0.2621
 2586PBP     C192308  12.083   5.001  14.124 -0.1175 -0.0986  0.3358
 2586PBP     CP92309  12.220   4.977  13.767  0.2129 -0.3023  0.3739
 2586PBP     CP92310  12.444   5.158  13.632  0.2472  0.0490  0.3188
 2586PBP     CP92311  12.682   5.309  13.705  0.3814  0.2947 -0.3163
 2586PBP     Ch92312  12.957   5.283  13.635 -0.2818 -0.3674 -0.1656
 2587PBP     C192313  12.878   5.148  10.253 -0.2024  0.1335  0.1891
 2587PBP     C192314  12.934   5.127  10.672  0.3121  0.2678 -0.1392
 2587PBP     C192315  12.781   5.036  11.057  0.1196 -0.1734 -0.2279
 2587PBP     C192316  12.630   4.567  11.248 -0.3866 -0.2513  0.0145
 2587PBP     C192317  12.534   4.159  11.441 -0.0401  0.0570  0.2972
 2587PBP     C192318  12.144   4.118  11.689  0.0107  0.2936  0.0741
 2587PBP     C192319  11.758   4.392  11.678 -0.2759  0.1076 -0.1548
 2587PBP     C192320  11.648   4.778  11.508  0.1073 -0.5180 -0.2664
 2587PBP     CP92321  11.488   5.127  11.679  0.3024 -0.0285 -0.0461
 2587PBP     CP92322  11.286   5.359  11.727  0.4194  0.1754 -0.2237
 2587PBP     CP92323  11.300   5.688  11.754  0.5079 -0.5860 -0.2527
 2587PBP     Ch92324  11.455   5.887  11.806 -0.4942 -0.0680 -0.0352
 2588PBP     C192325  16.273  11.280  15.227 -0.0837 -0.3325 -0.5128
 2588PBP     C192326  16.582  11.452  15.094 -0.1056  0.2597  0.1867
 2588PBP     C192327  16.764  11.775  14.798 -0.3061 -0.1505  0.1554
 2588PBP     C192328  16.886  12.153  14.629  0.2393  0.0117 -0.1767
 2588PBP     C192329  16.933  12.458  14.300  0.2531  0.1354  0.1405
 2588PBP     C192330  16.692  12.771  14.002  0.2799  0.0036 -0.1189
 2588PBP     C192331  16.336  12.821  13.905 -0.4262 -0.1345 -0.2434
 2588PBP     C192332  15.952  12.656  13.736 -0.0720 -0.1143  0.2152
 2588PBP     CP92333  15.800  12.418  13.473  0.4061 -0.0412  0.3636
 2588PBP     CP92334  15.509  12.357  13.548  0.1327  0.1960 -0.3369
 2588PBP     CP92335  15.374  12.078  13.634  0.1318 -0.4167 -0.1713
 2588PBP     Ch92336  15.497  11.843  13.668  0.4209  0.4071  0.1754
 2589PBP     C192337  11.189   3.545  15.482  0.1861 -0.0047  0.3121
 2589PBP     C192338  11.686   3.648  15.448 -0.1191  0.0176 -0.1351
 2589PBP     C192339  11.948   4.171  15.263  0.0251  0.0991  0.1147
 2589PBP     C192340  11.872   4.574  15.225  0.1303 -0.3440 -0.1573
 2589PBP     C192341  11.999   4.927  15.014  0.2099  0.0390  0.1405
 2589PBP     C192342  12.433   4.963  14.863 -0.2054  0.1822  0.0255
 2589PBP     C192343  12.703   5.053  14.470  0.2572 -0.0199 -0.2304
 2589PBP     C192344  12.562   5.310  14.195  0.1628  0.1345  0.2079
 2589PBP     CP92345  12.704   5.624  14.056 -0.0772  0.0165  0.5947
 2589PBP     CP92346  12.628   5.931  14.069  0.1671  0.2302 -0.3503
 2589PBP     CP92347  12.731   6.163  13.923 -0.2435  0.1671  0.0079
 2589PBP     Ch92348  12.834   6.209  13.705 -0.2216 -0.2656 -0.0504
 2590PBP     C192349   6.995  17.004  13.526 -0.1819 -0.4889  0.1136
 2590PBP     C192350   6.949  16.595  13.807  0.1417 -0.2825 -0.0497
 2590PBP     C192351   6.573  16.355  13.969  0.0002 -0.0023  0.4975
 2590PBP     C192352   6.509  15.937  14.083  0.1445  0.0260 -0.1069
 2590PBP     C192353   6.377  15.655  13.774  0.2914  0.1446  0.1164
 2590PBP     C192354   6.314  15.299  13.919 -0.0669 -0.0853  0.2369
 2590PBP     C192355   6.215  14.802  13.877  0.2261  0.0282 -0.1159
 2590PBP     C192356   6.086  14.489  13.552 -0.3069  0.0588 -0.1195
 2590PBP     CP92357   5.818  14.500  13.225 -0.1582 -0.0864  0.3504
 2590PBP     CP92358   5.607  14.275  13.114 -0.2900 -0.1237 -0.1255
 2590PBP     CP92359   5.595  14.169  12.802  0.2258  0.1760  0.2349
 2590PBP     Ch92360   5.742  14.078  12.590  0.0033 -0.3314 -0.5408
 2591PBP     C192361   6.297   8.239  14.160 -0.1042  0.1221 -0.0234
 2591PBP     C192362   6.440   8.073  13.899 -0.1978  0.0984  0.5708
 2591PBP     C192363   6.740   7.951  13.423  0.1893 -0.2758 -0.4533
 2591PBP     C192364   6.584   7.561  13.200  0.0834  0.1112 -0.0462
 2591PBP     C192365   6.689   7.244  12.903  0.1039  0.3112 -0.2771
 2591PBP     C192366   7.033   6.976  13.009  0.0687 -0.1714  0.2299
 2591PBP     C192367   7.511   7.000  12.923 -0.0709  0.1748  0.0952
 2591PBP     C192368   7.914   7.009  12.612 -0.0208 -0.1381 -0.4452
 2591PBP     CP92369   8.185   7.111  12.421 -0.0755 -0.0851  0.1616
 2591PBP     CP92370   8.488   7.191  12.448  0.3583 -0.1446 -0.3467
 2591PBP     CP92371   8.704   7.182  12.650  0.4618 -0.1045 -0.1055
 2591PBP     Ch92372   8.986   7.219  12.564  0.2631  0.0648  0.2989
 2592PBP     C192373  16.153  12.446   9.290  0.0710 -0.1080  0.1133
 2592PBP     C192374  16.424  12.214   8.924 -0.3009 -0.4909 -0.2612
 2592PBP     C192375  16.508  11.702   8.881  0.2575 -0.1665 -0.2246
 2592PBP     C192376  16.585  11.279   8.963  0.0788 -0.2673  0.0484
 2592PBP     C192377  16.446  11.095   9.404  0.1548  0.0376 -0.1678
 2592PBP     C192378  16.210  10.798   9.742  0.0612 -0.0507  0.3266
 2592PBP     C192379  15.823  10.989   9.839 -0.2544 -0.0119  0.3181
 2592PBP     C192380  15.521  10.886  10.323  0.6076 -0.0294  0.1431
 2592PBP     CP92381  15.262  10.667  10.497 -0.4991  0.1724 -0.1829
 2592PBP     CP92382  15.173  10.350  10.445  0.1178  0.1828  0.2694
 2592PBP     CP92383  14.885  10.145  10.556 -0.0483  0.0493  0.0971
 2592PBP     Ch92384  14.826   9.950  10.771 -0.1819 -0.0496 -0.4062
 2593PBP     C192385  17.040   6.480  14.411 -0.2725 -0.3211 -0.0167
 2593PBP     C192386  16.938   6.686  13.924 -0.0666  0.1848  0.3528
 2593PBP     C192387  16.742   6.426  13.478  0.0175 -0.1431 -0.1750
 2593PBP     C192388  16.825   5.971  13.354 -0.4446 -0.2172  0.0008
 2593PBP     C192389  16.712   5.642  13.101 -0.0376 -0.3030 -0.0631
 2593PBP     C192390  16.584   5.167  12.954 -0.1324 -0.2195  0.0879
 2593PBP     C192391  16.109   5.162  13.028 -0.0291 -0.0986  0.2059
 2593PBP     C192392  15.657   5.052  13.136  0.1211  0.3595 -0.1166
 2593PBP     CP92393  15.325   5.318  13.069 -0.2149 -0.5348 -0.1713
 2593PBP     CP92394  15.136   5.603  13.009 -0.2319 -0.0695  0.3521
 2593PBP     CP92395  15.175   5.947  13.076  0.2587  0.1027 -0.0931
 2593PBP     Ch92396  14.960   6.136  13.041  0.1401  0.0298  0.2558
 2594PBP     C192397   7.081  11.318  13.193  0.0528 -0.7257 -0.0087
 2594PBP     C192398   7.276  10.943  13.172  0.0722 -0.0771  0.0083
 2594PBP     C192399   7.644  10.624  13.329 -0.3046 -0.1085  0.0796
 2594PBP     C192400   7.902  10.274  13.226  0.0156  0.0486  0.0115
 2594PBP     C192401   8.009   9.820  13.165  0.4108  0.2020 -0.2880
 2594PBP     C192402   7.968   9.329  13.281 -0.2076 -0.0561 -0.4026
 2594PBP     C192403   8.224   8.957  13.432 -0.2527 -0.0130  0.0381
 2594PBP     C192404   8.252   8.519  13.226 -0.2638  0.2793  0.2236
 2594PBP     CP92405   8.220   8.393  12.833 -0.1538 -0.2190  0.0568
 2594PBP     CP92406   8.098   8.560  12.588 -0.3239 -0.0987 -0.1067
 2594PBP     CP92407   7.903   8.733  12.529 -1.0402 -0.4479 -0.3749
 2594PBP     Ch92408   7.825   8.947  12.557 -0.0388  0.4911 -0.0083
 2595PBP     C192409  11.004  14.354  15.310 -0.2217 -0.0185  0.7343
 2595PBP     C192410  10.898  14.011  15.089  0.3366  0.5403 -0.1313
 2595PBP     C192411  11.030  13.503  15.060 -0.0540 -0.2123 -0.4026
 2595PBP     C192412  10.978  13.208  15.091  0.2636 -0.0839  0.0373
 2595PBP     C192413  10.645  13.112  15.167  0.0517  0.3574 -0.2483
 2595PBP     C192414  10.313  12.866  14.830 -0.0951  0.0082  0.4718
 2595PBP     C192415  10.260  12.599  14.539  0.1437 -0.2978  0.2088
 2595PBP     C192416  10.517  12.421  14.197  0.0321  0.2800 -0.1654
 2595PBP     CP92417  10.613  12.242  13.889  0.0124  0.1869 -0.3742
 2595PBP     CP92418  10.757  11.922  13.919 -0.0278 -0.2500  0.1999
 2595PBP     CP92419  10.976  11.762  13.942  0.3603  0.0523 -0.2678
 2595PBP     Ch92420  11.053  11.525  13.907  0.1392 -0.1442  0.4852
 2596PBP     C192421  10.913   6.459   6.326 -0.0471 -0.2741 -0.1928
 2596PBP     C192422  10.558   6.581   6.528 -0.1592  0.3543 -0.3860
 2596PBP     C192423  10.325   6.385   6.879  0.0783 -0.0328  0.0281
 2596PBP     C192424   9.930   6.183   6.945 -0.4071  0.1180  0.5649
 2596PBP     C192425   9.450   6.151   6.943 -0.2662 -0.2065  0.0037
 2596PBP     C192426   9.096   6.349   6.921 -0.2122  0.0262 -0.2502
 2596PBP     C192427   8.876   6.477   7.327  0.4275 -0.2263 -0.1027
 2596PBP     C192428   8.773   6.368   7.815  0.0068  0.3707  0.0915
 2596PBP     CP92429   8.627   6.361   8.196 -0.2459  0.4758  0.0969
 2596PBP     CP92430   8.580   6.635   8.135 -0.2507 -0.0634 -0.1248
 2596PBP     CP92431   8.585   6.944   8.236 -0.1789  0.1239 -0.0688
 2596PBP     Ch92432   8.531   7.205   8.282  0.0642  0.1153 -0.2241
 2597PBP     C192433   9.193   3.387   6.028  0.2388 -0.1189 -0.3044
 2597PBP     C192434   9.082   3.707   6.179 -0.0809 -0.5206 -0.1941
 2597PBP     C192435   8.996   3.815   6.788 -0.3351 -0.0442 -0.1939
 2597PBP     C192436   9.291   4.224   6.701 -0.5658 -0.3415  0.0284
 2597PBP     C192437   9.722   4.518   6.878  0.2333  0.2998  0.0768
 2597PBP     C192438   9.828   4.826   7.175  0.0185 -0.1528  0.0597
 2597PBP     C192439   9.458   5.222   7.333  0.0893  0.1974  0.2714
 2597PBP     C192440   9.423   5.377   7.773 -0.2327  0.1374 -0.1837
 2597PBP     CP92441   9.157   5.443   8.119  0.1758  0.3407  0.1800
 2597PBP     CP92442   9.010   5.768   8.183 -0.0956 -0.2379 -0.1208
 2597PBP     CP92443   8.721   5.904   8.117 -0.3264  0.1519 -0.2616
 2597PBP     Ch92444   8.462   5.839   8.071  0.2328  0.2714  0.1004
 2598PBP     C192445   8.769  10.682   6.914  0.3839  0.2799 -0.1900
 2598PBP     C192446   8.548  10.440   7.170 -0.7138  0.2938  0.2490
 2598PBP     C192447   8.607  10.289   7.633 -0.1207  0.2310 -0.1551
 2598PBP     C192448   8.776  10.161   8.032  0.1952  0.2536  0.0204
 2598PBP     C192449   9.198  10.122   8.296 -0.0892 -0.1713 -0.1645
 2598PBP     C192450   9.625  10.401   8.222 -0.1304 -0.2083 -0.3165
 2598PBP     C192451  10.204  10.458   8.178  0.0690  0.2827  0.3223
 2598PBP     C192452  10.578  10.354   8.488 -0.0019  0.0217 -0.0736
 2598PBP     CP92453  10.688  10.557   8.836 -0.1342  0.2050 -0.3748
 2598PBP     CP92454  10.866  10.448   9.099  0.2751 -0.3727  0.1682
 2598PBP     CP92455  10.847  10.169   9.247  0.0170 -0.2693 -0.2064
 2598PBP     Ch92456  10.622  10.138   9.404 -0.2454  0.3303  0.0346
 2599PBP     C192457   7.527  16.951  11.320 -0.0561 -0.3486 -0.1903
 2599PBP     C192458   7.468  17.202  11.720  0.1013 -0.3720 -0.1000
 2599PBP     C192459   7.441  17.062  12.026 -0.2652  0.1666  0.2471
 2599PBP     C192460   7.494  16.661  12.081 -0.1364 -0.0000 -0.0722
 2599PBP     C192461   7.619  16.294  12.397 -0.0470 -0.1636 -0.6490
 2599PBP     C192462   7.230  16.063  12.578  0.4871  0.1826  0.4652
 2599PBP     C192463   6.703  16.104  12.220  0.1762 -0.0439 -0.1896
 2599PBP     C192464   6.760  15.634  11.984 -0.2479 -0.2554  0.0921
 2599PBP     CP92465   6.743  15.359  11.707 -0.1400 -0.0209  0.3306
 2599PBP     CP92466   6.643  15.047  11.662 -0.4579 -0.4059  0.2748
 2599PBP     CP92467   6.770  14.751  11.632  0.2917  0.1577 -0.4627
 2599PBP     Ch92468   6.922  14.520  11.624 -0.3262  0.0273 -0.3974
 2600PBP     C192469   7.710  16.735   8.915  0.2799 -0.1058  0.7662
 2600PBP     C192470   7.786  16.367   8.684 -0.0225  0.3190 -0.0027
 2600PBP     C192471   7.812  15.864   8.694  0.1684 -0.0921  0.2590
 2600PBP     C192472   8.047  15.484   8.696  0.0688  0.0348  0.3299
 2600PBP     C192473   8.369  15.158   8.825 -0.0201  0.3290 -0.1001
 2600PBP     C192474   8.496  14.654   8.913  0.2249  0.1578 -0.1736
 2600PBP     C192475   8.780  14.331   8.697  0.0086 -0.1017 -0.2546
 2600PBP     C192476   9.151  14.151   8.823  0.4793 -0.2111  0.2715
 2600PBP     CP92477   8.982  14.007   9.127 -0.1742 -0.3081  0.0265
 2600PBP     CP92478   8.806  14.166   9.317  0.5364 -0.5478 -0.0603
 2600PBP     CP92479   8.537  14.382   9.285  0.0329  0.2263 -0.6623
 2600PBP     Ch92480   8.282  14.318   9.227 -0.4424 -0.2349 -0.5811
 2601PBP     C192481  14.839  10.157   9.523  0.0990 -0.0838  0.1198
 2601PBP     C192482  15.063  10.477   9.497  0.0605 -0.1283 -0.3427
 2601PBP     C192483  14.875  10.992   9.555  0.1813 -0.3370 -0.0319
 2601PBP     C192484  14.419  11.249   9.759 -0.4585 -0.1564 -0.3794
 2601PBP     C192485  14.032  11.488   9.855 -0.0200  0.0056 -0.2172
 2601PBP     C192486  13.625  11.675   9.812  0.1392  0.0815 -0.0445
 2601PBP     C192487  13.262  11.985   9.944 -0.0714 -0.2216 -0.3605
 2601PBP     C192488  12.987  12.130  10.241  0.2802 -0.0824 -0.1627
 2601PBP     CP92489  12.645  12.104  10.324 -0.1827  0.5643  0.0483
 2601PBP     CP92490  12.361  11.984  10.227  0.0322 -0.3381 -0.1021
 2601PBP     CP92491  12.255  11.783   9.961  0.0015  0.5521  0.0170
 2601PBP     Ch92492  12.173  11.541  10.153  0.3024  0.4370 -0.3740
 2602PBP     C192493  12.883   9.688   8.980  0.1319 -0.0365 -0.0980
 2602PBP     C192494  12.912  10.010   8.618 -0.3522 -0.2192  0.1819
 2602PBP     C192495  12.741  10.375   8.347  0.2230  0.1073 -0.1505
 2602PBP     C192496  12.326  10.590   8.282  0.0325  0.4345  0.2313
 2602PBP     C192497  11.831  10.475   8.171  0.0102  0.0276  0.5126
 2602PBP     C192498  11.343  10.579   8.237 -0.1396  0.0922  0.2657
 2602PBP     C192499  11.052  10.454   8.587  0.0586  0.1621  0.0735
 2602PBP     C192500  10.792  10.019   8.774  0.1159  0.0108  0.0353
 2602PBP     CP92501  10.569   9.771   8.745  0.0512 -0.0275 -0.3193
 2602PBP     CP92502  10.294   9.696   8.822 -0.2874  0.1361 -0.0607
 2602PBP     CP92503   9.973   9.646   8.912 -0.5728  0.4137 -0.1555
 2602PBP     Ch92504   9.907   9.574   9.142  0.0883 -0.1817  0.1286
 2603PBP     C192505   9.572  12.374  15.153 -0.0762 -0.0295 -0.2546
 2603PBP     C192506   9.324  12.616  14.941  0.1609  0.0953 -0.2006
 2603PBP     C192507   9.323  12.875  14.604  0.0742 -0.3881 -0.0232
 2603PBP     C192508   9.415  13.334  14.500  0.0386 -0.2027 -0.2530
 2603PBP     C192509   9.801  13.506  14.420 -0.0193  0.0291 -0.0758
 2603PBP     C192510  10.191  13.389  14.483  0.3230  0.0492 -0.2605
 2603PBP     C192511  10.411  13.076  14.373  0.2471 -0.0679 -0.0008
 2603PBP     C192512  10.334  12.862  14.003  0.0343 -0.3885 -0.3343
 2603PBP     CP92513   9.980  12.733  13.815 -0.2435  0.1538 -0.5669
 2603PBP     CP92514   9.773  12.573  13.658  0.2336  0.2144 -0.3838
 2603PBP     CP92515   9.474  12.571  13.644 -0.0060 -0.7567  0.3795
 2603PBP     Ch92516   9.320  12.595  13.492  0.0197 -0.2354  0.3335
 2604PBP     C192517   7.154  12.612  14.183 -0.1017 -0.2835  0.5078
 2604PBP     C192518   6.775  12.508  14.093 -0.2257  0.0251 -0.3662
 2604PBP     C192519   6.479  12.132  13.930 -0.0412 -0.1417 -0.4445
 2604PBP     C192520   6.204  11.937  13.793 -0.4755  0.2469  0.1258
 2604PBP     C192521   6.208  11.502  13.642  0.1429  0.3007 -0.0077
 2604PBP     C192522   6.382  11.118  13.489 -0.2352 -0.0769  0.2575
 2604PBP     C192523   6.684  10.844  13.285  0.1428 -0.4000  0.2525
 2604PBP     C192524   6.753  10.981  12.937  0.0457  0.0149 -0.0141
 2604PBP     CP92525   6.995  11.095  12.648 -0.3032 -0.1953 -0.2740
 2604PBP     CP92526   7.324  11.082  12.599 -0.5009 -0.0366 -0.1493
 2604PBP     CP92527   7.588  11.016  12.782  0.3932  0.0212  0.3160
 2604PBP     Ch92528   7.737  11.115  12.978  0.2465  0.5515 -0.0329
 2605PBP     C192529   8.860  16.045   8.689 -0.4500  0.1089 -0.1383
 2605PBP     C192530   9.017  15.648   8.682  0.2808 -0.1749 -0.0316
 2605PBP     C192531   9.245  15.268   8.479 -0.0870  0.0558 -0.1298
 2605PBP     C192532   9.540  15.338   8.223 -0.2253  0.2398  0.2499
 2605PBP     C192533   9.935  15.262   8.230 -0.0642 -0.5274 -0.1113
 2605PBP     C192534  10.159  15.066   8.540 -0.3053  0.2803  0.2128
 2605PBP     C192535  10.183  14.654   8.684  0.1380 -0.4329 -0.2712
 2605PBP     C192536  10.138  14.608   9.117 -0.0947 -0.1477  0.1593
 2605PBP     CP92537   9.837  14.599   9.407  0.1102 -0.0862 -0.2830
 2605PBP     CP92538   9.603  14.489   9.596  0.0660  0.1214 -0.0201
 2605PBP     CP92539   9.332  14.444   9.482  0.3392 -0.3729 -0.0223
 2605PBP     Ch92540   9.121  14.405   9.540 -0.2667 -0.2228 -0.3824
 2606PBP     C192541  13.120   7.538  17.019 -0.0580  0.3219  0.1667
 2606PBP     C192542  13.172   7.380  16.618  0.2258 -0.1315  0.0140
 2606PBP     C192543  13.289   7.276  16.228 -0.0123 -0.3750 -0.0702
 2606PBP     C192544  13.369   7.516  15.838 -0.2681 -0.0295 -0.1932
 2606PBP     C192545  13.513   7.603  15.431  0.0230 -0.1075 -0.0317
 2606PBP     C192546  13.430   7.708  15.089 -0.1791  0.2678 -0.8401
 2606PBP     C192547  13.005   7.594  14.977  0.0284  0.5917  0.0157
 2606PBP     C192548  12.883   7.211  14.835 -0.2663  0.1670 -0.0396
 2606PBP     CP92549  13.064   7.044  14.560  0.2305  0.2357 -0.3359
 2606PBP     CP92550  13.294   6.802  14.477 -0.0145  0.1773 -0.0332
 2606PBP     CP92551  13.469   6.687  14.283  0.1623 -0.2992 -0.1667
 2606PBP     Ch92552  13.490   6.674  14.002 -0.2992  0.1765 -0.0436
 2607PBP     C192553   8.205   3.434  12.064 -0.0730 -0.1499  0.0035
 2607PBP     C192554   8.416   3.380  12.498  0.4210 -0.0654  0.2494
 2607PBP     C192555   8.699   3.668  12.494 -0.2520 -0.1230 -0.4032
 2607PBP     C192556   8.994   3.833  12.459 -0.0958 -0.2807  0.2629
 2607PBP     C192557   9.306   3.949  12.649 -0.2248 -0.0552 -0.0816
 2607PBP     C192558   9.634   3.843  12.842  0.4417  0.4773  0.0453
 2607PBP     C192559   9.875   4.029  12.683  0.4536 -0.0974 -0.3841
 2607PBP     C192560  10.105   4.248  12.376  0.1598 -0.1005  0.0925
 2607PBP     CP92561  10.396   4.381  12.141 -0.0230 -0.4104  0.2572
 2607PBP     CP92562  10.406   4.527  11.866 -0.1317  0.1936 -0.5400
 2607PBP     CP92563  10.493   4.374  11.634 -0.0829  0.0465  0.0438
 2607PBP     Ch92564  10.655   4.325  11.477 -0.3249  0.4574  0.3739
 2608PBP     C192565   4.099   9.575  10.955 -0.0588 -0.0958 -0.0640
 2608PBP     C192566   4.513   9.438  11.210 -0.0103  0.0329 -0.0142
 2608PBP     C192567   4.909   9.498  11.495 -0.2849 -0.3392 -0.2595
 2608PBP     C192568   4.963   9.884  11.821 -0.0776 -0.1774 -0.0297
 2608PBP     C192569   5.189  10.069  12.111 -0.2206  0.2604  0.0483
 2608PBP     C192570   5.175  10.360  12.463 -0.0750  0.3981  0.3518
 2608PBP     C192571   5.457  10.737  12.535  0.0852  0.4438  0.2037
 2608PBP     C192572   5.744  10.990  12.611  0.3805  0.1480  0.3357
 2608PBP     CP92573   5.999  11.136  12.310 -0.2416 -0.0884  0.2926
 2608PBP     CP92574   6.128  11.383  12.304  0.3896  0.0880  0.2818
 2608PBP     CP92575   6.354  11.462  12.490 -0.6061 -0.5181 -0.1348
 2608PBP     Ch92576   6.588  11.331  12.481  0.2301 -0.0711  0.0994
 2609PBP     C192577   4.488   9.241   7.469  0.0459  0.2776 -0.2178
 2609PBP     C192578   4.209   9.149   7.670  0.3351  0.2665  0.1571
 2609PBP     C192579   4.266   9.386   8.150 -0.2866 -0.0697 -0.0964
 2609PBP     C192580   4.339   9.679   8.499  0.0463  0.2406 -0.2326
 2609PBP     C192581   4.451   9.995   8.661  0.1918 -0.1981  0.0600
 2609PBP     C192582   4.660  10.332   8.365 -0.3078  0.2160 -0.4108
 2609PBP     C192583   4.987  10.476   8.135  0.1972  0.1554 -0.0534
 2609PBP     C192584   5.419  10.784   8.065 -0.0836  0.1024 -0.0204
 2609PBP     CP92585   5.611  11.086   8.101  0.4041  0.1763 -0.1274
 2609PBP     CP92586   5.919  11.156   8.134  0.1210  0.6492  0.2789
 2609PBP     CP92587   6.195  10.984   8.129  0.1368  0.2795 -0.0141
 2609PBP     Ch92588   6.378  10.893   8.002  0.1282  0.1290  0.4547
 2610PBP     C192589  16.651  11.105   9.927  0.0431 -0.1936 -0.0287
 2610PBP     C192590  16.405  11.237  10.279 -0.0936 -0.0947 -0.0104
 2610PBP     C192591  16.267  11.355  10.640  0.1528  0.2269 -0.0123
 2610PBP     C192592  16.407  11.168  11.005  0.0783  0.1102  0.1224
 2610PBP     C192593  16.344  11.003  11.560  0.1869 -0.0709 -0.0973
 2610PBP     C192594  16.184  10.852  11.982 -0.1085  0.3933 -0.2572
 2610PBP     C192595  15.813  10.709  12.247 -0.4472  0.2710  0.0501
 2610PBP     C192596  15.513  10.646  12.473  0.0525  0.1087 -0.2449
 2610PBP     CP92597  15.244  10.846  12.420  0.0564  0.1134  0.3034
 2610PBP     CP92598  14.989  11.059  12.347 -0.1623 -0.2762 -0.2235
 2610PBP     CP92599  14.660  11.043  12.253 -0.6523  0.4522 -0.3653
 2610PBP     Ch92600  14.489  10.926  12.169  0.0068 -0.1070 -0.1252
 2611PBP     C192601  17.115  14.676  10.486 -0.1979  0.0155  0.0833
 2611PBP     C192602  16.873  14.451  10.704 -0.0741 -0.5097  0.5150
 2611PBP     C192603  16.520  14.419  10.714  0.0481  0.6314  0.1764
 2611PBP     C192604  16.146  14.285  10.951  0.0211  0.0232 -0.2445
 2611PBP     C192605  16.177  13.827  11.173 -0.7204  0.2814 -0.3550
 2611PBP     C192606  16.177  13.400  11.277 -0.0423  0.1272  0.0577
 2611PBP     C192607  16.160  12.935  11.381  0.3549 -0.3349 -0.3416
 2611PBP     C192608  15.974  12.547  11.333 -0.2424  0.1322 -0.0267
 2611PBP     CP92609  15.730  12.269  11.250 -0.0305 -0.1714  0.2821
 2611PBP     CP92610  15.404  12.303  11.167  0.3062 -0.1600 -0.4908
 2611PBP     CP92611  15.212  12.051  11.095  0.0877  0.1083  0.2292
 2611PBP     Ch92612  15.081  11.801  11.119 -0.0812  0.0831  0.0114
 2612PBP     C192613   9.052   6.696   5.582 -0.2990 -0.3843  0.3574
 2612PBP     C192614   9.032   6.651   5.995  0.1762  0.1818  0.2334
 2612PBP     C192615   9.114   6.519   6.426  0.2078 -0.0156  0.1253
 2612PBP     C192616   9.146   6.850   6.787 -0.0647 -0.0452  0.0593
 2612PBP     C192617   9.670   7.126   6.937  0.0640  0.1333  0.0053
 2612PBP     C192618   9.934   6.992   7.271 -0.0472  0.1669 -0.3220
 2612PBP     C192619  10.255   7.154   7.675 -0.0813 -0.0565  0.1480
 2612PBP     C192620  10.390   7.471   8.008  0.0389  0.2097 -0.0989
 2612PBP     CP92621  10.299   7.472   8.416  0.1910  0.1595  0.3344
 2612PBP     CP92622  10.377   7.720   8.664  0.4257 -0.1780  0.1038
 2612PBP     CP92623  10.255   7.922   8.873 -0.2001  0.3038 -0.4916
 2612PBP     Ch92624  10.296   8.191   8.939 -0.3704  0.1074  0.2787
 2613PBP     C192625  10.623  15.298   8.339 -0.1045  0.2821  0.0650
 2613PBP     C192626  10.590  14.972   8.775 -0.0183 -0.1165  0.0550
 2613PBP     C192627  10.739  14.737   8.967  0.4898  0.2186  0.3851
 2613PBP     C192628  10.981  14.469   9.125  0.1606 -0.1651  0.0768
 2613PBP     C192629  11.357  13.983   9.150  0.0415 -0.2877  0.3395
 2613PBP     C192630  11.644  13.657   9.041  0.0196  0.2610 -0.2426
 2613PBP     C192631  11.663  13.286   9.225  0.3644  0.3822 -0.5947
 2613PBP     C192632  11.284  13.006   9.319 -0.1302  0.3026  0.3494
 2613PBP     CP92633  11.063  13.075   9.614 -0.2871 -0.2558  0.3309
 2613PBP     CP92634  10.948  13.245   9.921 -0.1821  0.2558 -0.2524
 2613PBP     CP92635  10.745  13.527   9.871  0.0753  0.1037 -0.1568
 2613PBP     Ch92636  10.623  13.759   9.882  0.1954  0.3899  0.3417
 2614PBP     C192637   9.313   4.675  12.879 -0.3634 -0.1777 -0.0735
 2614PBP     C192638   8.992   4.459  12.649  0.1403 -0.0218  0.0162
 2614PBP     C192639   8.810   4.338  12.245 -0.0042  0.3126  0.1439
 2614PBP     C192640   8.828   4.226  11.823  0.1751  0.2021  0.1256
 2614PBP     C192641   8.489   4.212  11.605 -0.1118 -0.0605 -0.0737
 2614PBP     C192642   8.135   4.060  11.405 -0.2754  0.0144 -0.0074
 2614PBP     C192643   8.026   4.284  11.041  0.2088  0.0780 -0.1317
 2614PBP     C192644   8.219   4.592  10.677 -0.0001  0.0381 -0.1248
 2614PBP     CP92645   8.428   4.960  10.729  0.0866 -0.2107  0.0491
 2614PBP     CP92646   8.356   5.244  10.796 -0.0278 -0.2222 -0.1134
 2614PBP     CP92647   8.549   5.504  10.860 -0.7276 -0.3716  0.2057
 2614PBP     Ch92648   8.523   5.729  10.907  0.8273 -0.2720 -0.0273
 2615PBP     C192649  15.707  11.460  15.085  0.1669  0.2616 -0.0725
 2615PBP     C192650  15.372  11.586  15.271 -0.1221  0.0546  0.0424
 2615PBP     C192651  15.176  11.818  15.577 -0.1000  0.0227  0.0238
 2615PBP     C192652  14.806  11.839  15.909  0.1783  0.3527  0.1861
 2615PBP     C192653  14.684  12.168  16.173  0.2948 -0.1225 -0.0047
 2615PBP     C192654  14.355  12.284  16.030 -0.1094 -0.2174 -0.0235
 2615PBP     C192655  13.786  12.213  16.112 -0.0113 -0.0397 -0.2230
 2615PBP     C192656  13.608  12.423  15.862 -0.1441  0.0228 -0.1772
 2615PBP     CP92657  13.428  12.611  15.576  0.2166 -0.3208  0.1092
 2615PBP     CP92658  13.545  12.563  15.256  0.3583  0.1835 -0.3018
 2615PBP     CP92659  13.507  12.428  14.936  0.9151  0.1318 -0.0765
 2615PBP     Ch92660  13.437  12.161  14.873  0.2735  0.0789  0.1134
 2616PBP     C192661  12.271  10.966  15.694 -0.3999  0.0113 -0.1971
 2616PBP     C192662  11.906  11.279  15.801 -0.0084 -0.1854 -0.3505
 2616PBP     C192663  11.877  11.613  15.926 -0.1694 -0.0720 -0.2468
 2616PBP     C192664  11.912  12.008  15.800 -0.2201 -0.3565  0.0227
 2616PBP     C192665  11.709  12.315  15.403 -0.2590 -0.1368  0.0789
 2616PBP     C192666  11.652  12.616  15.240  0.3603 -0.0999 -0.1203
 2616PBP     C192667  11.318  12.880  14.999  0.0865  0.1618 -0.1925
 2616PBP     C192668  11.283  13.183  14.714 -0.0609  0.1687  0.3742
 2616PBP     CP92669  11.422  13.244  14.289 -0.0079 -0.1122 -0.2202
 2616PBP     CP92670  11.138  13.214  14.170  0.1092  0.1143  0.2355
 2616PBP     CP92671  10.876  13.026  14.177  0.2222  0.3365  0.3657
 2616PBP     Ch92672  10.878  12.781  14.119 -0.1663  0.4138 -0.2381
 2617PBP     C192673   9.145  14.717   7.908  0.1575  0.1928  0.0432
 2617PBP     C192674   9.095  15.060   7.543  0.3880 -0.5750  0.0699
 2617PBP     C192675   9.275  15.382   7.393 -0.2215  0.2599 -0.0727
 2617PBP     C192676   9.059  15.794   7.307 -0.0386 -0.2916  0.0160
 2617PBP     C192677   8.820  15.881   7.601  0.0710 -0.0401  0.0395
 2617PBP     C192678   8.459  15.940   7.674  0.0505 -0.0443 -0.0244
 2617PBP     C192679   8.219  15.762   7.999 -0.0650 -0.3023 -0.0666
 2617PBP     C192680   7.855  15.460   8.219 -0.0185  0.4488  0.2308
 2617PBP     CP92681   7.630  15.384   8.474  0.2606 -0.5561 -0.0616
 2617PBP     CP92682   7.314  15.342   8.645 -0.0394 -0.0629  0.0224
 2617PBP     CP92683   6.997  15.448   8.718 -0.0110 -0.3078  0.3801
 2617PBP     Ch92684   6.810  15.588   8.840 -0.4824  0.2696 -0.1664
 2618PBP     C192685   6.443   4.540  15.430 -0.1911  0.0273 -0.1389
 2618PBP     C192686   6.456   4.870  14.951 -0.4192  0.6135 -0.2653
 2618PBP     C192687   6.614   5.169  14.689  0.1700  0.1502  0.1428
 2618PBP     C192688   6.444   5.221  14.308  0.0705 -0.3577 -0.4305
 2618PBP     C192689   6.308   5.435  14.017 -0.1978  0.0316 -0.0484
 2618PBP     C192690   6.279   5.789  13.669  0.1803 -0.3499  0.2802
 2618PBP     C192691   6.406   5.896  13.237  0.0249  0.1251  0.0530
 2618PBP     C192692   6.572   5.994  12.829 -0.1296 -0.3526 -0.0735
 2618PBP     CP92693   6.498   6.283  12.501  0.0406 -0.1004  0.1444
 2618PBP     CP92694   6.476   6.332  12.137 -0.2611 -0.3041  0.1470
 2618PBP     CP92695   6.288   6.481  11.937 -0.1442  0.2569 -0.4071
 2618PBP     Ch92696   6.386   6.542  11.718  0.2413 -0.4571  0.5016
 2619PBP     C192697   6.118   9.935  12.230 -0.2366 -0.0142  0.4231
 2619PBP     C192698   5.864   9.692  12.488 -0.0834  0.1472  0.0085
 2619PBP     C192699   5.881   9.368  12.643  0.0267 -0.0796  0.2285
 2619PBP     C192700   5.760   8.944  12.519 -0.2188  0.2346 -0.0134
 2619PBP     C192701   5.851   8.492  12.742  0.0804 -0.0902  0.2115
 2619PBP     C192702   6.122   8.152  12.878 -0.3474 -0.4636 -0.1407
 2619PBP     C192703   6.427   7.969  13.042  0.2656  0.0691  0.1312
 2619PBP     C192704   6.832   7.849  12.775 -0.2440 -0.0595 -0.3455
 2619PBP     CP92705   7.122   7.942  12.568  0.2666  0.1325 -0.2928
 2619PBP     CP92706   7.241   8.228  12.620 -0.3923  0.1434  0.4460
 2619PBP     CP92707   7.518   8.422  12.558 -0.3419 -0.0628  0.0303
 2619PBP     Ch92708   7.640   8.451  12.308  0.2158  0.0852  0.3322
 2620PBP     C192709  14.262   7.002   7.653 -0.0682  0.3271  0.3678
 2620PBP     C192710  13.926   7.095   7.878  0.2983  0.0856  0.1124
 2620PBP     C192711  13.644   7.192   7.658  0.1893 -0.0347  0.3471
 2620PBP     C192712  13.256   6.990   7.816 -0.2445  0.3673  0.2977
 2620PBP     C192713  13.081   6.700   8.116  0.1212  0.2094  0.4682
 2620PBP     C192714  13.128   6.739   8.620  0.1248  0.0029  0.1455
 2620PBP     C192715  13.395   6.879   8.800 -0.3414 -0.1686  0.6263
 2620PBP     C192716  13.619   6.677   8.978  0.2077  0.1837 -0.0100
 2620PBP     CP92717  13.585   6.640   9.385 -0.6445  0.0298 -0.0101
 2620PBP     CP92718  13.555   6.793   9.706  0.0793  0.4254 -0.2770
 2620PBP     CP92719  13.433   7.077   9.782 -0.3030  0.2151  0.2702
 2620PBP     Ch92720  13.241   7.164   9.754 -0.0371 -0.1781  0.2483
 2621PBP     C192721  15.992  15.359  12.546  0.1727  0.0519  0.1622
 2621PBP     C192722  15.579  15.593  12.609  0.0660 -0.0190 -0.0059
 2621PBP     C192723  15.417  15.923  12.748 -0.0287  0.3592 -0.2910
 2621PBP     C192724  15.321  16.340  12.972  0.0070 -0.3265 -0.1620
 2621PBP     C192725  15.017  16.444  13.169  0.2962 -0.0451  0.2354
 2621PBP     C192726  14.639  16.768  13.270  0.1782 -0.0834 -0.1463
 2621PBP     C192727  14.249  16.641  13.407 -0.2440 -0.1728  0.2833
 2621PBP     C192728  13.925  16.652  13.238  0.3606 -0.1632  0.3461
 2621PBP     CP92729  13.925  16.489  12.902 -0.3282 -0.3643  0.4302
 2621PBP     CP92730  13.925  16.570  12.590  0.3889  0.3608 -0.2334
 2621PBP     CP92731  14.118  16.699  12.418 -0.1152  0.1771  0.0178
 2621PBP     Ch92732  14.289  16.852  12.499  0.3831 -0.0841 -0.0536
 2622PBP     C192733  10.799  16.565  12.763  0.0226 -0.2244  0.0186
 2622PBP     C192734  10.969  16.767  12.603  0.4934 -0.0908  0.0691
 2622PBP     C192735  11.233  17.200  12.688  0.0125  0.0455  0.0928
 2622PBP     C192736  11.266  17.325  13.021  0.1014  0.3746 -0.3774
 2622PBP     C192737  11.666  17.156  13.074 -0.1219 -0.0084  0.1938
 2622PBP     C192738  11.777  16.791  12.920 -0.0022  0.2397  0.0411
 2622PBP     C192739  11.776  16.290  12.999  0.3188 -0.1840 -0.0896
 2622PBP     C192740  11.660  15.921  13.273 -0.0719 -0.2020 -0.1494
 2622PBP     CP92741  11.563  15.520  13.274 -0.2397  0.2540  0.4270
 2622PBP     CP92742  11.568  15.272  13.234  0.7643 -0.3726 -0.0155
 2622PBP     CP92743  11.819  15.053  13.291 -0.0384 -0.5414 -0.2366
 2622PBP     Ch92744  11.933  14.846  13.276 -0.5619 -0.1116 -0.6525
 2623PBP     C192745  14.398   3.798  13.655 -0.2327 -0.0392 -0.0113
 2623PBP     C192746  14.590   3.961  13.377  0.0648 -0.2371 -0.2217
 2623PBP     C192747  15.038   3.935  13.285 -0.0089  0.2962 -0.0180
 2623PBP     C192748  15.397   3.947  13.049 -0.0441  0.3525 -0.0407
 2623PBP     C192749  15.410   4.350  12.770 -0.1516 -0.2082  0.0025
 2623PBP     C192750  15.307   4.540  12.476  0.0787 -0.2646 -0.0506
 2623PBP     C192751  15.599   4.771  12.163 -0.1310  0.3409  0.1069
 2623PBP     C192752  15.335   5.032  11.968  0.3740  0.0566 -0.0690
 2623PBP     CP92753  15.189   5.408  11.836  0.0573 -0.2749 -0.2471
 2623PBP     CP92754  15.294   5.655  11.688 -0.1894 -0.4337 -0.0775
 2623PBP     CP92755  15.478   5.921  11.751  0.1899 -0.4623  0.6857
 2623PBP     Ch92756  15.470   6.175  11.805  0.1602 -0.3627 -0.1437
 2624PBP     C192757  17.083  10.660  15.725  0.3891 -0.2283  0.2065
 2624PBP     C192758  16.965  10.396  15.844 -0.5054  0.0329 -0.1085
 2624PBP     C192759  16.519  10.259  15.942  0.2012  0.4543 -0.0765
 2624PBP     C192760  16.158  10.202  15.722 -0.6096  0.2069 -0.1612
 2624PBP     C192761  15.752  10.306  15.469  0.1231  0.0703 -0.1123
 2624PBP     C192762  15.427  10.628  15.620 -0.1220 -0.1795  0.2244
 2624PBP     C192763  15.012  10.803  15.749  0.1454  0.2412 -0.0360
 2624PBP     C192764  14.471  10.859  15.543 -0.4135  0.3903  0.2590
 2624PBP     CP92765  14.275  10.891  15.144 -0.6355 -0.3277  0.5149
 2624PBP     CP92766  14.191  10.736  14.896  0.2265 -0.0173  0.0155
 2624PBP     CP92767  13.901  10.640  14.805  0.1798  0.4843  0.2543
 2624PBP     Ch92768  13.655  10.701  14.782 -0.3872 -0.1456 -0.4870
 2625PBP     C192769  14.201  11.961   9.016 -0.0104 -0.2540  0.1039
 2625PBP     C192770  14.020  11.494   9.091 -0.1908  0.0097 -0.0526
 2625PBP     C192771  13.820  11.182   8.958 -0.1427 -0.3238  0.3108
 2625PBP     C192772  13.619  10.877   9.287  0.2844  0.0701  0.0643
 2625PBP     C192773  13.241  10.955   9.385 -0.2430  0.1702  0.1858
 2625PBP     C192774  12.893  10.965   9.397  0.0065  0.0913 -0.6351
 2625PBP     C192775  12.660  10.582   9.333 -0.0494 -0.2858  0.0226
 2625PBP     C192776  12.432  10.407   9.472 -0.1984  0.1625  0.1687
 2625PBP     CP92777  12.441  10.031   9.637  0.1794 -0.0271  0.0620
 2625PBP     CP92778  12.526   9.844   9.917 -0.0735  0.2129  0.2001
 2625PBP     CP92779  12.665   9.558   9.934 -0.0498 -0.3617  0.2152
 2625PBP     Ch92780  12.904   9.408   9.987 -0.4793 -0.0955 -0.1153
 2626PBP     C192781  12.556   7.839  15.827 -0.4690  0.0736  0.0061
 2626PBP     C192782  12.398   7.933  15.474  0.1613 -0.3001 -0.2114
 2626PBP     C192783  11.967   7.863  15.150 -0.3322 -0.0770 -0.3307
 2626PBP     C192784  11.673   7.835  14.789 -0.3037  0.1007  0.0186
 2626PBP     C192785  11.719   7.571  14.400 -0.4184 -0.1328  0.1897
 2626PBP     C192786  11.963   7.152  14.178 -0.0751 -0.0090  0.0030
 2626PBP     C192787  12.022   6.660  14.155  0.1097 -0.1082 -0.2527
 2626PBP     C192788  11.946   6.379  13.831 -0.3522 -0.1264  0.2031
 2626PBP     CP92789  12.056   6.592  13.504 -0.2833  0.4340 -0.5307
 2626PBP     CP92790  12.189   6.855  13.663 -0.3373  0.0789 -0.3014
 2626PBP     CP92791  12.125   7.168  13.644 -0.2355 -0.0172  0.2640
 2626PBP     Ch92792  12.210   7.400  13.753 -0.0506 -0.1225  0.3049
 2627PBP     C192793   5.105  15.197  12.524  0.3362 -0.1184 -0.2662
 2627PBP     C192794   5.206  15.462  12.158  0.0956  0.3377  0.3724
 2627PBP     C192795   5.575  15.842  11.899  0.1231 -0.2079 -0.1389
 2627PBP     C192796   6.006  15.926  11.747 -0.1500  0.0864 -0.2020
 2627PBP     C192797   6.396  15.958  11.752  0.3366  0.0802 -0.0526
 2627PBP     C192798   6.698  16.124  11.444 -0.4176  0.0893 -0.1810
 2627PBP     C192799   7.007  15.803  11.467 -0.0270 -0.2850 -0.1039
 2627PBP     C192800   7.227  15.646  11.817 -0.0096 -0.0814  0.3756
 2627PBP     CP92801   7.469  15.326  11.918 -0.2722  0.1996  0.4762
 2627PBP     CP92802   7.660  15.045  11.934 -0.1479  0.5563 -0.1757
 2627PBP     CP92803   7.522  14.760  11.832 -0.3342  0.2028 -0.0375
 2627PBP     Ch92804   7.397  14.557  11.776  0.4088 -0.2277  0.0259
 2628PBP     C192805   4.353  11.794   8.211  0.2318 -0.2315  0.4629
 2628PBP     C192806   4.113  12.014   8.561  0.0332 -0.0625 -0.0733
 2628PBP     C192807   3.956  11.909   9.097 -0.1959 -0.2082  0.0165
 2628PBP     C192808   3.876  11.535   9.373  0.0384 -0.1586 -0.0460
 2628PBP     C192809   3.771  11.106   9.286 -0.1605 -0.0168 -0.1228
 2628PBP     C192810   3.994  10.660   9.229  0.4210 -0.3299 -0.2054
 2628PBP     C192811   4.347  10.523   9.405 -0.1380  0.1971  0.0902
 2628PBP     C192812   4.743  10.303   9.272  0.4379 -0.2515  0.2356
 2628PBP     CP92813   5.104  10.380   9.348 -0.2579  0.0337  0.0939
 2628PBP     CP92814   5.419  10.336   9.257 -0.4022  0.2069  0.1397
 2628PBP     CP92815   5.596  10.080   9.281  0.5035 -0.2083 -0.2266
 2628PBP     Ch92816   5.838  10.129   9.280 -0.1594  0.2901  0.4608
 2629PBP     C192817   7.678   9.706   6.887  0.3681 -0.4777 -0.0005
 2629PBP     C192818   7.453   9.359   6.703 -0.1739  0.2372 -0.0617
 2629PBP     C192819   7.188   9.115   6.598  0.3462  0.1970 -0.0197
 2629PBP     C192820   7.486   8.681   6.393  0.4340  0.4827 -0.0854
 2629PBP     C192821   7.762   8.433   6.587  0.0285  0.2120 -0.2555
 2629PBP     C192822   7.648   8.446   7.012 -0.1280 -0.0267 -0.2050
 2629PBP     C192823   7.229   8.347   7.354 -0.2620  0.3201 -0.5366
 2629PBP     C192824   6.860   8.630   7.472  0.1924  0.1061  0.3387
 2629PBP     CP92825   6.693   8.682   7.781  0.0617  0.0016  0.0880
 2629PBP     CP92826   6.804   8.906   7.950  0.4086 -0.2812 -0.1669
 2629PBP     CP92827   6.749   9.208   7.943  0.3609 -0.3427 -0.2175
 2629PBP     Ch92828   6.921   9.359   7.847 -0.0397 -0.1670 -0.5375
 2630PBP     C192829   3.435  15.675  12.759  0.3137 -0.0252 -0.3806
 2630PBP     C192830   3.540  15.732  12.357  0.0439  0.0194  0.4997
 2630PBP     C192831   3.654  15.541  11.957 -0.2019  0.1361 -0.2233
 2630PBP     C192832   3.876  15.621  11.587  0.1075  0.2353  0.1554
 2630PBP     C192833   4.083  15.926  11.302  0.0295  0.3468  0.1298
 2630PBP     C192834   4.496  15.755  11.187 -0.1600  0.2399 -0.0423
 2630PBP     C192835   4.675  15.643  10.760 -0.1245 -0.0119  0.0657
 2630PBP     C192836   4.975  15.694  10.299  0.0684  0.1517  0.2841
 2630PBP     CP92837   5.145  15.582   9.930  0.3917 -0.3210  0.1037
 2630PBP     CP92838   5.236  15.816   9.703 -0.0732  0.2798  0.0932
 2630PBP     CP92839   5.258  15.773   9.375 -0.2665 -0.0073  0.5184
 2630PBP     Ch92840   5.068  15.872   9.206 -0.3450 -0.1584 -0.4186
 2631PBP     C192841   9.379   5.340   4.948  0.1013 -0.0940  0.1404
 2631PBP     C192842   9.154   5.624   5.152 -0.1730  0.1652  0.0106
 2631PBP     C192843   8.749   5.879   5.358  0.1672 -0.4978  0.2846
 2631PBP     C192844   8.713   6.200   5.661  0.1206 -0.5237  0.1570
 2631PBP     C192845   8.701   6.303   6.150 -0.0003  0.0988  0.2452
 2631PBP     C192846   8.627   6.294   6.615  0.3490  0.0167  0.3856
 2631PBP     C192847   8.449   6.264   6.996  0.2587 -0.1110 -0.2171
 2631PBP     C192848   8.547   6.101   7.352  0.1316  0.1785  0.1160
 2631PBP     CP92849   8.367   6.003   7.648 -0.0699  0.1465 -0.1044
 2631PBP     CP92850   8.263   6.165   7.894  0.2466 -0.3798  0.3172
 2631PBP     CP92851   8.061   6.395   7.972 -0.2297  0.2602 -0.3872
 2631PBP     Ch92852   8.144   6.661   7.974  0.3157 -0.0948 -0.1150
 2632PBP     C192853  11.786   8.767   7.964  0.1740 -0.2874  0.1142
 2632PBP     C192854  11.779   9.164   7.619  0.2638 -0.2092  0.2206
 2632PBP     C192855  11.484   9.190   7.354  0.1520 -0.3428 -0.3893
 2632PBP     C192856  11.168   9.367   7.552 -0.0045  0.0567 -0.1372
 2632PBP     C192857  10.714   9.150   7.604  0.1085  0.2367  0.2374
 2632PBP     C192858  10.457   9.074   7.881  0.2352 -0.0451  0.4838
 2632PBP     C192859  10.073   9.039   8.084  0.2976  0.0718 -0.1109
 2632PBP     C192860   9.629   8.768   7.923 -0.2038  0.2042 -0.1894
 2632PBP     CP92861   9.479   8.450   8.073  0.0608 -0.3359 -0.0824
 2632PBP     CP92862   9.345   8.182   8.191  0.1527 -0.3515 -0.4241
 2632PBP     CP92863   9.430   7.901   8.178 -0.1470  0.1853  0.2441
 2632PBP     Ch92864   9.439   7.634   8.115 -0.5128  0.2212  0.0870
 2633PBP     C192865  13.882  14.738  16.422  0.3063 -0.0380  0.3031
 2633PBP     C192866  13.901  14.597  16.796  0.2404  0.3882  0.1812
 2633PBP     C192867  13.621  14.481  17.025  0.2098  0.2586  0.2280
 2633PBP     C192868  13.256  14.139  16.911 -0.2095 -0.1433 -0.2047
 2633PBP     C192869  13.212  13.792  16.763  0.1911 -0.1811  0.0239
 2633PBP     C192870  12.951  13.507  16.421  0.2082 -0.0780 -0.1978
 2633PBP     C192871  12.864  13.388  15.994  0.0442  0.0675 -0.1910
 2633PBP     C192872  12.725  13.261  15.602  0.0658  0.2580  0.0094
 2633PBP     CP92873  12.490  13.092  15.255 -0.3216 -0.1320  0.0917
 2633PBP     CP92874  12.330  13.114  14.986  0.0177 -0.6932 -0.4780
 2633PBP     CP92875  12.215  13.322  14.786  0.3579 -0.0789 -0.4812
 2633PBP     Ch92876  12.408  13.409  14.609 -0.0488  0.2111  0.2763
 2634PBP     C192877   9.352  11.208   7.309  0.3803 -0.4648 -0.0862
 2634PBP     C192878   9.196  11.572   7.152 -0.1064  0.0771  0.1977
 2634PBP     C192879   8.819  11.690   7.072 -0.0563  0.0539 -0.1815
 2634PBP     C192880   8.530  11.785   6.867  0.0115  0.4928  0.1017
 2634PBP     C192881   8.171  11.464   6.993  0.3741 -0.2414 -0.0518
 2634PBP     C192882   7.971  11.190   7.344 -0.1855  0.1427 -0.0041
 2634PBP     C192883   7.849  11.049   7.578 -0.3292  0.1190  0.0887
 2634PBP     C192884   7.794  10.850   7.940 -0.1056 -0.0327 -0.1889
 2634PBP     CP92885   7.663  10.840   8.301 -0.0758 -0.1085  0.2343
 2634PBP     CP92886   7.742  10.683   8.541 -0.3416  0.0685 -0.2527
 2634PBP     CP92887   7.910  10.403   8.450  0.0630 -0.3348  0.1193
 2634PBP     Ch92888   7.970  10.219   8.552  0.0828  0.1787  0.3661
 2635PBP     C192889  16.597  11.883  14.060 -0.0624 -0.2017  0.4018
 2635PBP     C192890  16.430  11.759  13.672 -0.2077 -0.1504  0.2748
 2635PBP     C192891  16.282  11.220  13.522  0.1015 -0.0350  0.2658
 2635PBP     C192892  16.278  10.802  13.420  0.1354 -0.2449 -0.0711
 2635PBP     C192893  16.241  10.481  13.352 -0.2718  0.2152  0.1972
 2635PBP     C192894  16.201   9.993  13.352 -0.4900 -0.0444 -0.2962
 2635PBP     C192895  15.856   9.702  13.321  0.1624  0.3008  0.0566
 2635PBP     C192896  15.546   9.439  13.569  0.1835  0.1240 -0.0275
 2635PBP     CP92897  15.136   9.361  13.584  0.0320  0.3701  0.3738
 2635PBP     CP92898  14.797   9.373  13.459 -0.1293  0.0612 -0.1563
 2635PBP     CP92899  14.540   9.567  13.407  0.4197  0.0528 -0.2691
 2635PBP     Ch92900  14.453   9.784  13.441 -0.2700  0.5502 -0.2082
 2636PBP     C192901   8.800  17.300  13.805  0.2301 -0.3137  0.0970
 2636PBP     C192902   8.865  16.983  13.506 -0.1045 -0.1888  0.1117
 2636PBP     C192903   8.911  16.606  13.680 -0.2364 -0.0849 -0.1328
 2636PBP     C192904   8.972  16.273  13.978 -0.2888  0.0507  0.0658
 2636PBP     C192905   9.223  15.917  14.137  0.4842 -0.1328 -0.3258
 2636PBP     C192906   9.516  16.186  14.205  0.2701 -0.1084 -0.6183
 2636PBP     C192907   9.860  16.097  13.908 -0.0423  0.2017 -0.1889
 2636PBP     C192908  10.043  15.735  13.838  0.1205 -0.2234  0.4451
 2636PBP     CP92909   9.925  15.394  14.073  0.0119 -0.0633 -0.6511
 2636PBP     CP92910   9.776  15.238  14.344 -0.1217 -0.0887 -0.0138
 2636PBP     CP92911   9.787  14.976  14.489 -0.0185  0.2040  0.0612
 2636PBP     Ch92912   9.984  14.798  14.541  0.3016 -0.0096 -0.1594
 2637PBP     C192913   3.849  14.481  13.768  0.1552  0.0285  0.0581
 2637PBP     C192914   4.279  14.370  14.044  0.4377 -0.4188  0.4790
 2637PBP     C192915   4.314  13.998  13.925 -0.1347  0.1142 -0.2824
 2637PBP     C192916   4.626  13.661  13.887  0.0048  0.3601 -0.3071
 2637PBP     C192917   4.827  13.355  13.735  0.2154  0.2224 -0.2117
 2637PBP     C192918   5.353  13.172  13.628 -0.1171  0.5971 -0.1924
 2637PBP     C192919   5.665  12.928  13.396 -0.1174  0.0803  0.1584
 2637PBP     C192920   6.232  12.830  13.201 -0.1690  0.0485 -0.3049
 2637PBP     CP92921   6.623  12.991  13.124  0.2923  0.4898  0.1656
 2637PBP     CP92922   6.918  12.828  13.125  0.1278 -0.4920  0.0002
 2637PBP     CP92923   7.035  12.787  12.815 -0.2111 -0.3717 -0.4991
 2637PBP     Ch92924   6.991  12.495  12.777  0.1336 -0.1785 -0.0266
 2638PBP     C192925   6.934   9.549   6.532  0.0034  0.2439 -0.2315
 2638PBP     C192926   7.043   9.998   6.593 -0.0460 -0.3279 -0.0379
 2638PBP     C192927   7.318  10.239   6.266  0.2008  0.2665  0.0333
 2638PBP     C192928   7.466  10.537   6.286 -0.0520  0.2561 -0.3211
 2638PBP     C192929   7.804  10.703   6.576 -0.1452 -0.0159 -0.3512
 2638PBP     C192930   7.823  10.832   6.967 -0.1160 -0.2367 -0.0348
 2638PBP     C192931   7.696  10.664   7.375  0.1452 -0.0743 -0.1071
 2638PBP     C192932   7.589  10.351   7.621 -0.0215  0.1979  0.2734
 2638PBP     CP92933   7.711  10.243   8.017 -0.0655 -0.1949 -0.0679
 2638PBP     CP92934   7.664   9.986   8.179 -0.4525 -0.3567 -0.0051
 2638PBP     CP92935   7.713   9.772   8.405  0.0078  0.2579 -0.2359
 2638PBP     Ch92936   7.743   9.508   8.265 -0.3933  0.2778  0.2086
 2639PBP     C192937   8.397   9.539  13.388 -0.3255 -0.1330  0.0604
 2639PBP     C192938   8.714   9.192  13.380 -0.2490  0.0711 -0.1750
 2639PBP     C192939   9.091   9.009  13.461  0.3100  0.0249  0.0728
 2639PBP     C192940   9.405   8.852  13.731 -0.0906 -0.1867 -0.3428
 2639PBP     C192941   9.828   8.986  13.774 -0.4987  0.1353 -0.0109
 2639PBP     C192942  10.137   9.325  14.015 -0.0800  0.2922 -0.0170
 2639PBP     C192943  10.478   9.569  13.936 -0.1254  0.1028  0.1030
 2639PBP     C192944  10.870   9.470  14.075  0.0655 -0.1657  0.1068
 2639PBP     CP92945  11.228   9.743  14.120 -0.0963 -0.2115  0.3416
 2639PBP     CP92946  11.557   9.728  14.237  0.3099  0.0968 -0.2355
 2639PBP     CP92947  11.847   9.695  14.156 -0.5123  0.0029  0.1388
 2639PBP     Ch92948  11.908   9.720  13.895 -0.2015 -0.2681  0.4509
 2640PBP     C192949   8.683   9.707  15.240 -0.5894 -0.0830  0.3461
 2640PBP     C192950   9.021   9.455  15.423  0.1598 -0.1783 -0.1100
 2640PBP     C192951   9.422   9.685  15.297  0.0527  0.0141 -0.0672
 2640PBP     C192952   9.688   9.737  14.868  0.0098 -0.1426 -0.0802
 2640PBP     C192953  10.029   9.986  14.766 -0.0027  0.3026  0.0428
 2640PBP     C192954  10.395   9.955  14.611  0.3475 -0.0880  0.2161
 2640PBP     C192955  10.702   9.935  14.282 -0.0634 -0.2036 -0.1624
 2640PBP     C192956  10.861  10.192  14.004 -0.6956  0.0348  0.3270
 2640PBP     CP92957  11.150  10.248  13.763  0.1564  0.0824  0.0581
 2640PBP     CP92958  11.277  10.526  13.766  0.0022 -0.3731  0.0444
 2640PBP     CP92959  11.525  10.611  13.994  0.2170  0.1778 -0.2071
 2640PBP     Ch92960  11.785  10.593  13.990 -0.0623 -0.3900  0.1810
 2641PBP     C192961  11.005  11.101   8.259  0.0616 -0.0346 -0.1826
 2641PBP     C192962  10.628  11.174   8.002 -0.0932 -0.3420  0.1781
 2641PBP     C192963  10.225  11.121   7.795  0.2390  0.2508  0.2914
 2641PBP     C192964  10.091  11.045   7.427 -0.1364 -0.1026  0.0434
 2641PBP     C192965   9.779  10.785   7.365  0.0085  0.0816  0.1181
 2641PBP     C192966   9.654  10.391   7.569  0.0749  0.1701 -0.0868
 2641PBP     C192967   9.767  10.047   7.901  0.0412  0.2597 -0.2781
 2641PBP     C192968   9.902  10.019   8.411  0.4276 -0.2407 -0.2698
 2641PBP     CP92969  10.102  10.111   8.766  0.2402  0.3722 -0.4074
 2641PBP     CP92970  10.280  10.340   8.909  0.1960  0.1830  0.4887
 2641PBP     CP92971  10.353  10.446   9.163 -0.0008 -0.1115  0.0033
 2641PBP     Ch92972  10.388  10.595   9.399 -0.0727  0.2238  0.1962
 2642PBP     C192973   8.666   9.135  14.051  0.1224 -0.4100 -0.1444
 2642PBP     C192974   8.898   8.804  13.978 -0.2540  0.0710  0.0928
 2642PBP     C192975   9.224   8.497  14.076  0.1206 -0.0462  0.2115
 2642PBP     C192976   9.418   8.210  13.749  0.5259  0.1537 -0.0477
 2642PBP     C192977   9.248   8.000  13.389  0.2953  0.0002 -0.2129
 2642PBP     C192978   9.114   7.694  13.209  0.2171 -0.0984 -0.1419
 2642PBP     C192979   9.132   7.323  13.461  0.3409 -0.0335 -0.3116
 2642PBP     C192980   9.407   6.983  13.354 -0.2064  0.0700 -0.2329
 2642PBP     CP92981   9.536   6.700  13.112  0.0872 -0.4004  0.3281
 2642PBP     CP92982   9.554   6.441  12.888 -0.2555  0.0386 -0.2147
 2642PBP     CP92983   9.704   6.217  12.728  0.0320 -0.1022  0.2278
 2642PBP     Ch92984   9.876   6.001  12.731  0.0458  0.2536 -0.0714
 2643PBP     C192985  11.605  15.564  15.886 -0.1044 -0.0012 -0.0319
 2643PBP     C192986  11.691  15.272  16.112  0.1402 -0.5089  0.2288
 2643PBP     C192987  11.314  14.848  15.949  0.1225  0.0665  0.4835
 2643PBP     C192988  11.188  14.611  16.124  0.0618 -0.1872 -0.0490
 2643PBP     C192989  11.223  14.252  16.203 -0.2599  0.1997  0.1438
 2643PBP     C192990  11.268  13.922  16.004 -0.2432 -0.1596 -0.3279
 2643PBP     C192991  11.217  13.589  15.724 -0.5008  0.1709 -0.1902
 2643PBP     C192992  11.463  13.421  15.441 -0.2679 -0.0040  0.1258
 2643PBP     CP92993  11.526  13.586  15.078 -0.1919 -0.2595  0.3630
 2643PBP     CP92994  11.804  13.646  14.867  0.2941 -0.1543  0.3517
 2643PBP     CP92995  12.029  13.849  14.803 -0.2646  0.1665 -0.0668
 2643PBP     Ch92996  12.158  13.841  14.605 -0.3135  0.0811 -0.5163
 2644PBP     C192997  11.845   6.110  15.959  0.2629 -0.1778 -0.1027
 2644PBP     C192998  11.834   6.239  15.546  0.3021 -0.2804  0.1928
 2644PBP     C192999  12.129   6.280  15.193 -0.0953  0.0257 -0.2752
 2644PBP     C193000  12.525   6.465  15.270 -0.0908  0.2809  0.0813
 2644PBP     C193001  12.837   6.814  15.175  0.2361 -0.3304 -0.2970
 2644PBP     C193002  13.248   6.833  14.967  0.2328  0.3172  0.2439
 2644PBP     C193003  13.621   7.040  14.871  0.3502 -0.0926 -0.2125
 2644PBP     C193004  13.387   7.402  14.629 -0.0902 -0.0211 -0.1961
 2644PBP     CP93005  13.152   7.420  14.271  0.1962 -0.5946 -0.3453
 2644PBP     CP93006  12.955   7.502  14.018 -0.1022  0.1720  0.1553
 2644PBP     CP93007  12.688   7.635  13.987 -0.0348 -0.0972  0.6175
 2644PBP     Ch93008  12.555   7.898  13.915 -0.2394  0.0692  0.2200
 2645PBP     C193009  12.564   3.773   7.736  0.0176  0.1618  0.1826
 2645PBP     C193010  12.289   3.941   8.069  0.1020 -0.0544  0.1862
 2645PBP     C193011  12.014   4.202   8.162  0.0417  0.1779 -0.0434
 2645PBP     C193012  11.682   4.562   8.197 -0.2247  0.1814 -0.0513
 2645PBP     C193013  11.789   4.987   8.170 -0.3651  0.2066  0.1210
 2645PBP     C193014  11.390   5.340   8.551  0.0503 -0.3152  0.3280
 2645PBP     C193015  11.000   5.359   8.732 -0.0638 -0.0428 -0.1463
 2645PBP     C193016  10.644   5.763   8.632 -0.0595  0.1367  0.0438
 2645PBP     CP93017  10.543   6.120   8.687 -0.4786 -0.2143 -0.2032
 2645PBP     CP93018  10.612   6.431   8.755  0.0415 -0.1183  0.3188
 2645PBP     CP93019  10.425   6.695   8.719 -0.6698 -0.2133  0.1791
 2645PBP     Ch93020  10.383   6.955   8.817 -0.0789 -0.1802 -0.1838
 2646PBP     C193021  13.129  14.454   7.870 -0.2730 -0.3719 -0.3340
 2646PBP     C193022  13.372  14.317   8.196  0.3096  0.1008 -0.2897
 2646PBP     C193023  13.067  13.978   8.356  0.1968 -0.1053  0.2072
 2646PBP     C193024  13.100  13.691   8.714 -0.2477 -0.1804  0.0052
 2646PBP     C193025  13.340  13.539   9.056 -0.3274 -0.3369 -0.3222
 2646PBP     C193026  13.336  13.242   9.447 -0.2438 -0.4328 -0.0847
 2646PBP     C193027  13.300  13.011   9.774 -0.3965 -0.2102 -0.3789
 2646PBP     C193028  13.037  12.716   9.696 -0.1830 -0.0527 -0.2179
 2646PBP     CP93029  12.667  12.725   9.906 -0.5467  0.3541  0.1189
 2646PBP     CP93030  12.571  12.579  10.161 -0.0089  0.1124 -0.3416
 2646PBP     CP93031  12.363  12.396  10.163  0.4257 -0.4643  0.6298
 2646PBP     Ch93032  12.098  12.346  10.158 -0.3488  0.0562 -0.1818
 2647PBP     C193033  11.830   6.986  16.218  0.0663 -0.0760  0.2073
 2647PBP     C193034  11.778   7.313  16.482  0.1319  0.2045 -0.2717
 2647PBP     C193035  11.601   7.620  16.224 -0.2103  0.1320  0.0801
 2647PBP     C193036  11.569   7.625  15.879  0.1109  0.3793  0.0891
 2647PBP     C193037  11.792   7.928  15.646 -0.0611 -0.0003  0.1358
 2647PBP     C193038  11.834   8.316  15.629  0.3042  0.4409  0.2182
 2647PBP     C193039  11.795   8.670  15.251 -0.0392 -0.2445  0.3635
 2647PBP     C193040  11.898   8.981  14.905  0.0720 -0.3857  0.0050
 2647PBP     CP93041  12.282   9.014  14.777  0.3755 -0.0884 -0.4274
 2647PBP     CP93042  12.578   9.089  14.597  0.0222  0.3051 -0.3344
 2647PBP     CP93043  12.746   9.356  14.603  0.0194  0.0237  0.9743
 2647PBP     Ch93044  12.749   9.581  14.672 -0.3474  0.1086  0.3811
 2648PBP     C193045   4.287   6.808  10.789  0.1869  0.3533 -0.3900
 2648PBP     C193046   4.227   6.864  10.385 -0.0560 -0.0230  0.2940
 2648PBP     C193047   4.440   7.163  10.164  0.0297 -0.3917 -0.0557
 2648PBP     C193048   4.535   7.034   9.763 -0.1605  0.1113 -0.0668
 2648PBP     C193049   4.766   6.652   9.564 -0.1685 -0.1580 -0.2263
 2648PBP     C193050   5.189   6.576   9.412 -0.1566 -0.2783  0.0841
 2648PBP     C193051   5.562   6.590   9.570  0.4423 -0.1178 -0.1761
 2648PBP     C193052   5.691   6.434   9.980  0.1554 -0.3440 -0.3390
 2648PBP     CP93053   5.970   6.596  10.285  0.0557  0.3592 -0.1604
 2648PBP     CP93054   6.206   6.850  10.295 -0.2287 -0.2235  0.2887
 2648PBP     CP93055   6.494   6.874  10.443 -0.0369  0.0936  0.1788
 2648PBP     Ch93056   6.756   6.812  10.468  0.0624 -0.3791 -0.0369
 2649PBP     C193057   8.060   7.820  13.087  0.0568  0.0905  0.3688
 2649PBP     C193058   8.289   7.784  13.485  0.2649 -0.0618 -0.0288
 2649PBP     C193059   8.594   7.641  13.793  0.2013  0.1127 -0.1936
 2649PBP     C193060   8.889   7.608  13.706  0.0219  0.0576  0.0160
 2649PBP     C193061   9.367   7.634  13.721  0.2813 -0.1940  0.1270
 2649PBP     C193062   9.741   7.724  13.945 -0.5081 -0.2051 -0.1741
 2649PBP     C193063   9.903   8.107  13.732  0.3976  0.1272 -0.1529
 2649PBP     C193064  10.022   8.525  13.633 -0.7076  0.0628  0.0618
 2649PBP     CP93065  10.233   8.708  13.306 -0.0370 -0.1785 -0.1824
 2649PBP     CP93066  10.272   9.087  13.222 -0.2312  0.1186 -0.2870
 2649PBP     CP93067  10.040   9.277  13.314 -0.3072 -0.3636 -0.0106
 2649PBP     Ch93068   9.976   9.529  13.181 -0.0639  0.4066  0.1772
 2650PBP     C193069   9.634   5.783   7.746  0.4865  0.1147  0.0606
 2650PBP     C193070   9.585   6.189   7.859  0.2312 -0.0958  0.1382
 2650PBP     C193071   9.281   6.439   7.878  0.0345 -0.0536 -0.3272
 2650PBP     C193072   8.994   6.878   7.797 -0.1713  0.3910 -0.2640
 2650PBP     C193073   8.542   7.014   7.742 -0.5277  0.1324  0.0354
 2650PBP     C193074   8.144   7.035   7.375  0.2762  0.0082 -0.3372
 2650PBP     C193075   7.694   7.154   7.316  0.2812 -0.3409  0.1578
 2650PBP     C193076   7.341   6.962   7.377 -0.3429 -0.2863 -0.3677
 2650PBP     CP93077   7.010   7.137   7.301  0.0953  0.1919 -0.2240
 2650PBP     CP93078   6.740   7.216   7.446 -0.1698  0.5698 -0.0134
 2650PBP     CP93079   6.507   7.440   7.510  0.1094  0.0256  0.0160
 2650PBP     Ch93080   6.588   7.435   7.800 -0.3039 -0.0045 -0.1177
 2651PBP     C193081  16.024  13.622  10.799  0.0175  0.0318 -0.0155
 2651PBP     C193082  15.958  13.890  10.540 -0.0723 -0.3401  0.1319
 2651PBP     C193083  15.845  14.016  10.081  0.0929 -0.3832 -0.1311
 2651PBP     C193084  15.851  13.795   9.703  0.0714 -0.0076 -0.0966
 2651PBP     C193085  15.445  13.850   9.594  0.3186  0.0238  0.0361
 2651PBP     C193086  15.153  13.879   9.885  0.0142  0.1652 -0.0060
 2651PBP     C193087  14.875  13.995  10.146  0.0716  0.1352 -0.1639
 2651PBP     C193088  14.712  13.680  10.455  0.1371  0.0334  0.3313
 2651PBP     CP93089  14.593  13.405  10.679 -0.0380  0.2669 -0.1513
 2651PBP     CP93090  14.777  13.269  10.930 -0.0876  0.1003 -0.2203
 2651PBP     CP93091  14.732  12.998  11.070  0.1696 -0.3063 -0.1111
 2651PBP     Ch93092  14.630  12.768  11.023  0.4257 -0.0645  0.0509
 2652PBP     C193093   5.808  14.239  15.717  0.0649  0.0410 -0.3317
 2652PBP     C193094   6.110  14.165  15.380 -0.0724 -0.0784  0.0889
 2652PBP     C193095   6.255  14.217  15.001 -0.3947 -0.0517 -0.0639
 2652PBP     C193096   6.071  14.388  14.588  0.0727 -0.1709  0.2057
 2652PBP     C193097   5.893  14.338  14.038 -0.3240 -0.0663  0.4483
 2652PBP     C193098   5.824  14.105  13.637 -0.0697 -0.0184  0.2425
 2652PBP     C193099   5.792  13.615  13.528  0.1438  0.0419  0.1469
 2652PBP     C193100   5.836  13.324  13.149 -0.1173  0.1880  0.1665
 2652PBP     CP93101   6.096  13.169  12.911  0.4904 -0.3970 -0.3518
 2652PBP     CP93102   6.329  13.145  12.682 -0.1645  0.0665  0.1605
 2652PBP     CP93103   6.577  12.990  12.728  0.1303 -0.2545  0.0418
 2652PBP     Ch93104   6.615  12.756  12.666  0.0668 -0.1763  0.3714
 2653PBP     C193105  16.024  14.865  10.341  0.1953 -0.4466 -0.1274
 2653PBP     C193106  16.365  15.058  10.013 -0.0091 -0.1077 -0.3708
 2653PBP     C193107  16.678  15.147  10.152  0.0877 -0.1539 -0.6300
 2653PBP     C193108  16.505  14.871  10.513 -0.1268  0.2068 -0.1843
 2653PBP     C193109  16.382  14.821  10.929 -0.0549 -0.1047  0.2095
 2653PBP     C193110  16.046  14.734  11.201 -0.1390 -0.1531  0.1424
 2653PBP     C193111  15.623  14.596  11.343  0.2639 -0.1781 -0.0986
 2653PBP     C193112  15.248  14.683  11.458  0.5899  0.1434 -0.3224
 2653PBP     CP93113  14.907  14.900  11.419  0.2036  0.4584  0.0366
 2653PBP     CP93114  14.605  14.925  11.307 -0.1103 -0.3112  0.1334
 2653PBP     CP93115  14.384  15.138  11.237 -0.1819  0.1964  0.0151
 2653PBP     Ch93116  14.183  15.275  11.281 -0.3700 -0.1610 -0.0510
 2654PBP     C193117  17.090   8.240  10.365 -0.2989 -0.4295  0.4781
 2654PBP     C193118  16.925   8.513  10.541  0.2339  0.4944 -0.2885
 2654PBP     C193119  16.774   8.942  10.608 -0.2276 -0.1312  0.1387
 2654PBP     C193120  16.527   9.182  10.935 -0.0353 -0.3529 -0.2106
 2654PBP     C193121  16.535   9.356  11.317 -0.2289  0.0070 -0.4025
 2654PBP     C193122  16.379   9.645  11.689 -0.1491 -0.0997  0.1584
 2654PBP     C193123  16.146   9.634  12.020  0.0785  0.2589 -0.0853
 2654PBP     C193124  15.866   9.853  12.301  0.0955 -0.0207  0.1388
 2654PBP     CP93125  15.489   9.769  12.380 -0.0568 -0.5267  0.3613
 2654PBP     CP93126  15.164   9.658  12.206  0.0344  0.1012 -0.2818
 2654PBP     CP93127  14.921   9.790  12.135  0.0408  0.1367 -0.0088
 2654PBP     Ch93128  14.732   9.961  12.117 -0.3028  0.4700 -0.2517
 2655PBP     C193129   2.758  14.719   7.633  0.0263  0.2417 -0.0443
 2655PBP     C193130   2.933  14.442   7.756 -0.3392  0.4218  0.2305
 2655PBP     C193131   3.307  14.312   7.958 -0.1302  0.0513 -0.1541
 2655PBP     C193132   3.723  14.234   8.234  0.1121  0.0320 -0.1278
 2655PBP     C193133   3.964  14.416   8.614  0.0431  0.2126  0.1126
 2655PBP     C193134   4.087  14.335   9.091  0.0454 -0.0938 -0.0461
 2655PBP     C193135   4.418  14.319   9.515  0.0185 -0.0276 -0.3047
 2655PBP     C193136   4.395  14.562   9.941  0.1692  0.1758 -0.2002
 2655PBP     CP93137   4.735  14.571  10.185 -0.1882  0.1536 -0.0050
 2655PBP     CP93138   4.842  14.279  10.172 -0.0764 -0.2952  0.1578
 2655PBP     CP93139   4.816  13.962  10.360  0.2939  0.0756  0.4412
 2655PBP     Ch93140   4.774  13.737  10.483 -0.0820 -0.0028  0.0880
 2656PBP     C193141   6.777   4.528  12.634 -0.1860  0.0861 -0.2677
 2656PBP     C193142   6.841   4.957  12.652 -0.4638 -0.0680 -0.2381
 2656PBP     C193143   7.056   5.085  12.932 -0.0013 -0.1911 -0.4311
 2656PBP     C193144   7.013   5.277  13.272 -0.1629  0.1920  0.0509
 2656PBP     C193145   6.595   5.420  13.319 -0.2290 -0.1640 -0.0606
 2656PBP     C193146   6.231   5.326  13.278 -0.0009  0.1123 -0.0387
 2656PBP     C193147   6.122   5.496  12.971 -0.4488 -0.2481 -0.0079
 2656PBP     C193148   6.167   5.514  12.489  0.1441  0.0660  0.1319
 2656PBP     CP93149   6.332   5.838  12.199  0.1984  0.4406 -0.3774
 2656PBP     CP93150   6.626   5.882  12.323 -0.0022 -0.1387  0.2656
 2656PBP     CP93151   6.860   6.112  12.331  0.1369 -0.3019  0.2260
 2656PBP     Ch93152   7.108   6.135  12.394  0.3578 -0.6719  0.2842
 2657PBP     C193153  13.114   5.348  14.445 -0.1941 -0.0830  0.2486
 2657PBP     C193154  13.048   5.086  14.083  0.2133  0.2156  0.3267
 2657PBP     C193155  12.931   4.811  13.705  0.1184  0.4979  0.2431
 2657PBP     C193156  12.999   4.525  13.376  0.3919 -0.3014 -0.3260
 2657PBP     C193157  13.331   4.522  13.202  0.3683 -0.2254  0.2623
 2657PBP     C193158  13.601   4.573  12.833  0.0605  0.0483  0.0615
 2657PBP     C193159  13.777   4.857  12.686 -0.0281  0.0018 -0.2493
 2657PBP     C193160  14.075   5.091  12.524  0.0004 -0.0272  0.0691
 2657PBP     CP93161  14.238   5.449  12.685  0.0051  0.5391 -0.2797
 2657PBP     CP93162  14.171   5.718  12.724 -0.0839 -0.2144  0.3763
 2657PBP     CP93163  14.279   5.998  12.787  0.7558 -0.8661  0.0660
 2657PBP     Ch93164  14.507   6.174  12.900 -0.1000  0.1131  0.0866
 2658PBP     C193165  17.507  12.818  11.201  0.2015  0.1321  0.1689
 2658PBP     C193166  17.223  13.035  11.423 -0.1726 -0.0822  0.0878
 2658PBP     C193167  17.016  13.306  11.659 -0.1135  0.0449  0.3638
 2658PBP     C193168  17.122  13.504  12.018 -0.1102  0.0541  0.0242
 2658PBP     C193169  16.890  13.626  12.286 -0.0407  0.2552  0.0305
 2658PBP     C193170  16.560  13.728  12.552  0.1883 -0.0007  0.2773
 2658PBP     C193171  16.024  13.662  12.620 -0.3711 -0.2586 -0.0742
 2658PBP     C193172  15.545  13.674  12.728 -0.0255 -0.4004 -0.2011
 2658PBP     CP93173  15.141  13.706  12.808 -0.4151  0.0158  0.0497
 2658PBP     CP93174  14.813  13.734  12.718 -0.3539  0.0583  0.1822
 2658PBP     CP93175  14.527  13.704  12.574 -0.2024  0.0847  0.2410
 2658PBP     Ch93176  14.279  13.664  12.498 -0.0377 -0.2815 -0.2476
 2659PBP     C193177  15.462   9.541   9.327 -0.0057 -0.3533 -0.2239
 2659PBP     C193178  15.015   9.678   9.271  0.0557 -0.1351  0.0751
 2659PBP     C193179  14.841   9.748   8.992 -0.0693 -0.4270  0.0418
 2659PBP     C193180  14.606  10.007   9.164 -0.1812  0.2524 -0.1188
 2659PBP     C193181  14.337  10.062   9.510 -0.3857  0.0070  0.0165
 2659PBP     C193182  13.926  10.299   9.510  0.0254 -0.1951  0.3069
 2659PBP     C193183  13.766  10.679   9.673 -0.0836  0.2192 -0.1410
 2659PBP     C193184  13.971  10.974  10.099  0.0839 -0.2721  0.1920
 2659PBP     CP93185  13.700  11.191  10.228  0.1002 -0.1725 -0.0289
 2659PBP     CP93186  13.418  11.239  10.440 -0.5349 -0.0415 -0.2557
 2659PBP     CP93187  13.125  11.263  10.358  0.1164 -0.4829  0.0212
 2659PBP     Ch93188  13.118  11.575  10.357  0.4549 -0.4465  0.1537
 2660PBP     C193189   9.484  11.617   7.531  0.1543  0.4561  0.3215
 2660PBP     C193190   9.691  11.765   7.918 -0.1228  0.1237 -0.1518
 2660PBP     C193191   9.820  11.604   8.236 -0.0460  0.2917 -0.2203
 2660PBP     C193192   9.877  11.267   8.419  0.0739  0.1587 -0.0547
 2660PBP     C193193  10.044  11.145   8.801  0.1642  0.3645  0.2189
 2660PBP     C193194  10.129  10.826   8.896 -0.1205  0.2626 -0.2343
 2660PBP     C193195   9.940  10.581   8.679 -0.0310 -0.1222 -0.1170
 2660PBP     C193196   9.515  10.373   8.676 -0.1039  0.1441  0.0569
 2660PBP     CP93197   9.267  10.369   8.997  0.2476 -0.3814  0.1616
 2660PBP     CP93198   8.911  10.352   8.918 -0.4397  0.2472  0.0182
 2660PBP     CP93199   8.751  10.113   8.792  0.3097 -0.1338 -0.1104
 2660PBP     Ch93200   8.674   9.818   8.762 -0.4406 -0.0839 -0.2570
 2661PBP     C193201  16.688  10.720  11.649  0.2839  0.1370  0.3090
 2661PBP     C193202  16.949  10.532  11.326  0.0383 -0.0975 -0.0021
 2661PBP     C193203  17.041  10.394  10.867 -0.1734  0.0279  0.0956
 2661PBP     C193204  17.044  10.471  10.499  0.0480  0.1340  0.0521
 2661PBP     C193205  16.742  10.300  10.217  0.1052  0.0199 -0.0081
 2661PBP     C193206  16.435  10.006  10.340 -0.1826  0.1295  0.2046
 2661PBP     C193207  16.421   9.632  10.526 -0.0746 -0.2563 -0.3034
 2661PBP     C193208  16.121   9.444  10.901  0.0975  0.1718  0.2102
 2661PBP     CP93209  15.799   9.127  10.911  0.3457  0.1872 -0.2386
 2661PBP     CP93210  15.478   9.044  10.816  0.0623  0.8501 -0.3712
 2661PBP     CP93211  15.357   8.876  10.652 -0.0274  0.2480 -0.1780
 2661PBP     Ch93212  15.279   8.662  10.680  0.1624 -0.0597 -0.0894
 2662PBP     C193213  10.346  11.554  15.221 -0.1433 -0.0866 -0.1733
 2662PBP     C193214  10.764  11.717  15.310 -0.0507  0.0517 -0.0051
 2662PBP     C193215  11.097  11.832  15.119 -0.3015  0.5591 -0.1293
 2662PBP     C193216  11.397  11.929  15.124  0.3641  0.1061  0.1808
 2662PBP     C193217  11.719  11.730  15.257  0.0013 -0.1642  0.2881
 2662PBP     C193218  12.171  11.775  15.483 -0.0452 -0.3786 -0.2402
 2662PBP     C193219  12.142  12.043  15.082  0.1749  0.3467 -0.1640
 2662PBP     C193220  11.920  12.288  14.875  0.0038 -0.2019 -0.1267
 2662PBP     CP93221  11.691  12.571  14.715 -0.1179 -0.0333  0.0153
 2662PBP     CP93222  11.611  12.824  14.542  0.2432 -0.1836 -0.3777
 2662PBP     CP93223  11.841  13.045  14.433  0.1600  0.0518  0.2487
 2662PBP     Ch93224  11.909  13.352  14.459 -0.0380 -0.0505  0.3641
 2663PBP     C193225  14.176   3.385  12.848 -0.1970  0.0116  0.0082
 2663PBP     C193226  14.360   3.672  12.538 -0.1255  0.0817 -0.0641
 2663PBP     C193227  14.469   4.131  12.512 -0.3880  0.0126  0.0033
 2663PBP     C193228  14.188   4.567  12.527 -0.2844  0.0912  0.3842
 2663PBP     C193229  13.920   4.711  12.245  0.0138 -0.3878  0.1544
 2663PBP     C193230  13.607   4.895  12.070  0.0036  0.0563  0.2797
 2663PBP     C193231  13.254   4.888  11.745  0.0994 -0.1153  0.2871
 2663PBP     C193232  12.777   4.792  11.800  0.1934 -0.3065 -0.0668
 2663PBP     CP93233  12.556   5.072  12.008  0.0745 -0.0643 -0.3935
 2663PBP     CP93234  12.316   5.346  12.034  0.0564 -0.2270  0.2396
 2663PBP     CP93235  12.313   5.680  12.043 -0.1290  0.6705 -0.1227
 2663PBP     Ch93236  12.448   5.902  12.125 -0.2466  0.1767 -0.4153
 2664PBP     C193237  11.342  14.978   7.362  0.0189 -0.1883 -0.1521
 2664PBP     C193238  11.313  14.754   7.731 -0.1385  0.0041  0.0598
 2664PBP     C193239  11.552  14.364   7.888 -0.0331  0.2630  0.1747
 2664PBP     C193240  11.870  14.039   8.159  0.0893  0.0776 -0.1366
 2664PBP     C193241  11.717  14.141   8.472  0.1728  0.2596 -0.0784
 2664PBP     C193242  11.851  14.137   8.996  0.1993 -0.1291  0.0744
 2664PBP     C193243  11.972  13.956   9.371 -0.0850 -0.2576 -0.0222
 2664PBP     C193244  11.540  13.795   9.596  0.2714 -0.2411  0.0570
 2664PBP     CP93245  11.564  13.756   9.988  0.4443  0.0193 -0.1670
 2664PBP     CP93246  11.656  13.733  10.258 -0.2676  0.0663 -0.2818
 2664PBP     CP93247  11.963  13.836  10.326 -0.2858  0.0422  0.0028
 2664PBP     Ch93248  12.206  13.697  10.410  0.0775  0.2481 -0.3273
 2665PBP     C193249   3.882   7.792  13.457  0.5007 -0.3655  0.1369
 2665PBP     C193250   4.187   7.576  13.381  0.0174  0.1365  0.2161
 2665PBP     C193251   4.288   7.445  13.035 -0.2952  0.0014  0.1068
 2665PBP     C193252   4.783   7.215  12.900  0.0724 -0.4134 -0.0977
 2665PBP     C193253   5.183   7.089  12.990 -0.0614  0.2129  0.3050
 2665PBP     C193254   5.680   6.925  12.953 -0.0796  0.2983 -0.1096
 2665PBP     C193255   6.110   6.635  12.903  0.1223 -0.2176 -0.1284
 2665PBP     C193256   6.552   6.646  12.846  0.1172 -0.2521  0.0423
 2665PBP     CP93257   6.783   6.822  12.516  0.5253  0.3164  0.6283
 2665PBP     CP93258   6.845   6.573  12.344 -0.0461 -0.5736 -0.4357
 2665PBP     CP93259   7.195   6.549  12.229 -0.1288  0.3792  0.2119
 2665PBP     Ch93260   7.344   6.610  12.018 -0.1386 -0.1290  0.0799
 2666PBP     C193261   3.174   7.578   7.747 -0.3804  0.1731  0.0532
 2666PBP     C193262   3.522   7.880   7.715  0.0786 -0.2735 -0.2765
 2666PBP     C193263   3.868   8.094   7.728 -0.0626 -0.0675  0.0508
 2666PBP     C193264   4.276   7.823   7.812  0.3349 -0.5903  0.3163
 2666PBP     C193265   4.605   7.428   7.876 -0.2114 -0.0492 -0.1014
 2666PBP     C193266   5.038   7.494   7.988 -0.1473  0.1455 -0.2648
 2666PBP     C193267   5.441   7.206   7.967 -0.3335 -0.2212 -0.0767
 2666PBP     C193268   5.806   6.960   7.969 -0.1462  0.1448  0.0998
 2666PBP     CP93269   6.207   7.027   7.874  0.2102  0.3870  0.1858
 2666PBP     CP93270   6.455   6.898   7.717 -0.0294 -0.2851  0.3035
 2666PBP     CP93271   6.493   6.649   7.588  0.0013  0.2962 -0.0192
 2666PBP     Ch93272   6.693   6.473   7.664  0.2530  0.2413  0.3276
 2667PBP     C193273   7.473  12.808   7.211  0.0410  0.1018  0.5165
 2667PBP     C193274   8.068  12.820   7.215 -0.0297  0.1504  0.0078
 2667PBP     C193275   8.466  12.626   7.124 -0.0180 -0.1172 -0.0087
 2667PBP     C193276   8.863  12.685   7.122 -0.2921 -0.2778 -0.0107
 2667PBP     C193277   9.083  12.771   7.441  0.2616  0.0269 -0.0079
 2667PBP     C193278   9.361  12.520   7.629  0.0959  0.3874  0.2978
 2667PBP     C193279   9.272  12.502   8.136  0.4446  0.2953  0.2160
 2667PBP     C193280   9.035  12.165   8.392 -0.4149 -0.0598 -0.0611
 2667PBP     CP93281   8.771  12.253   8.727  0.0701 -0.0629  0.2337
 2667PBP     CP93282   8.577  12.131   8.945  0.2931  0.2825  0.2908
 2667PBP     CP93283   8.234  12.121   8.923  0.4664  0.4912 -0.1715
 2667PBP     Ch93284   8.092  12.092   8.715 -0.1240 -0.0790 -0.1557
 2668PBP     C193285  10.071  17.322  16.186  0.0200  0.1491  0.0998
 2668PBP     C193286  10.528  17.008  16.149 -0.0801 -0.0779  0.1315
 2668PBP     C193287  10.878  16.856  15.882 -0.4980 -0.0072 -0.1230
 2668PBP     C193288  11.378  16.580  15.914 -0.3155 -0.0295  0.4206
 2668PBP     C193289  11.716  16.377  15.778  0.5264 -0.0572 -0.1659
 2668PBP     C193290  12.084  16.064  15.653 -0.0665  0.2712 -0.1058
 2668PBP     C193291  12.519  15.970  15.452  0.0390 -0.0259  0.1134
 2668PBP     C193292  12.783  15.624  15.269  0.1027  0.0211 -0.2705
 2668PBP     CP93293  13.105  15.367  15.221  0.1552 -0.0613  0.3102
 2668PBP     CP93294  13.284  15.098  15.243  0.3720  0.1052 -0.0079
 2668PBP     CP93295  13.262  14.804  15.228  0.0583 -0.2439 -0.0205
 2668PBP     Ch93296  13.014  14.702  15.098 -0.2828 -0.3168 -0.0734
 2669PBP     C193297  10.233   2.831  10.015 -0.0124  0.1868 -0.0301
 2669PBP     C193298   9.989   3.171   9.914  0.0815  0.4348  0.0420
 2669PBP     C193299   9.948   3.438   9.601 -0.1585 -0.1766 -0.1399
 2669PBP     C193300  10.091   3.460   9.267 -0.1045 -0.3564 -0.1871
 2669PBP     C193301   9.874   3.565   8.969 -0.4658  0.0629  0.0840
 2669PBP     C193302   9.688   3.915   8.797 -0.0511 -0.2083  0.2601
 2669PBP     C193303   9.401   4.235   8.548 -0.4296 -0.1043 -0.2112
 2669PBP     C193304   8.960   4.468   8.584  0.0132  0.3243 -0.0992
 2669PBP     CP93305   8.656   4.647   8.329  0.0751 -0.0080  0.1086
 2669PBP     CP93306   8.660   4.983   8.378  0.0008 -0.0921  0.2177
 2669PBP     CP93307   8.720   5.187   8.184  0.2476  0.4023  0.5786
 2669PBP     Ch93308   8.709   5.394   8.091 -0.2440  0.4159 -0.2093
 2670PBP     C193309  12.662   8.597   8.207 -0.0946 -0.1571  0.0006
 2670PBP     C193310  12.993   8.597   8.398  0.0346  0.2887  0.0018
 2670PBP     C193311  13.318   8.801   8.647 -0.0590  0.2330 -0.1438
 2670PBP     C193312  13.431   8.868   8.992  0.1139  0.0014 -0.1855
 2670PBP     C193313  13.975   8.753   9.076  0.1147  0.0584  0.7018
 2670PBP     C193314  14.159   9.145   9.387  0.1562 -0.2785  0.1959
 2670PBP     C193315  13.963   9.542   9.586 -0.1254  0.0489 -0.2167
 2670PBP     C193316  13.845   9.778   9.855 -0.2114  0.1467 -0.1995
 2670PBP     CP93317  13.782  10.163   9.965 -0.4638  0.3104 -0.0654
 2670PBP     CP93318  13.651  10.256  10.271 -0.2141 -0.4305  0.0475
 2670PBP     CP93319  13.608  10.599  10.399  0.2356 -0.0104 -0.2286
 2670PBP     Ch93320  13.713  10.808  10.527  0.3576 -0.0124 -0.1833
 2671PBP     C193321  16.176  12.656   9.778  0.1102 -0.0934 -0.0792
 2671PBP     C193322  15.775  12.741   9.742  0.1893  0.2065 -0.0320
 2671PBP     C193323  15.389  12.792   9.595 -0.1473 -0.1057  0.0860
 2671PBP     C193324  14.941  12.453   9.610 -0.1801 -0.1322  0.2490
 2671PBP     C193325  14.789  11.937   9.679  0.0542  0.0810 -0.0213
 2671PBP     C193326  14.560  11.761   9.961  0.0595  0.1129 -0.6349
 2671PBP     C193327  14.562  11.379  10.224  0.2071  0.1013 -0.0424
 2671PBP     C193328  14.809  10.973  10.328 -0.2176 -0.4999 -0.0054
 2671PBP     CP93329  14.712  10.630  10.498  0.4799 -0.1882  0.2993
 2671PBP     CP93330  14.535  10.377  10.685 -0.3975  0.4024 -0.2628
 2671PBP     CP93331  14.422  10.115  10.582  0.5465 -0.4941 -0.0156
 2671PBP     Ch93332  14.305   9.897  10.612  0.2965  0.0706 -0.2014
 2672PBP     C193333  13.175  12.480  16.055  0.1913  0.1020 -0.2587
 2672PBP     C193334  12.900  12.731  16.065  0.0884  0.0738  0.1035
 2672PBP     C193335  12.627  12.964  16.219  0.0922 -0.0095  0.1878
 2672PBP     C193336  12.440  13.363  16.247  0.0418 -0.1974  0.1120
 2672PBP     C193337  12.310  13.771  16.007  0.1479 -0.0299  0.6189
 2672PBP     C193338  12.219  13.936  15.511 -0.1764 -0.0435 -0.1293
 2672PBP     C193339  11.801  13.886  15.363 -0.1894  0.1373  0.1822
 2672PBP     C193340  11.413  14.061  15.234  0.0682 -0.0236 -0.0632
 2672PBP     CP93341  11.328  14.034  14.834 -0.1774 -0.0407 -0.2918
 2672PBP     CP93342  11.195  13.796  14.723  0.8233 -0.3773 -0.1854
 2672PBP     CP93343  11.102  13.625  14.466  0.0961 -0.1362 -0.3748
 2672PBP     Ch93344  11.147  13.643  14.199  0.0240  0.0936  0.1424
 2673PBP     C193345  11.486   9.706   6.589  0.0017  0.3592 -0.0397
 2673PBP     C193346  11.743   9.659   6.990  0.3740  0.0616 -0.0887
 2673PBP     C193347  12.077   9.540   7.265 -0.0308  0.0589 -0.0150
 2673PBP     C193348  12.244   9.091   7.422  0.5584  0.1169 -0.0693
 2673PBP     C193349  12.438   8.907   7.780  0.1033 -0.1270 -0.0999
 2673PBP     C193350  12.225   8.754   8.232  0.1834 -0.2897 -0.1977
 2673PBP     C193351  12.099   9.039   8.563 -0.4644 -0.2719  0.1375
 2673PBP     C193352  12.118   9.433   8.720  0.2894 -0.1747 -0.1053
 2673PBP     CP93353  11.860   9.725   8.860 -0.2959  0.0663 -0.1579
 2673PBP     CP93354  11.626   9.696   9.066 -0.1488 -0.2625  0.0666
 2673PBP     CP93355  11.563   9.714   9.372 -0.6528 -0.3177  0.0433
 2673PBP     Ch93356  11.423   9.681   9.629  0.2630 -0.0617  0.1076
 2674PBP     C193357   4.553   8.647  12.855  0.3814 -0.1858 -0.1120
 2674PBP     C193358   4.951   8.879  12.799 -0.0478  0.5146 -0.2604
 2674PBP     C193359   5.172   9.171  12.686 -0.0938  0.1038 -0.0919
 2674PBP     C193360   5.408   9.499  12.944  0.0190 -0.3207 -0.0240
 2674PBP     C193361   5.778   9.731  13.046 -0.5247  0.2599 -0.1542
 2674PBP     C193362   6.261   9.558  12.948  0.0208 -0.3240  0.2658
 2674PBP     C193363   6.526   9.758  13.060  0.3056  0.1246  0.3745
 2674PBP     C193364   6.954   9.784  12.854  0.1658 -0.1514  0.2707
 2674PBP     CP93365   7.079   9.579  12.526  0.1322  0.4079 -0.2792
 2674PBP     CP93366   7.079   9.310  12.306  0.4464 -0.4405  0.4974
 2674PBP     CP93367   7.110   8.966  12.341  0.4035  0.0591 -0.0722
 2674PBP     Ch93368   7.344   8.835  12.341 -0.1937 -0.2482 -0.0434
 2675PBP     C193369   5.452  15.810  10.522  0.2440 -0.1141  0.0446
 2675PBP     C193370   5.323  15.993  10.141  0.0860  0.3519 -0.0848
 2675PBP     C193371   4.978  16.115   9.981 -0.2292 -0.4322 -0.0070
 2675PBP     C193372   4.576  15.770   9.969 -0.3155  0.2299 -0.2815
 2675PBP     C193373   4.479  15.362   9.838  0.1833 -0.0081 -0.1496
 2675PBP     C193374   4.378  15.263   9.375  0.2493  0.5533  0.1185
 2675PBP     C193375   4.590  15.150   9.007 -0.1223  0.1880 -0.1286
 2675PBP     C193376   4.892  14.873   8.792  0.1481  0.2261  0.1349
 2675PBP     CP93377   5.305  14.898   8.690  0.4094 -0.2959 -0.1206
 2675PBP     CP93378   5.369  15.128   8.523 -0.1734  0.7622  0.2126
 2675PBP     CP93379   5.534  15.396   8.430  0.1338 -0.0297 -0.1704
 2675PBP     Ch93380   5.663  15.604   8.610 -0.0296 -0.1418 -0.1330
 2676PBP     C193381   5.594   7.311   5.837  0.0156  0.2102 -0.3763
 2676PBP     C193382   5.639   6.981   6.182  0.0014  0.3822 -0.4376
 2676PBP     C193383   5.942   6.903   6.429  0.1253 -0.2656  0.0629
 2676PBP     C193384   6.315   7.036   6.570  0.0193  0.1363 -0.5087
 2676PBP     C193385   6.657   7.002   6.597  0.2611 -0.3571 -0.2180
 2676PBP     C193386   6.987   6.929   6.773 -0.0507  0.1769  0.4115
 2676PBP     C193387   7.378   6.903   6.826 -0.1671 -0.3431  0.3884
 2676PBP     C193388   7.588   6.676   6.975 -0.4819 -0.1832 -0.3897
 2676PBP     CP93389   7.704   6.623   7.390  0.4522 -0.1247  0.2853
 2676PBP     CP93390   7.744   6.631   7.719  0.0308 -0.1766 -0.0626
 2676PBP     CP93391   7.664   6.883   7.907  0.0666  0.0761 -0.4225
 2676PBP     Ch93392   7.576   7.132   7.903 -0.1152 -0.3483  0.1257
 2677PBP     C193393  11.709   9.736  15.393 -0.0792  0.2064  0.0177
 2677PBP     C193394  11.507  10.112  15.470  0.0936 -0.2087  0.1556
 2677PBP     C193395  11.385  10.405  15.745  0.3232 -0.2601  0.0176
 2677PBP     C193396  11.223  10.856  15.879 -0.1312 -0.1907  0.2408
 2677PBP     C193397  10.894  11.105  15.828  0.0917  0.2978  0.0221
 2677PBP     C193398  10.744  11.215  15.481 -0.1114  0.1742 -0.0381
 2677PBP     C193399  10.918  11.179  15.022 -0.2777 -0.3162  0.3275
 2677PBP     C193400  10.988  10.884  14.652  0.2124 -0.4350  0.2428
 2677PBP     CP93401  10.814  10.801  14.288  0.0526 -0.4135 -0.5374
 2677PBP     CP93402  10.673  11.072  14.124  0.1739 -0.2010  0.6262
 2677PBP     CP93403  10.643  11.125  13.762  0.1168  0.0255  0.1259
 2677PBP     Ch93404  10.664  11.400  13.764 -0.1209  0.1066 -0.2371
 2678PBP     C193405  13.405   8.899  16.790 -0.0707  0.1160  0.1718
 2678PBP     C193406  13.142   8.606  16.674  0.1468 -0.1522 -0.1871
 2678PBP     C193407  12.964   8.251  16.457 -0.1252  0.3295 -0.1424
 2678PBP     C193408  12.764   8.197  16.082 -0.1841  0.0226  0.0575
 2678PBP     C193409  12.435   8.374  15.800 -0.1627  0.3217 -0.2694
 2678PBP     C193410  12.308   8.459  15.390 -0.2399  0.1648  0.1492
 2678PBP     C193411  12.267   8.544  14.992 -0.1419  0.3190 -0.1641
 2678PBP     C193412  12.434   8.544  14.651  0.3380 -0.1273 -0.3760
 2678PBP     CP93413  12.343   8.797  14.301  0.2641  0.3028 -0.0365
 2678PBP     CP93414  12.499   8.870  14.072  0.0923 -0.2862 -0.0078
 2678PBP     CP93415  12.689   9.111  14.160  0.2658  0.0137  0.2375
 2678PBP     Ch93416  12.775   9.376  14.192  0.1756  0.1821  0.0249
 2679PBP     C193417   9.461  10.112   6.503  0.3792 -0.2607  0.0056
 2679PBP     C193418   9.490   9.798   6.790 -0.4374  0.4946 -0.1714
 2679PBP     C193419   9.228   9.574   7.113  0.2875  0.3244 -0.2656
 2679PBP     C193420   8.741   9.665   7.115  0.4558  0.0333  0.3031
 2679PBP     C193421   8.496   9.938   7.358  0.2358 -0.1012  0.1855
 2679PBP     C193422   8.108  10.099   7.516 -0.0334  0.0662  0.0301
 2679PBP     C193423   8.080   9.881   7.922  0.1341 -0.4584  0.1263
 2679PBP     C193424   8.263   9.491   8.096  0.0735  0.0079  0.3331
 2679PBP     CP93425   8.298   9.210   8.425  0.5212  0.3143  0.2987
 2679PBP     CP93426   8.538   9.224   8.581 -0.0693  0.0412  0.1933
 2679PBP     CP93427   8.793   9.018   8.667  0.2738 -0.1496  0.3095
 2679PBP     Ch93428   8.897   8.957   8.445  0.1003 -0.4312 -0.4441
 2680PBP     C193429  10.820  11.901  17.402  0.1022  0.0528 -0.3503
 2680PBP     C193430  11.087  11.800  16.967  0.1220  0.0795 -0.2443
 2680PBP     C193431  11.453  11.460  16.632  0.2046 -0.1222 -0.0709
 2680PBP     C193432  11.536  11.281  16.328  0.1627 -0.2591 -0.2234
 2680PBP     C193433  11.786  10.961  16.235 -0.3891  0.0341 -0.0360
 2680PBP     C193434  11.726  10.726  15.895 -0.2180  0.0933  0.0110
 2680PBP     C193435  11.964  10.558  15.560  0.2672  0.3964  0.0708
 2680PBP     C193436  12.338  10.681  15.277  0.1231  0.0548  0.3099
 2680PBP     CP93437  12.647  10.597  15.114 -0.1324  0.2484 -0.2447
 2680PBP     CP93438  12.772  10.692  14.812  0.1436  0.2714 -0.0128
 2680PBP     CP93439  12.674  10.640  14.539  0.0180 -0.0690  0.1137
 2680PBP     Ch93440  12.798  10.608  14.321 -0.1999 -0.0089  0.3762
 2681PBP     C193441  10.323   4.959   7.182 -0.0073 -0.4564  0.1017
 2681PBP     C193442  10.528   5.140   7.552 -0.0475  0.1315 -0.2151
 2681PBP     C193443  10.593   5.602   7.705  0.1320  0.2092 -0.4277
 2681PBP     C193444  10.566   5.961   7.677  0.0690  0.2772  0.1551
 2681PBP     C193445  10.321   6.310   7.426  0.1199  0.0526  0.0398
 2681PBP     C193446  10.173   6.681   7.569  0.0719 -0.2405 -0.0935
 2681PBP     C193447   9.799   6.962   7.728 -0.1482 -0.3581 -0.6099
 2681PBP     C193448   9.509   6.853   8.076  0.2565  0.0657  0.2203
 2681PBP     CP93449   9.535   6.983   8.481  0.0886 -0.0733  0.1434
 2681PBP     CP93450   9.525   7.277   8.621  0.1618  0.0700  0.1120
 2681PBP     CP93451   9.542   7.573   8.557  0.1250 -0.2813  0.2129
 2681PBP     Ch93452   9.308   7.669   8.619  0.0310  0.0298  0.2477
 2682PBP     C193453  13.368  17.174  11.364 -0.0983  0.1361  0.1135
 2682PBP     C193454  13.751  17.411  11.457 -0.0003  0.0995 -0.0193
 2682PBP     C193455  13.958  17.460  11.837 -0.2667  0.6961  0.5223
 2682PBP     C193456  13.892  17.566  12.282  0.1257  0.2758 -0.2619
 2682PBP     C193457  13.413  17.367  12.496  0.4330 -0.0931 -0.2694
 2682PBP     C193458  13.181  17.090  12.370  0.0271 -0.2959  0.1597
 2682PBP     C193459  12.881  16.805  12.446 -0.2280 -0.1606 -0.0775
 2682PBP     C193460  12.979  16.393  12.386  0.2604 -0.4039  0.0764
 2682PBP     CP93461  12.836  16.022  12.325 -0.0655 -0.1558  0.5528
 2682PBP     CP93462  12.820  15.736  12.341  0.0542  0.5260  0.2458
 2682PBP     CP93463  13.067  15.473  12.303 -0.1147  0.3019  0.1097
 2682PBP     Ch93464  13.106  15.211  12.286 -0.1100  0.2789  0.0369
 2683PBP     C193465   8.505   9.708   6.175  0.1019  0.1992  0.1288
 2683PBP     C193466   8.095   9.571   6.082 -0.3142  0.3706 -0.0573
 2683PBP     C193467   7.868   9.405   6.458  0.2932  0.0666 -0.1037
 2683PBP     C193468   7.955   9.220   6.932 -0.0935  0.0081  0.3259
 2683PBP     C193469   8.163   9.325   7.331  0.0680  0.0735  0.0792
 2683PBP     C193470   8.608   9.418   7.487 -0.0390  0.1953 -0.0837
 2683PBP     C193471   8.576   9.732   7.827  0.3005  0.1270 -0.1938
 2683PBP     C193472   8.698   9.749   8.315 -0.2267  0.2176 -0.5239
 2683PBP     CP93473   8.988   9.649   8.518 -0.3631 -0.3872  0.4232
 2683PBP     CP93474   8.989   9.396   8.752 -0.1758 -0.0337 -0.0481
 2683PBP     CP93475   9.192   9.122   8.780 -0.0373 -0.0810 -0.6002
 2683PBP     Ch93476   9.333   8.947   8.600  0.1402 -0.1707 -0.2506
 2684PBP     C193477  11.192  15.958  13.217  0.1919 -0.2931  0.2336
 2684PBP     C193478  11.264  16.143  13.682  0.3291  0.5679 -0.5160
 2684PBP     C193479  11.568  16.036  13.915  0.1820  0.0790  0.1728
 2684PBP     C193480  11.822  16.313  13.894 -0.1610 -0.1418  0.2097
 2684PBP     C193481  12.247  16.538  14.215  0.3538 -0.0208 -0.1078
 2684PBP     C193482  12.432  16.367  14.606 -0.0673  0.2897 -0.1061
 2684PBP     C193483  12.860  16.335  14.555 -0.1129 -0.1058  0.2893
 2684PBP     C193484  13.180  16.191  14.154 -0.1610 -0.0406  0.4503
 2684PBP     CP93485  13.281  15.839  13.910  0.3860 -0.3312 -0.0412
 2684PBP     CP93486  13.486  15.562  13.951 -0.4394  0.4449  0.5780
 2684PBP     CP93487  13.425  15.262  13.865  0.2185 -0.2640  0.0043
 2684PBP     Ch93488  13.318  15.047  13.832  0.1465 -0.1505 -0.4130
 2685PBP     C193489   4.219  14.567  10.633  0.0509  0.2790 -0.1795
 2685PBP     C193490   4.032  14.392  10.287 -0.0880  0.3123 -0.1271
 2685PBP     C193491   3.739  14.446   9.995 -0.4269 -0.1188  0.4220
 2685PBP     C193492   4.072  14.169   9.869 -0.2020  0.1858  0.1738
 2685PBP     C193493   4.359  14.095  10.080 -0.5104  0.0386  0.1998
 2685PBP     C193494   4.660  13.926   9.795  0.0961  0.0246 -0.2327
 2685PBP     C193495   5.005  13.746   9.651  0.1047  0.0323 -0.0387
 2685PBP     C193496   5.365  13.439   9.682  0.0236 -0.0727  0.3455
 2685PBP     CP93497   5.764  13.389   9.743 -0.0238  0.3439 -0.3385
 2685PBP     CP93498   6.067  13.317   9.828 -0.0728  0.3421 -0.1571
 2685PBP     CP93499   6.361  13.445   9.903  0.1621  0.2503 -0.0878
 2685PBP     Ch93500   6.612  13.434   9.996  0.0115 -0.7007  0.3100
 2686PBP     C193501  15.412  18.009  10.247 -0.1821 -0.3780  0.0086
 2686PBP     C193502  15.071  17.870  10.639 -0.1237  0.0229  0.2379
 2686PBP     C193503  14.852  17.637  10.481  0.2615  0.1145 -0.2164
 2686PBP     C193504  14.480  17.432  10.236  0.0843  0.0205  0.2229
 2686PBP     C193505  14.165  17.325  10.238  0.0014 -0.2961 -0.5462
 2686PBP     C193506  13.779  17.116  10.259  0.3003 -0.1629  0.0580
 2686PBP     C193507  13.655  16.908  10.634 -0.3059 -0.0916  0.1603
 2686PBP     C193508  13.343  16.816  11.056  0.3683  0.1083 -0.1099
 2686PBP     CP93509  13.058  16.546  10.967 -0.0228 -0.3228 -0.2784
 2686PBP     CP93510  12.735  16.459  10.859  0.2382 -0.2654  0.1591
 2686PBP     CP93511  12.431  16.622  10.811 -0.0546  0.5326 -0.1941
 2686PBP     Ch93512  12.217  16.561  10.713  0.3209  0.0991  0.0933
 2687PBP     C193513   8.777  10.677   5.551  0.2170 -0.0202 -0.0777
 2687PBP     C193514   8.422  10.420   5.563  0.0317  0.3505 -0.3290
 2687PBP     C193515   7.982  10.412   5.662 -0.0840  0.2403  0.1404
 2687PBP     C193516   7.730  10.246   5.994 -0.2811 -0.1012 -0.0399
 2687PBP     C193517   7.860   9.979   6.396  0.1279 -0.0130 -0.0753
 2687PBP     C193518   7.616  10.197   6.706  0.0125 -0.0621  0.0234
 2687PBP     C193519   7.623  10.162   7.136  0.1470 -0.2354 -0.2653
 2687PBP     C193520   7.514   9.870   7.421 -0.1455 -0.0886 -0.2373
 2687PBP     CP93521   7.348   9.762   7.772  0.0782 -0.0646 -0.3324
 2687PBP     CP93522   7.359   9.446   7.854  0.0881  0.1580 -0.2579
 2687PBP     CP93523   7.255   9.191   8.096 -0.1747  0.2772 -0.1626
 2687PBP     Ch93524   7.325   8.931   8.121  0.1405 -0.0940 -0.0597
 2688PBP     C193525   3.827  12.650   7.057 -0.0538  0.1638  0.0623
 2688PBP     C193526   4.192  12.668   7.241  0.1025  0.2980 -0.2264
 2688PBP     C193527   4.484  12.782   7.095 -0.0930  0.5324  0.5366
 2688PBP     C193528   4.715  12.722   6.667 -0.2389 -0.0369 -0.1269
 2688PBP     C193529   5.086  12.817   6.637  0.2299 -0.0525 -0.1450
 2688PBP     C193530   5.346  13.203   6.928  0.0834  0.2078 -0.3024
 2688PBP     C193531   5.699  13.334   7.264 -0.2146 -0.0963  0.0963
 2688PBP     C193532   6.029  13.164   7.561  0.4956  0.2159 -0.1244
 2688PBP     CP93533   5.979  13.240   7.949 -0.1920 -0.3539  0.3676
 2688PBP     CP93534   5.769  13.331   8.197  0.2121  0.1035 -0.4809
 2688PBP     CP93535   5.606  13.212   8.437  0.1657  0.1010 -0.3362
 2688PBP     Ch93536   5.402  13.307   8.622 -0.2830 -0.0374  0.5479
 2689PBP     C193537   9.829  10.992  15.643 -0.1920 -0.0416  0.1385
 2689PBP     C193538   9.575  10.733  15.473  0.3327 -0.2678  0.1809
 2689PBP     C193539   9.291  10.591  15.167  0.0182  0.3877  0.0558
 2689PBP     C193540   9.205  10.213  14.858 -0.0096  0.2468 -0.0894
 2689PBP     C193541   9.303   9.840  14.502 -0.1482 -0.0232  0.1518
 2689PBP     C193542   9.040   9.419  14.244  0.0923 -0.0697  0.0307
 2689PBP     C193543   9.128   9.254  13.870 -0.2292 -0.3156  0.0596
 2689PBP     C193544   9.535   9.297  13.588 -0.1666  0.4193  0.0467
 2689PBP     CP93545   9.583   9.087  13.287  0.6117 -0.2027 -0.5141
 2689PBP     CP93546   9.558   8.900  13.097  0.3596  0.4687  0.3739
 2689PBP     CP93547   9.245   8.842  12.979 -0.4587 -0.2644  0.1423
 2689PBP     Ch93548   9.084   8.627  12.872  0.4936  0.3193  0.2340
 2690PBP     C193549   7.267   3.736  11.221  0.2881  0.0215 -0.5594
 2690PBP     C193550   7.039   4.099  11.119  0.1805 -0.3546  0.0186
 2690PBP     C193551   6.687   4.012  11.045  0.1493  0.2406 -0.0204
 2690PBP     C193552   6.359   3.646  11.209  0.0434  0.2118  0.3844
 2690PBP     C193553   6.402   3.140  11.089 -0.4136  0.1389 -0.1062
 2690PBP     C193554   6.310   2.920  10.596 -0.3166  0.3368 -0.0567
 2690PBP     C193555   6.300   3.202  10.248 -0.1847 -0.0932 -0.0681
 2690PBP     C193556   6.165   3.629  10.267  0.1336  0.1032  0.0607
 2690PBP     CP93557   6.114   3.881   9.920 -0.1618  0.0558  0.0441
 2690PBP     CP93558   6.193   4.190   9.700  0.2118 -0.4647 -0.2495
 2690PBP     CP93559   6.245   4.372   9.481  0.2623  0.1430  0.3518
 2690PBP     Ch93560   6.321   4.398   9.230 -0.5020 -0.2598 -0.3665
 2691PBP     C193561   3.851   7.597   8.081  0.2160  0.1836  0.2057
 2691PBP     C193562   4.321   7.593   8.238  0.2234 -0.2274  0.0608
 2691PBP     C193563   4.616   7.357   8.335  0.1286  0.0849 -0.0485
 2691PBP     C193564   5.012   7.057   8.253 -0.0726  0.0266  0.1100
 2691PBP     C193565   5.435   6.840   8.278  0.1315 -0.2050  0.0327
 2691PBP     C193566   5.870   6.788   8.399  0.1885  0.3098  0.2850
 2691PBP     C193567   5.944   6.464   8.715 -0.2704  0.1702  0.0779
 2691PBP     C193568   6.247   6.171   8.870  0.1641 -0.0457  0.1520
 2691PBP     CP93569   6.703   6.174   8.949 -0.5831 -0.1270  0.0514
 2691PBP     CP93570   6.981   6.263   9.080  0.0312 -0.1673 -0.3360
 2691PBP     CP93571   7.159   6.546   9.143 -0.0668  0.1341 -0.4932
 2691PBP     Ch93572   7.308   6.728   9.201 -0.4022 -0.0846 -0.1661
 2692PBP     C193573  14.747   7.605  18.238  0.2299 -0.4489  0.4064
 2692PBP     C193574  14.432   7.706  17.929  0.1628  0.0541 -0.0355
 2692PBP     C193575  14.333   7.720  17.551 -0.2599 -0.2416  0.1017
 2692PBP     C193576  14.333   7.623  16.992  0.3534 -0.1715  0.1055
 2692PBP     C193577  14.468   7.760  16.553 -0.0327  0.6063 -0.2915
 2692PBP     C193578  14.418   8.028  16.206  0.3265  0.0441 -0.1798
 2692PBP     C193579  14.396   8.292  15.826 -0.2238  0.0914 -0.0893
 2692PBP     C193580  14.395   8.204  15.439  0.2759 -0.1023  0.0814
 2692PBP     CP93581  14.406   8.533  15.183 -0.5741  0.3135  0.6012
 2692PBP     CP93582  14.631   8.659  15.086  0.7785  0.1884  0.0284
 2692PBP     CP93583  14.738   8.591  14.804  0.3242  0.0007  0.0949
 2692PBP     Ch93584  14.714   8.313  14.760 -0.0004  0.1213  0.2709
 2693PBP     C193585  12.680  10.917   8.253 -0.1045  0.1498 -0.1107
 2693PBP     C193586  12.480  11.291   8.460  0.2368  0.2923  0.3669
 2693PBP     C193587  12.471  11.700   8.569 -0.1322  0.0870 -0.0591
 2693PBP     C193588  12.901  11.658   8.642 -0.0418  0.2539  0.2797
 2693PBP     C193589  13.154  11.894   8.934  0.0693  0.1281  0.0749
 2693PBP     C193590  13.315  11.930   9.358  0.0177  0.0169  0.3138
 2693PBP     C193591  13.203  11.535   9.530 -0.0725  0.0067  0.0576
 2693PBP     C193592  13.111  11.169   9.870 -0.2974 -0.1334  0.1125
 2693PBP     CP93593  12.762  11.128  10.051 -0.3372 -0.0821 -0.1463
 2693PBP     CP93594  12.423  11.024  10.093  0.0271 -0.2259  0.2748
 2693PBP     CP93595  12.177  11.078   9.927 -0.1477 -0.0774 -0.2938
 2693PBP     Ch93596  11.951  11.067   9.972 -0.3079  0.3995  0.2083
 2694PBP     C193597  16.916   4.438  10.915 -0.4721  0.1742  0.6088
 2694PBP     C193598  16.601   4.579  11.042  0.1166  0.0021 -0.0149
 2694PBP     C193599  16.413   4.779  11.339  0.1209  0.0619 -0.2944
 2694PBP     C193600  16.212   4.929  11.692 -0.0714 -0.0683 -0.1063
 2694PBP     C193601  15.822   5.096  11.704 -0.0260  0.1585  0.0699
 2694PBP     C193602  15.468   5.220  11.404 -0.0005 -0.3321 -0.0590
 2694PBP     C193603  15.682   5.392  11.083 -0.0251  0.2072  0.3116
 2694PBP     C193604  15.911   5.594  10.827  0.2173 -0.0637 -0.1318
 2694PBP     CP93605  15.972   5.949  10.587 -0.4691  0.0534  0.4394
 2694PBP     CP93606  16.203   6.189  10.572  0.3283  0.1508 -0.2317
 2694PBP     CP93607  16.310   6.482  10.748  0.0115  0.0727 -0.3491
 2694PBP     Ch93608  16.556   6.616  10.648 -0.2248  0.0824 -0.1780
 2695PBP     C193609   3.460  12.169   9.286  0.0773  0.2619 -0.2541
 2695PBP     C193610   3.672  12.284   9.506 -0.0357 -0.2128  0.0105
 2695PBP     C193611   3.873  12.526   9.791 -0.1793 -0.1919 -0.0945
 2695PBP     C193612   3.900  12.938   9.633  0.1414 -0.0863 -0.0828
 2695PBP     C193613   4.103  13.170   9.517  0.0998  0.2328  0.0641
 2695PBP     C193614   4.474  12.948   9.432 -0.0431  0.6786  0.3503
 2695PBP     C193615   4.596  12.522   9.253  0.1469 -0.1313 -0.0796
 2695PBP     C193616   4.771  12.129   9.428  0.4249  0.0431  0.3840
 2695PBP     CP93617   5.140  11.913   9.431  0.4974  0.0364  0.1534
 2695PBP     CP93618   5.426  11.885   9.535 -0.1255  0.0654  0.1626
 2695PBP     CP93619   5.758  11.839   9.500  0.3247 -0.2166  0.0072
 2695PBP     Ch93620   5.950  11.594   9.522 -0.4655  0.3682 -0.8962
 2696PBP     C193621  17.768  13.294  11.144 -0.3560  0.1814 -0.1253
 2696PBP     C193622  17.801  13.534  11.531 -0.4265 -0.0043  0.1406
 2696PBP     C193623  17.555  13.848  11.607  0.0602 -0.0050 -0.0028
 2696PBP     C193624  17.088  13.837  11.542  0.1612  0.0095  0.2634
 2696PBP     C193625  16.739  13.978  11.942 -0.3003 -0.1553  0.3416
 2696PBP     C193626  16.479  14.048  12.075 -0.2319  0.1358  0.1322
 2696PBP     C193627  15.939  14.177  12.019  0.3730  0.5388  0.0818
 2696PBP     C193628  15.761  14.098  11.630 -0.4551  0.0335 -0.0884
 2696PBP     CP93629  15.393  14.127  11.481  0.4764 -0.5357 -0.1010
 2696PBP     CP93630  15.096  14.094  11.445  0.2780 -0.4347  0.0898
 2696PBP     CP93631  14.898  14.051  11.192  0.0428  0.0881  0.5538
 2696PBP     Ch93632  14.640  14.050  11.276 -0.1446 -0.2372  0.2637
 2697PBP     C193633  11.408  16.935  14.075  0.1961 -0.2281 -0.0528
 2697PBP     C193634  11.628  16.843  13.733 -0.2467 -0.2514  0.0718
 2697PBP     C193635  11.900  17.035  13.488  0.1192 -0.0547  0.5009
 2697PBP     C193636  12.200  17.014  13.236 -0.0828  0.2296 -0.0225
 2697PBP     C193637  12.443  17.297  13.061 -0.1771 -0.0997  0.0106
 2697PBP     C193638  12.643  17.457  12.739 -0.2198  0.1258 -0.1821
 2697PBP     C193639  12.686  17.262  12.389 -0.0135  0.0616  0.0915
 2697PBP     C193640  12.691  16.933  12.068 -0.0164  0.1870 -0.3229
 2697PBP     CP93641  12.653  16.550  11.975 -0.7257  0.1300 -0.0266
 2697PBP     CP93642  12.454  16.359  12.139  0.7444 -0.1635 -0.4768
 2697PBP     CP93643  12.354  16.365  12.418  0.0132  0.4211 -0.2048
 2697PBP     Ch93644  12.240  16.409  12.633  0.0307 -0.5344 -0.1192
 2698PBP     C193645   6.858  10.612  14.479 -0.0047 -0.2175  0.0068
 2698PBP     C193646   7.295  10.417  14.368  0.2138  0.0565  0.0333
 2698PBP     C193647   7.706  10.778  14.330  0.4432 -0.0972  0.0174
 2698PBP     C193648   8.132  10.641  14.538 -0.1254 -0.3439 -0.0028
 2698PBP     C193649   8.576  10.694  14.399  0.0410 -0.0434 -0.0320
 2698PBP     C193650   8.789  10.374  14.033  0.4400 -0.0224 -0.3002
 2698PBP     C193651   8.742  10.141  13.580 -0.2659 -0.0447 -0.3777
 2698PBP     C193652   8.368  10.227  13.190 -0.0296  0.0671 -0.3572
 2698PBP     CP93653   8.269  10.290  12.803  0.5307 -0.0222  0.4340
 2698PBP     CP93654   7.945  10.234  12.706  0.1061 -0.0884 -0.3721
 2698PBP     CP93655   7.628  10.347  12.664 -0.3724  0.4156 -0.1176
 2698PBP     Ch93656   7.640  10.599  12.797 -0.2269 -0.1394 -0.4728
 2699PBP     C193657  10.361   3.627   8.791 -0.0323  0.1789  0.1964
 2699PBP     C193658  10.193   3.975   8.533 -0.0993 -0.3659 -0.4738
 2699PBP     C193659   9.902   4.347   8.637 -0.0405 -0.0093  0.1776
 2699PBP     C193660   9.621   4.314   9.062  0.3160  0.2926 -0.2711
 2699PBP     C193661   9.146   4.254   9.075 -0.0581  0.3045 -0.1356
 2699PBP     C193662   8.676   4.439   9.139 -0.1639  0.0815 -0.1775
 2699PBP     C193663   8.284   4.477   9.118  0.1511  0.0950 -0.1766
 2699PBP     C193664   8.027   4.895   9.063  0.2490 -0.1036  0.1764
 2699PBP     CP93665   7.822   5.156   9.149 -0.1356  0.0665 -0.1258
 2699PBP     CP93666   7.681   5.415   9.183  0.1650 -0.0381 -0.0633
 2699PBP     CP93667   7.783   5.743   9.244 -0.1091 -0.2180 -0.2342
 2699PBP     Ch93668   7.874   5.984   9.336  0.1519  0.1293  0.0882
 2700PBP     C193669  15.595  12.802  16.393 -0.1401  0.1597  0.0708
 2700PBP     C193670  15.532  12.546  16.766 -0.4365  0.3915  0.4436
 2700PBP     C193671  15.163  12.400  16.891 -0.2615 -0.2056 -0.2418
 2700PBP     C193672  14.804  12.353  16.639  0.3441  0.1636  0.0687
 2700PBP     C193673  14.610  11.860  16.630  0.1164  0.1368 -0.2635
 2700PBP     C193674  14.325  11.553  16.436 -0.2035 -0.4938 -0.2282
 2700PBP     C193675  14.298  11.470  15.909 -0.1690 -0.2871 -0.6094
 2700PBP     C193676  14.372  11.362  15.480 -0.1725 -0.0536  0.2077
 2700PBP     CP93677  14.266  11.433  15.078  0.5673  0.0118 -0.1221
 2700PBP     CP93678  14.037  11.672  14.978  0.5563  0.0298 -0.2321
 2700PBP     CP93679  13.863  11.844  15.136 -0.1233 -0.0209 -0.2111
 2700PBP     Ch93680  13.822  12.076  15.051 -0.4606  0.2978  0.5335
 2701PBP     C193681   6.864  14.129   6.114  0.2689 -0.1588 -0.3094
 2701PBP     C193682   7.300  13.906   6.328  0.1222 -0.1435  0.1104
 2701PBP     C193683   7.437  13.615   6.127 -0.2682 -0.1849  0.1349
 2701PBP     C193684   7.141  13.397   6.505 -0.5941 -0.0043 -0.1717
 2701PBP     C193685   7.172  13.373   6.919  0.1127 -0.1488 -0.1077
 2701PBP     C193686   7.262  13.336   7.416 -0.3334 -0.5712 -0.0342
 2701PBP     C193687   7.114  13.552   7.740 -0.4602  0.0287 -0.0511
 2701PBP     C193688   7.102  13.509   8.117  0.2085 -0.5107  0.0525
 2701PBP     CP93689   7.187  13.330   8.480  0.1593 -0.0655  0.1529
 2701PBP     CP93690   7.329  13.346   8.796 -0.2102 -0.4230 -0.3352
 2701PBP     CP93691   7.659  13.407   8.895  0.4989 -0.0604 -0.0680
 2701PBP     Ch93692   7.922  13.546   8.950 -0.0479  0.2420 -0.0365
 2702PBP     C193693   3.579   8.748  10.737  0.1429  0.1452  0.2795
 2702PBP     C193694   3.672   8.391  11.025 -0.0542  0.4148  0.1969
 2702PBP     C193695   3.866   7.902  10.927  0.4203 -0.3346 -0.1686
 2702PBP     C193696   4.178   7.694  10.861 -0.1513  0.0227 -0.0170
 2702PBP     C193697   4.569   7.900  11.052  0.1241  0.1814  0.1490
 2702PBP     C193698   4.733   8.082  11.446  0.3183  0.3002 -0.1210
 2702PBP     C193699   5.102   8.156  11.575 -0.0029 -0.0602 -0.0465
 2702PBP     C193700   5.490   8.057  11.779  0.0162 -0.4256 -0.0024
 2702PBP     CP93701   5.832   8.245  11.863 -0.5759  0.1971  0.1583
 2702PBP     CP93702   6.152   8.184  11.893  0.0498  0.2489 -0.4362
 2702PBP     CP93703   6.385   8.323  12.099 -0.1847  0.0957  0.0223
 2702PBP     Ch93704   6.658   8.346  12.061 -0.0784 -0.0098  0.0810
 2703PBP     C193705   9.765  15.326   8.745  0.7749  0.1227  0.1941
 2703PBP     C193706  10.098  15.411   8.882 -0.1431  0.2220 -0.0586
 2703PBP     C193707  10.241  15.087   9.152 -0.1699 -0.0733  0.0175
 2703PBP     C193708  10.569  14.787   9.468 -0.2521  0.2445  0.2348
 2703PBP     C193709  11.082  14.555   9.568 -0.0617  0.0105  0.2607
 2703PBP     C193710  11.442  14.855   9.608  0.0391  0.1801  0.2264
 2703PBP     C193711  11.846  14.916   9.823  0.0733  0.2967 -0.1005
 2703PBP     C193712  12.139  14.716  10.058  0.0404 -0.2015  0.0201
 2703PBP     CP93713  12.239  14.723  10.468  0.1202  0.7656  0.0459
 2703PBP     CP93714  12.487  14.704  10.640 -0.3771  0.1045 -0.1599
 2703PBP     CP93715  12.803  14.726  10.708 -0.1059  0.1497 -0.4698
 2703PBP     Ch93716  13.039  14.765  10.808  0.1515 -0.9131  0.5744
 2704PBP     C193717  11.608   4.097   7.959  0.0606  0.1017  0.3095
 2704PBP     C193718  11.270   4.126   8.303  0.0123  0.1493  0.0825
 2704PBP     C193719  11.136   4.179   8.705  0.0316 -0.4532 -0.1946
 2704PBP     C193720  11.371   4.469   8.913  0.4571  0.0780 -0.0926
 2704PBP     C193721  11.434   4.962   8.920 -0.0314  0.0183 -0.3802
 2704PBP     C193722  11.521   5.392   8.977  0.3432  0.1021 -0.3261
 2704PBP     C193723  11.812   5.530   8.988  0.1552  0.1979 -0.1886
 2704PBP     C193724  11.861   6.021   8.924 -0.0199  0.0571  0.0565
 2704PBP     CP93725  12.010   6.323   9.112 -0.5087 -0.3430 -0.2761
 2704PBP     CP93726  12.034   6.618   9.224 -0.3748  0.5222  0.2465
 2704PBP     CP93727  12.197   6.827   9.337  0.1239  0.0353  0.2254
 2704PBP     Ch93728  12.249   7.054   9.391 -0.0409  0.0290  0.0335
 2705PBP     C193729  17.802   7.348  11.698 -0.1646 -0.2691  0.1355
 2705PBP     C193730  17.726   7.798  11.792 -0.1102  0.0146  0.2907
 2705PBP     C193731  17.403   8.035  11.928 -0.4811 -0.1778  0.1847
 2705PBP     C193732  17.073   8.081  11.735 -0.0263  0.1824 -0.0620
 2705PBP     C193733  16.861   7.751  11.565 -0.2615  0.1148 -0.0143
 2705PBP     C193734  16.697   7.354  11.526  0.0006  0.0589 -0.1433
 2705PBP     C193735  16.480   7.009  11.703 -0.0881 -0.3116 -0.5378
 2705PBP     C193736  16.140   7.105  12.030  0.1357 -0.0064 -0.0489
 2705PBP     CP93737  15.760   7.067  12.061 -0.1178  0.2150  0.0554
 2705PBP     CP93738  15.413   7.055  11.918  0.1005 -0.4957 -0.4211
 2705PBP     CP93739  15.193   7.237  11.834 -0.4278 -0.1053  0.2685
 2705PBP     Ch93740  15.102   7.448  11.874  0.0606 -0.0894 -0.0382
 2706PBP     C193741   3.017  15.614  13.261 -0.0810 -0.0331  0.3348
 2706PBP     C193742   2.935  15.678  12.895 -0.0060 -0.0512  0.2636
 2706PBP     C193743   2.818  15.520  12.513 -0.2451 -0.3047  0.0493
 2706PBP     C193744   2.846  15.039  12.323 -0.1348  0.0311 -0.0944
 2706PBP     C193745   3.034  14.753  11.983  0.0460 -0.0187  0.0472
 2706PBP     C193746   3.161  14.807  11.539  0.0576  0.0031  0.0889
 2706PBP     C193747   3.595  14.639  11.498 -0.2419  0.4120 -0.0554
 2706PBP     C193748   4.002  14.511  11.193 -0.0142  0.0047  0.0127
 2706PBP     CP93749   4.413  14.429  11.086  0.0633 -0.0970  0.0306
 2706PBP     CP93750   4.605  14.655  11.014  0.1519  0.0080 -0.0791
 2706PBP     CP93751   4.650  15.015  11.128  0.0386  0.9628 -0.2793
 2706PBP     Ch93752   4.789  15.194  10.987 -0.1641  0.1108 -0.0710
 2707PBP     C193753  14.471  17.860  13.263  0.1739  0.1318 -0.0781
 2707PBP     C193754  14.275  17.604  12.975 -0.0618 -0.0187 -0.3706
 2707PBP     C193755  13.801  17.410  12.891 -0.0511  0.6642 -0.0313
 2707PBP     C193756  13.611  16.930  12.918  0.1583 -0.1383 -0.3753
 2707PBP     C193757  13.151  16.965  13.109  0.3779  0.0521  0.2957
 2707PBP     C193758  12.831  17.052  12.902 -0.2156 -0.0636  0.0038
 2707PBP     C193759  12.485  16.793  12.824 -0.2785 -0.1784 -0.0487
 2707PBP     C193760  12.376  16.403  13.115  0.0629 -0.3192  0.2921
 2707PBP     CP93761  12.307  16.089  13.407  0.3914 -0.3688  0.2030
 2707PBP     CP93762  12.188  16.037  13.698  0.3484 -0.5528 -0.4156
 2707PBP     CP93763  12.354  16.179  13.940 -0.3086  0.2469  0.1253
 2707PBP     Ch93764  12.515  16.129  14.155  0.3834 -0.3123 -0.3407
 2708PBP     C193765   9.094   3.761  11.833  0.2065  0.1648 -0.0310
 2708PBP     C193766   9.254   4.097  12.025 -0.0377 -0.1307  0.4147
 2708PBP     C193767   9.348   4.483  12.344  0.1048  0.1038 -0.2390
 2708PBP     C193768   9.681   4.527  12.547 -0.0585  0.0282  0.2803
 2708PBP     C193769   9.610   4.331  13.077 -0.0716  0.0892  0.2283
 2708PBP     C193770   9.866   4.562  13.443  0.3365  0.1345  0.1514
 2708PBP     C193771  10.210   4.921  13.452  0.1306 -0.5405  0.0619
 2708PBP     C193772  10.625   5.089  13.399  0.0726 -0.3058 -0.0495
 2708PBP     CP93773  10.965   5.294  13.292 -0.1521  0.0592 -0.3070
 2708PBP     CP93774  11.202   5.498  13.218  0.5871 -0.2413 -0.4057
 2708PBP     CP93775  11.124   5.816  13.118  0.1442  0.0937  0.0483
 2708PBP     Ch93776  11.290   6.012  13.238 -0.3931  0.3406 -0.1093
 2709PBP     C193777  16.720  12.427  13.112 -0.0937  0.2399  0.0462
 2709PBP     C193778  16.276  12.563  13.052 -0.2802  0.1203  0.2318
 2709PBP     C193779  15.942  12.940  13.104 -0.1088  0.3473  0.2139
 2709PBP     C193780  15.692  13.324  13.177 -0.0384 -0.2431 -0.1461
 2709PBP     C193781  15.561  13.735  13.156  0.3689 -0.2388 -0.0171
 2709PBP     C193782  15.578  14.243  13.353 -0.1530  0.0051  0.0009
 2709PBP     C193783  15.399  14.475  13.661  0.4769 -0.2289 -0.0423
 2709PBP     C193784  15.136  14.372  14.085  0.1117  0.0177 -0.4784
 2709PBP     CP93785  14.723  14.343  14.191 -0.2532  0.1024  0.4375
 2709PBP     CP93786  14.434  14.246  14.076 -0.0619  0.3015  0.2177
 2709PBP     CP93787  14.293  13.970  14.005 -0.0265  0.1015 -0.2711
 2709PBP     Ch93788  14.129  13.776  13.880  0.0684  0.3852 -0.0379
 2710PBP     C193789   5.932  10.120   7.522 -0.1169  0.0181  0.3168
 2710PBP     C193790   5.934  10.577   7.432  0.1370  0.2472  0.0667
 2710PBP     C193791   5.761  11.066   7.604 -0.2071 -0.1604  0.3991
 2710PBP     C193792   5.557  11.518   7.721 -0.2787  0.1373  0.1527
 2710PBP     C193793   5.692  12.029   7.747 -0.1416  0.0309  0.0024
 2710PBP     C193794   5.968  12.202   7.763 -0.0093  0.0591  0.2579
 2710PBP     C193795   6.359  12.173   7.693 -0.2644 -0.2621  0.0072
 2710PBP     C193796   6.707  12.413   7.847  0.1362 -0.0491  0.2937
 2710PBP     CP93797   6.647  12.640   8.204 -0.2849  0.1895 -0.3039
 2710PBP     CP93798   6.626  12.792   8.457  0.0192 -0.2100  0.0170
 2710PBP     CP93799   6.681  13.086   8.516  0.4391  0.1812  0.2654
 2710PBP     Ch93800   6.745  13.279   8.627 -0.4561 -0.4049  0.0417
 2711PBP     C193801  14.321  15.432  16.807 -0.1816 -0.1978 -0.1781
 2711PBP     C193802  14.577  15.197  16.497  0.2595 -0.1992 -0.0582
 2711PBP     C193803  14.664  14.916  16.186 -0.1036 -0.1944 -0.1438
 2711PBP     C193804  14.882  14.531  16.280 -0.1567 -0.2533  0.3466
 2711PBP     C193805  14.746  14.325  16.500  0.1149  0.1860  0.2290
 2711PBP     C193806  14.577  13.927  16.259  0.0731  0.1342 -0.0253
 2711PBP     C193807  14.678  13.691  15.895  0.0449 -0.0995 -0.1390
 2711PBP     C193808  14.367  13.519  15.543 -0.2757 -0.2139  0.1673
 2711PBP     CP93809  14.061  13.408  15.418  0.4013  0.3158  0.4724
 2711PBP     CP93810  13.813  13.426  15.188 -0.5581  0.5675 -0.5105
 2711PBP     CP93811  13.497  13.430  15.190 -0.0616 -0.6759  0.2259
 2711PBP     Ch93812  13.368  13.433  14.964  0.1227  0.2086  0.5450
 2712PBP     C193813  14.719  10.263   8.575  0.4595  0.0868  0.4962
 2712PBP     C193814  14.446   9.955   8.511 -0.1208 -0.3297  0.1314
 2712PBP     C193815  14.604   9.587   8.644  0.3808  0.0244 -0.2427
 2712PBP     C193816  14.991   9.343   8.762  0.1022  0.2983 -0.2866
 2712PBP     C193817  15.064   9.211   9.216 -0.0526 -0.2624  0.2803
 2712PBP     C193818  14.781   9.224   9.459  0.2166 -0.0423 -0.1907
 2712PBP     C193819  14.542   8.891   9.430 -0.0930 -0.1497 -0.0839
 2712PBP     C193820  14.475   8.559   9.673  0.0335 -0.1732  0.0416
 2712PBP     CP93821  14.274   8.542   9.986 -0.0109  0.4953  0.4011
 2712PBP     CP93822  14.311   8.549  10.297  0.2568  0.3282  0.0137
 2712PBP     CP93823  14.596   8.596  10.433  0.0645  0.4460 -0.6004
 2712PBP     Ch93824  14.845   8.585  10.521 -0.1321 -0.1032 -0.1384
 2713PBP     C193825  16.793   6.459  12.863 -0.3283 -0.2322  0.1483
 2713PBP     C193826  17.077   6.375  12.694 -0.0308 -0.1752  0.0193
 2713PBP     C193827  17.281   6.819  12.610  0.3384 -0.1283 -0.0584
 2713PBP     C193828  17.294   7.139  12.664 -0.3327  0.1295  0.1889
 2713PBP     C193829  16.880   7.008  12.821  0.1381 -0.0055 -0.0656
 2713PBP     C193830  16.660   6.840  13.198  0.0317 -0.0018 -0.4788
 2713PBP     C193831  16.293   6.801  13.351 -0.0157 -0.0515  0.2655
 2713PBP     C193832  15.938   6.793  13.333 -0.1006  0.2841 -0.3448
 2713PBP     CP93833  15.536   6.731  13.330  0.3634 -0.1422 -0.0194
 2713PBP     CP93834  15.356   6.993  13.359 -0.4606  0.0509  0.2342
 2713PBP     CP93835  15.123   7.128  13.238  0.3201  0.0424  0.3407
 2713PBP     Ch93836  14.839   7.090  13.172 -0.3389  0.3172  0.3154
 2714PBP     C193837   9.935   6.731  16.467 -0.3122 -0.3342 -0.2151
 2714PBP     C193838  10.248   6.501  16.257  0.2777  0.1282  0.4180
 2714PBP     C193839  10.550   6.590  15.865 -0.1013  0.0725 -0.0564
 2714PBP     C193840  10.654   6.656  15.454  0.0044  0.0874  0.2876
 2714PBP     C193841  11.070   6.751  15.177  0.0078  0.3877  0.4312
 2714PBP     C193842  11.427   6.740  14.873 -0.4222  0.0677 -0.1950
 2714PBP     C193843  11.552   7.010  14.564 -0.2187  0.4145  0.1206
 2714PBP     C193844  11.500   7.222  14.123  0.0621  0.3538  0.3272
 2714PBP     CP93845  11.698   7.328  13.743 -0.2570 -0.1819 -0.1500
 2714PBP     CP93846  11.819   7.597  13.612 -0.2496 -0.2495  0.6416
 2714PBP     CP93847  11.633   7.863  13.523 -0.6864  0.1621  0.4225
 2714PBP     Ch93848  11.553   7.948  13.771  0.5578 -0.2097 -0.1949
 2715PBP     C193849   9.736   2.210  11.231 -0.2041 -0.2941  0.2472
 2715PBP     C193850   9.545   2.601  11.521 -0.0707  0.2313 -0.5250
 2715PBP     C193851   9.383   2.694  11.850  0.1988  0.0503  0.0844
 2715PBP     C193852   9.005   2.865  11.947  0.1510 -0.1479  0.1586
 2715PBP     C193853   8.730   3.157  12.093 -0.0572 -0.0389  0.3475
 2715PBP     C193854   8.619   3.565  11.835  0.4814  0.3052  0.0416
 2715PBP     C193855   8.523   3.881  12.024  0.1922  0.1914  0.4489
 2715PBP     C193856   8.150   4.269  12.023  0.1258  0.1852 -0.0866
 2715PBP     CP93857   7.992   4.626  12.101  0.0856 -0.0710  0.3536
 2715PBP     CP93858   8.070   4.926  12.100 -0.3976  0.3288 -0.1413
 2715PBP     CP93859   8.283   5.105  12.182 -0.1260 -0.3507 -0.2825
 2715PBP     Ch93860   8.288   5.413  12.192 -0.0328  0.1570  0.1135
 2716PBP     C193861   9.866  12.549   7.381 -0.1945 -0.2409  0.2118
 2716PBP     C193862   9.569  12.625   7.177  0.1029  0.2274  0.2024
 2716PBP     C193863   9.477  13.012   7.095  0.3586 -0.0509 -0.0828
 2716PBP     C193864   9.466  13.346   7.327  0.4004  0.1353  0.2187
 2716PBP     C193865   9.619  13.543   7.721 -0.0592  0.4692 -0.1173
 2716PBP     C193866   9.697  13.422   8.147 -0.1037  0.1567 -0.1631
 2716PBP     C193867   9.585  13.511   8.527  0.0765 -0.0925  0.0122
 2716PBP     C193868   9.840  13.557   8.841  0.1856  0.0990 -0.1438
 2716PBP     CP93869  10.125  13.648   9.149 -0.3026 -0.1659  0.0086
 2716PBP     CP93870  10.070  13.954   9.219 -0.4055  0.2681  0.0115
 2716PBP     CP93871  10.037  14.031   9.506  0.2765  0.2308 -0.0415
 2716PBP     Ch93872   9.854  14.024   9.738 -0.2128  0.4431  0.3415
 2717PBP     C193873  15.344  12.479   9.946 -0.3032 -0.2860 -0.0345
 2717PBP     C193874  15.417  12.950  10.129 -0.1641  0.1541  0.2564
 2717PBP     C193875  15.511  13.124  10.492 -0.0984 -0.3240  0.3198
 2717PBP     C193876  15.667  13.250  10.973 -0.2297  0.4239  0.0974
 2717PBP     C193877  15.746  13.069  11.378 -0.2312 -0.3991  0.0256
 2717PBP     C193878  15.927  13.213  11.809 -0.1347 -0.1014 -0.3804
 2717PBP     C193879  15.802  13.208  12.221 -0.4460 -0.0664  0.1091
 2717PBP     C193880  15.612  13.187  12.606 -0.3061  0.1104 -0.0818
 2717PBP     CP93881  15.267  13.106  12.731 -0.5270 -0.4442  0.6842
 2717PBP     CP93882  15.029  13.300  12.713  0.0449  0.3176 -0.3125
 2717PBP     CP93883  14.752  13.316  12.607 -0.0749  0.2655 -0.0781
 2717PBP     Ch93884  14.588  13.187  12.528  0.4606  0.2603 -0.0027
 2718PBP     C193885   4.951   9.398   7.185 -0.2378  0.2806  0.3358
 2718PBP     C193886   5.066   9.895   7.194  0.0056  0.4315  0.1532
 2718PBP     C193887   4.978  10.351   7.262  0.0846 -0.0711  0.2994
 2718PBP     C193888   4.837  10.573   7.592 -0.2605 -0.1506 -0.0306
 2718PBP     C193889   4.932  10.913   7.681 -0.1377 -0.5340 -0.1487
 2718PBP     C193890   5.108  11.304   7.877  0.4364  0.0425 -0.0744
 2718PBP     C193891   5.322  11.645   8.129  0.4310  0.4473  0.0990
 2718PBP     C193892   5.717  11.695   8.143  0.0293 -0.2422 -0.1562
 2718PBP     CP93893   5.967  11.931   8.294  0.0113 -0.4425 -0.0141
 2718PBP     CP93894   6.272  11.833   8.199  0.0579 -0.3761 -0.4787
 2718PBP     CP93895   6.445  11.535   8.240  0.2602  0.5690  0.3891
 2718PBP     Ch93896   6.353  11.426   8.001 -0.0910 -0.4241 -0.2666
 2719PBP     C193897  11.849   5.344   8.434 -0.0820 -0.2204  0.2431
 2719PBP     C193898  11.841   4.940   8.648  0.2514 -0.3422  0.4964
 2719PBP     C193899  11.871   4.702   9.031  0.1956  0.0706  0.1773
 2719PBP     C193900  12.189   4.632   9.340 -0.0306  0.3143  0.5508
 2719PBP     C193901  12.188   5.009   9.659 -0.0920 -0.4495  0.0074
 2719PBP     C193902  12.021   5.141  10.020 -0.4084  0.3737 -0.2594
 2719PBP     C193903  12.295   5.063  10.270 -0.1282 -0.2299  0.2881
 2719PBP     C193904  12.406   5.341  10.597  0.1723 -0.0940 -0.2197
 2719PBP     CP93905  12.682   5.618  10.744 -0.0243 -0.0582  0.2217
 2719PBP     CP93906  12.548   5.917  10.791 -0.1623 -0.2475 -0.3646
 2719PBP     CP93907  12.739   6.219  10.869 -0.1753  0.1864  0.0385
 2719PBP     Ch93908  12.727   6.476  10.898  0.0625 -0.0767  0.5238
 2720PBP     C193909  10.953  14.802  15.629  0.0350 -0.2261 -0.0699
 2720PBP     C193910  10.540  14.888  15.890  0.1888  0.0626  0.2912
 2720PBP     C193911  10.212  14.523  15.843  0.0134  0.3853 -0.1299
 2720PBP     C193912  10.469  14.388  15.500  0.0001 -0.0349  0.0960
 2720PBP     C193913  10.999  14.278  15.800  0.4102  0.0082  0.0866
 2720PBP     C193914  11.376  14.468  15.604 -0.1481 -0.2401  0.0804
 2720PBP     C193915  11.729  14.791  15.581 -0.2027 -0.1207  0.3209
 2720PBP     C193916  12.208  14.853  15.478 -0.0638  0.2111  0.0069
 2720PBP     CP93917  12.545  14.785  15.286 -0.3234 -0.1827 -0.3586
 2720PBP     CP93918  12.582  14.611  15.006  0.2693  0.1062 -0.1502
 2720PBP     CP93919  12.572  14.296  14.875  0.1441  0.1247 -0.0591
 2720PBP     Ch93920  12.323  14.285  14.760 -0.0703 -0.2244  0.4096
 2721PBP     C193921   7.841  16.697   7.550  0.0748  0.0604 -0.1348
 2721PBP     C193922   7.499  16.338   7.428 -0.4479 -0.0174  0.2218
 2721PBP     C193923   7.423  15.987   7.594  0.1973 -0.0648  0.0672
 2721PBP     C193924   7.359  15.603   7.749 -0.0693 -0.5194 -0.0363
 2721PBP     C193925   7.559  15.159   7.789 -0.3018  0.5555 -0.0261
 2721PBP     C193926   7.700  14.706   7.713 -0.1443  0.1214  0.1059
 2721PBP     C193927   7.282  14.427   7.885  0.1345 -0.0117 -0.0046
 2721PBP     C193928   7.080  14.480   8.138  0.0770 -0.0380  0.1337
 2721PBP     CP93929   6.723  14.416   8.259 -0.0322 -0.0737 -0.2149
 2721PBP     CP93930   6.646  14.084   8.189  0.0643 -0.5310  0.0288
 2721PBP     CP93931   6.578  13.811   8.347  0.1837 -0.2189 -0.2417
 2721PBP     Ch93932   6.438  13.726   8.590  0.1405 -0.0052  0.2225
 2722PBP     C193933   7.870  10.285  14.266 -0.3972 -0.0850 -0.3705
 2722PBP     C193934   8.145  10.523  14.007  0.4698 -0.0394  0.4137
 2722PBP     C193935   8.464  10.775  13.848 -0.2192  0.2192 -0.1861
 2722PBP     C193936   8.957  10.718  13.726 -0.0509  0.3196  0.0671
 2722PBP     C193937   9.178  10.290  13.731 -0.0622 -0.3411  0.0260
 2722PBP     C193938   9.390  10.355  14.063 -0.0723  0.0468 -0.0429
 2722PBP     C193939   9.740  10.658  14.058 -0.1678 -0.1348 -0.1733
 2722PBP     C193940   9.447  10.764  13.649  0.1846 -0.1128 -0.2342
 2722PBP     CP93941   9.505  10.929  13.309 -0.2049 -0.1045 -0.0254
 2722PBP     CP93942   9.339  11.244  13.251 -0.3098  0.3137  0.2939
 2722PBP     CP93943   9.326  11.532  13.415 -0.1912 -0.7368 -0.2691
 2722PBP     Ch93944   9.463  11.748  13.321  0.0287  0.0999  0.2011
 2723PBP     C193945  13.892   4.831  11.096 -0.2000  0.0760  0.0225
 2723PBP     C193946  13.568   4.940  10.850  0.3580  0.4051  0.0035
 2723PBP     C193947  13.169   4.746  10.522  0.4433  0.0216 -0.6152
 2723PBP     C193948  13.009   4.633  10.154 -0.0381 -0.3130 -0.1360
 2723PBP     C193949  12.692   4.826   9.857  0.4453  0.2262  0.2818
 2723PBP     C193950  12.866   5.235   9.776 -0.2669 -0.2433 -0.1448
 2723PBP     C193951  13.164   5.549   9.647 -0.3902  0.2066  0.0223
 2723PBP     C193952  13.603   5.636   9.701 -0.0429  0.1237  0.2342
 2723PBP     CP93953  13.785   5.982   9.659  0.0828  0.2520  0.3667
 2723PBP     CP93954  13.884   6.250   9.790  0.1842 -0.1461 -0.2447
 2723PBP     CP93955  13.949   6.589   9.840 -0.1431  0.1165 -0.3015
 2723PBP     Ch93956  13.959   6.781   9.922 -0.5959  0.6195 -0.0815
 2724PBP     C193957   6.017  17.163   8.674 -0.4200  0.2137 -0.0657
 2724PBP     C193958   6.484  17.352   8.521  0.1633 -0.0785 -0.1585
 2724PBP     C193959   6.843  17.353   8.344 -0.1262  0.0795  0.1063
 2724PBP     C193960   7.103  17.067   8.469  0.2299 -0.2710  0.2982
 2724PBP     C193961   7.318  17.125   8.881  0.1956  0.1681  0.1175
 2724PBP     C193962   7.067  17.231   9.266 -0.4595  0.1923  0.1066
 2724PBP     C193963   6.809  17.241   9.623  0.0297  0.1722 -0.2177
 2724PBP     C193964   6.911  16.785   9.925  0.4055  0.0248 -0.1354
 2724PBP     CP93965   6.966  16.409   9.965  0.1594  0.1678 -0.2623
 2724PBP     CP93966   6.895  16.082  10.080 -0.3838  0.3821  0.0153
 2724PBP     CP93967   6.699  15.843  10.241 -0.3573 -0.2679  0.0740
 2724PBP     Ch93968   6.524  15.791  10.409 -0.5356 -0.2409 -0.4683
 2725PBP     C193969  17.008   4.397  14.969 -0.0734  0.0744 -0.0059
 2725PBP     C193970  16.991   4.704  14.647  0.2029  0.0491 -0.0050
 2725PBP     C193971  17.088   5.114  14.203 -0.4994 -0.0160 -0.2050
 2725PBP     C193972  16.886   5.439  13.975 -0.0489 -0.0989  0.2406
 2725PBP     C193973  16.864   5.842  14.062 -0.5278  0.0142  0.1226
 2725PBP     C193974  16.920   6.160  13.999  0.2917  0.2862  0.0309
 2725PBP     C193975  16.551   6.491  14.121  0.6422  0.0060 -0.3539
 2725PBP     C193976  15.999   6.409  14.159 -0.3288  0.0826  0.1502
 2725PBP     CP93977  15.975   5.995  14.179 -0.3077 -0.5689  0.2707
 2725PBP     CP93978  15.954   5.749  14.270  0.4705 -0.2712 -0.0442
 2725PBP     CP93979  15.804   5.514  14.282  0.2244 -0.0189 -0.3352
 2725PBP     Ch93980  15.949   5.282  14.218 -0.1867 -0.1781 -0.2073
 2726PBP     C193981  11.043   9.958   6.552  0.1733  0.1134 -0.2145
 2726PBP     C193982  11.358  10.120   6.909  0.0077 -0.0791  0.4596
 2726PBP     C193983  11.299  10.473   7.186  0.0662 -0.0434  0.1690
 2726PBP     C193984  11.058  10.354   7.555  0.0623  0.2535 -0.0629
 2726PBP     C193985  10.952  10.171   7.990  0.0204 -0.2980  0.1141
 2726PBP     C193986  10.817   9.917   8.305 -0.1425  0.1183  0.1790
 2726PBP     C193987  10.344   9.900   8.281 -0.1123 -0.0701 -0.2196
 2726PBP     C193988  10.089   9.506   8.278 -0.0222  0.1043  0.2426
 2726PBP     CP93989   9.871   9.263   8.501 -0.2423  0.2404 -0.3959
 2726PBP     CP93990   9.927   8.944   8.572  0.1403 -0.0490  0.3302
 2726PBP     CP93991   9.743   8.727   8.705  0.3927 -0.2630  0.1848
 2726PBP     Ch93992   9.587   8.694   8.885  0.2469 -0.2555 -0.0807
 2727PBP     C193993  10.505  11.667  15.789  0.0138 -0.0560 -0.2954
 2727PBP     C193994  10.958  11.687  15.854 -0.1845  0.0671 -0.1931
 2727PBP     C193995  11.330  11.303  15.798 -0.0034  0.0157  0.1714
 2727PBP     C193996  11.543  11.021  15.499  0.0013 -0.1243 -0.1082
 2727PBP     C193997  11.551  10.551  15.276  0.2761 -0.0859 -0.2246
 2727PBP     C193998  11.517  10.387  14.877  0.2077 -0.2250  0.1434
 2727PBP     C193999  11.682  10.228  14.508 -0.2095 -0.0170  0.0971
 2727PBP     C194000  11.982  10.456  14.410 -0.2280  0.0567  0.0964
 2727PBP     CP94001  12.324  10.438  14.233 -0.2759 -0.1968 -0.1503
 2727PBP     CP94002  12.591  10.193  14.255 -0.1695  0.0915  0.0143
 2727PBP     CP94003  12.771   9.995  14.327  0.2200  0.1643  0.0704
 2727PBP     Ch94004  12.913   9.787  14.281 -0.2046  0.0337 -0.6578
 2728PBP     C194005  13.647  11.747   8.959 -0.2174  0.0480  0.1046
 2728PBP     C194006  13.888  11.781   8.535 -0.0218  0.0178  0.1220
 2728PBP     C194007  14.187  12.182   8.507 -0.0702  0.0423  0.0536
 2728PBP     C194008  14.428  12.352   8.798  0.2273  0.2647  0.0732
 2728PBP     C194009  14.491  12.499   9.181 -0.3222  0.2694 -0.1296
 2728PBP     C194010  14.437  12.283   9.582  0.1960 -0.0572 -0.2877
 2728PBP     C194011  14.428  12.223   9.942 -0.2663  0.1418  0.1483
 2728PBP     C194012  14.363  12.367  10.333 -0.1347 -0.1280 -0.2847
 2728PBP     CP94013  14.634  12.447  10.606 -0.3116 -0.4661 -0.0985
 2728PBP     CP94014  14.829  12.673  10.571 -0.1645 -0.4692 -0.0110
 2728PBP     CP94015  14.986  12.844  10.765 -0.3552 -0.2186  0.3810
 2728PBP     Ch94016  15.193  12.951  10.866  0.3556 -0.3147 -0.0398
 2729PBP     C194017  17.230  11.094  15.938  0.3941  0.4497 -0.1370
 2729PBP     C194018  16.776  11.208  16.004 -0.1392 -0.1985 -0.6341
 2729PBP     C194019  16.387  11.264  15.701 -0.2284 -0.1158  0.3677
 2729PBP     C194020  15.935  11.243  15.557 -0.0684 -0.1004 -0.3548
 2729PBP     C194021  15.442  11.178  15.548 -0.0318 -0.0425  0.1215
 2729PBP     C194022  15.100  11.091  15.299 -0.2473  0.4226  0.2823
 2729PBP     C194023  14.784  10.807  15.128 -0.3405 -0.3257  0.1965
 2729PBP     C194024  14.529  10.388  15.115 -0.0533 -0.1684  0.4002
 2729PBP     CP94025  14.177  10.298  14.916 -0.4214 -0.6732 -0.3204
 2729PBP     CP94026  13.957  10.115  14.848  0.5687 -0.2176 -0.1996
 2729PBP     CP94027  13.673  10.194  14.747 -0.0558 -0.3322 -0.6391
 2729PBP     Ch94028  13.555  10.335  14.596 -0.0215  0.4398  0.2377
 2730PBP     C194029   9.736   3.942   6.930  0.1479 -0.0371 -0.2310
 2730PBP     C194030  10.106   4.125   7.170  0.3882 -0.3916  0.0029
 2730PBP     C194031  10.344   4.062   7.652 -0.5808  0.1048 -0.0277
 2730PBP     C194032  10.214   4.193   8.083 -0.3558 -0.2261 -0.0596
 2730PBP     C194033  10.277   4.604   8.375  0.1392 -0.1151 -0.0888
 2730PBP     C194034  10.244   4.689   8.765 -0.2724 -0.0795 -0.4333
 2730PBP     C194035  10.457   4.857   9.181 -0.2366  0.1864 -0.0001
 2730PBP     C194036  10.602   4.972   9.566  0.2861 -0.3569 -0.4379
 2730PBP     CP94037  10.431   5.125   9.852  0.3068  0.0895 -0.0961
 2730PBP     CP94038  10.246   4.961  10.082 -0.2054 -0.0035  0.0242
 2730PBP     CP94039   9.967   4.818  10.100  0.1612 -0.1132 -0.2870
 2730PBP     Ch94040   9.730   4.857  10.102 -0.0515  0.3886 -0.2960
 2731PBP     C194041  13.372  10.940   7.319 -0.0463 -0.1159 -0.0417
 2731PBP     C194042  13.191  10.802   7.784  0.2049 -0.0548 -0.2353
 2731PBP     C194043  13.129  10.646   8.149  0.2461 -0.0499 -0.0971
 2731PBP     C194044  13.286  10.382   8.639  0.0487  0.3119  0.4152
 2731PBP     C194045  13.412  10.020   8.737 -0.2207  0.4022 -0.3565
 2731PBP     C194046  13.371   9.733   8.982 -0.4879  0.2914 -0.1207
 2731PBP     C194047  13.378   9.696   9.367 -0.2155 -0.3531  0.3674
 2731PBP     C194048  13.398   9.511   9.728  0.0468  0.1342  0.1058
 2731PBP     CP94049  13.365   9.191   9.967 -0.3370 -0.1767  0.3800
 2731PBP     CP94050  13.533   8.960  10.175 -0.3722 -0.2898 -0.5621
 2731PBP     CP94051  13.673   8.701  10.102  0.0678 -0.2408  0.0468
 2731PBP     Ch94052  13.815   8.507  10.090  0.4302 -0.4422 -0.3636
 2732PBP     C194053  17.156  10.957  11.460 -0.4740  0.0596 -0.2312
 2732PBP     C194054  16.897  11.348  11.612  0.3234 -0.3040 -0.2683
 2732PBP     C194055  16.745  11.839  11.611  0.1038 -0.0353 -0.0756
 2732PBP     C194056  16.668  12.159  11.880 -0.0242  0.2092  0.1267
 2732PBP     C194057  16.407  12.577  12.047  0.0995 -0.1505 -0.4723
 2732PBP     C194058  16.026  12.759  12.027  0.2951  0.1324  0.1776
 2732PBP     C194059  15.776  12.750  12.345  0.1130  0.3736  0.1683
 2732PBP     C194060  15.486  12.548  12.608 -0.3750  0.1247  0.2257
 2732PBP     CP94061  15.136  12.381  12.605 -0.1496  0.3939  0.4165
 2732PBP     CP94062  14.818  12.324  12.483  0.3000  0.0598  0.2049
 2732PBP     CP94063  14.665  12.101  12.398 -0.0845  0.4168  0.2635
 2732PBP     Ch94064  14.536  11.867  12.293 -0.4990  0.0645 -0.0022
 2733PBP     C194065  11.319  18.401  11.451 -0.3272 -0.0541 -0.1613
 2733PBP     C194066  11.719  18.204  11.390  0.1657 -0.0316  0.0155
 2733PBP     C194067  11.759  17.885  11.220  0.2263  0.1636 -0.4846
 2733PBP     C194068  11.769  17.455  11.310  0.0950 -0.0314  0.1069
 2733PBP     C194069  11.725  17.036  11.523 -0.1564  0.0890  0.2562
 2733PBP     C194070  11.697  16.555  11.596 -0.0685  0.1794 -0.4065
 2733PBP     C194071  11.400  16.354  11.839  0.3824  0.0461 -0.1615
 2733PBP     C194072  10.992  16.171  11.801 -0.0719 -0.1935 -0.3875
 2733PBP     CP94073  10.829  15.853  11.645 -0.4249  0.0085  0.0676
 2733PBP     CP94074  10.910  15.564  11.611  0.2355 -0.1627 -0.2713
 2733PBP     CP94075  11.143  15.311  11.627 -0.2386 -0.0630 -0.2809
 2733PBP     Ch94076  11.257  15.058  11.667  0.3071  0.1448 -0.0650
 2734PBP     C194077  12.138   4.103  10.132  0.0964  0.1133  0.0481
 2734PBP     C194078  12.073   3.728  10.316  0.1312  0.3170 -0.2138
 2734PBP     C194079  12.161   3.526  10.673  0.1568 -0.2268 -0.1311
 2734PBP     C194080  12.121   3.312  10.970  0.0863  0.1542  0.2642
 2734PBP     C194081  12.178   3.238  11.439 -0.4120  0.0663  0.0052
 2734PBP     C194082  11.875   3.482  11.691  0.0173  0.0117 -0.0548
 2734PBP     C194083  12.023   3.784  12.135 -0.2665  0.0822 -0.2189
 2734PBP     C194084  12.002   4.150  12.220  0.2597  0.1125  0.1658
 2734PBP     CP94085  11.758   4.467  12.249  0.0439 -0.3086  0.0735
 2734PBP     CP94086  11.878   4.759  12.150  0.0051  0.4963  0.0051
 2734PBP     CP94087  12.022   4.808  11.905 -0.5060 -0.0524 -0.3030
 2734PBP     Ch94088  12.217   4.929  11.828 -0.0557 -0.3089  0.1090
 2735PBP     C194089  11.299  13.818   7.810  0.1051 -0.3719  0.5426
 2735PBP     C194090  10.923  13.649   7.737  0.2953  0.0728 -0.3453
 2735PBP     C194091  10.613  13.587   8.068  0.1951 -0.3138  0.0519
 2735PBP     C194092  10.449  13.277   8.345 -0.0152  0.2464  0.0840
 2735PBP     C194093  10.232  13.039   8.491 -0.0278  0.1038 -0.0597
 2735PBP     C194094  10.276  12.837   8.845  0.3373  0.0137 -0.0537
 2735PBP     C194095  10.324  12.435   9.121 -0.0533 -0.2922  0.0263
 2735PBP     C194096  10.086  12.204   9.431 -0.0708 -0.4576 -0.0356
 2735PBP     CP94097  10.032  11.802   9.444 -0.1931  0.6117  0.3610
 2735PBP     CP94098  10.175  11.484   9.384 -0.1712  0.2072  0.4575
 2735PBP     CP94099  10.219  11.174   9.371  0.0735 -0.1722  0.0269
 2735PBP     Ch94100  10.086  10.919   9.353 -0.0662  0.3163  0.4267
 2736PBP     C194101  12.217  12.660  15.240  0.0609  0.0247  0.4128
 2736PBP     C194102  12.021  12.918  15.414  0.2110 -0.2781 -0.4174
 2736PBP     C194103  11.693  12.991  15.623  0.0139 -0.4887 -0.0985
 2736PBP     C194104  11.339  12.636  15.642 -0.0178 -0.2826  0.2056
 2736PBP     C194105  11.362  12.208  15.731  0.1754  0.1327 -0.4127
 2736PBP     C194106  11.398  11.817  15.619  0.1740  0.1261 -0.3063
 2736PBP     C194107  11.334  11.421  15.315 -0.2553 -0.2030 -0.2860
 2736PBP     C194108  11.315  11.485  14.878  0.1138  0.4586 -0.0333
 2736PBP     CP94109  11.542  11.679  14.637  0.0247  0.0572  0.2382
 2736PBP     CP94110  11.574  11.991  14.604 -0.0189 -0.1438  0.4020
 2736PBP     CP94111  11.517  12.215  14.395  0.0920  0.1234  0.2324
 2736PBP     Ch94112  11.582  12.392  14.233  0.1683 -0.2048  0.3910
 2737PBP     C194113  11.166  11.824  16.456  0.4061 -0.2677  0.2190
 2737PBP     C194114  11.459  12.051  16.193 -0.2460 -0.1491  0.2630
 2737PBP     C194115  11.702  12.368  16.078 -0.0072 -0.1339  0.1191
 2737PBP     C194116  12.054  12.459  15.783 -0.1983  0.1096 -0.2275
 2737PBP     C194117  12.403  12.608  15.795 -0.0330 -0.4015  0.1108
 2737PBP     C194118  12.286  13.133  15.820 -0.0127  0.0778  0.1288
 2737PBP     C194119  12.245  13.407  15.498  0.0512  0.0214 -0.0511
 2737PBP     C194120  11.982  13.410  15.250  0.1881  0.2242 -0.4623
 2737PBP     CP94121  11.847  13.198  14.941 -0.0380  0.2406 -0.0294
 2737PBP     CP94122  11.924  12.924  14.874  0.2537 -0.3051  0.3769
 2737PBP     CP94123  12.139  12.823  14.715 -0.1893 -0.1131  0.2131
 2737PBP     Ch94124  12.227  12.935  14.489 -0.2936 -0.1322 -0.1241
 2738PBP     C194125   4.280  13.784  12.610 -0.1865  0.2332 -0.4737
 2738PBP     C194126   3.882  13.941  12.353  0.5085  0.2179 -0.2623
 2738PBP     C194127   3.631  14.360  12.281  0.1881 -0.0935 -0.1658
 2738PBP     C194128   3.510  14.703  12.116  0.2747  0.0406  0.2717
 2738PBP     C194129   3.891  15.049  12.123 -0.1501 -0.3007  0.1610
 2738PBP     C194130   4.212  15.149  11.826  0.0073  0.2078  0.0409
 2738PBP     C194131   4.582  15.464  11.648  0.5866  0.0612  0.1515
 2738PBP     C194132   4.955  15.465  11.371  0.2819 -0.4710  0.0983
 2738PBP     CP94133   5.260  15.189  11.308 -0.1642 -0.2771  0.1243
 2738PBP     CP94134   5.240  14.861  11.187  0.0092 -0.0885 -0.2581
 2738PBP     CP94135   5.097  14.658  11.124 -0.2357  0.3427  0.3128
 2738PBP     Ch94136   5.018  14.400  11.108 -0.0764 -0.0728 -0.3846
 2739PBP     C194137   7.598   4.809   7.397  0.0310 -0.1679  0.1527
 2739PBP     C194138   7.454   4.356   7.458 -0.0067 -0.5236 -0.3626
 2739PBP     C194139   7.183   4.243   7.320  0.0903 -0.0882  0.0557
 2739PBP     C194140   6.696   4.380   7.199 -0.2529  0.1558  0.1579
 2739PBP     C194141   6.263   4.674   7.360 -0.1293  0.1732 -0.0667
 2739PBP     C194142   5.952   4.549   7.676 -0.2450 -0.0717  0.1503
 2739PBP     C194143   5.790   4.396   8.064 -0.1087  0.0066 -0.0664
 2739PBP     C194144   5.958   4.314   8.422  0.0196  0.1576 -0.1694
 2739PBP     CP94145   6.084   4.493   8.781 -0.2326 -0.1319 -0.0306
 2739PBP     CP94146   6.025   4.724   8.963  0.0201  0.3041 -0.3630
 2739PBP     CP94147   5.919   4.822   9.242  0.0955 -0.2969  0.1372
 2739PBP     Ch94148   5.631   4.693   9.203  0.0699  0.3343 -0.2222
 2740PBP     C194149   9.294   4.325   7.152 -0.0644 -0.2367  0.2238
 2740PBP     C194150   9.700   4.421   7.361 -0.2818 -0.1575  0.0498
 2740PBP     C194151  10.154   4.574   7.484 -0.3067 -0.2967  0.0471
 2740PBP     C194152  10.401   4.595   7.842 -0.0385  0.2243 -0.0576
 2740PBP     C194153  10.358   4.972   8.023  0.1726  0.1037 -0.5025
 2740PBP     C194154  10.137   5.116   8.219 -0.4387 -0.2814 -0.1249
 2740PBP     C194155   9.779   5.347   8.372 -0.0548  0.4105 -0.0418
 2740PBP     C194156   9.548   5.677   8.240 -0.0458  0.2549  0.1032
 2740PBP     CP94157   9.403   6.040   8.298  0.2761 -0.1484 -0.0680
 2740PBP     CP94158   9.141   6.197   8.290 -0.0357 -0.1446  0.0205
 2740PBP     CP94159   9.085   6.501   8.270  0.3279 -0.2381  0.0552
 2740PBP     Ch94160   9.081   6.780   8.332 -0.2740 -0.0268 -0.0436
 2741PBP     C194161  12.063  11.366   7.228  0.1764  0.1763  0.1134
 2741PBP     C194162  11.847  10.976   7.419  0.2397  0.3147  0.0296
 2741PBP     C194163  11.646  10.620   7.698  0.0643 -0.3085 -0.1450
 2741PBP     C194164  11.496  10.227   7.803 -0.0188 -0.3699 -0.4049
 2741PBP     C194165  11.296   9.886   8.046 -0.1514 -0.2481  0.1037
 2741PBP     C194166  11.041   9.504   8.084  0.0745  0.3001  0.0537
 2741PBP     C194167  10.878   9.017   8.146 -0.0760 -0.2691  0.0580
 2741PBP     C194168  10.419   8.776   8.264  0.0875 -0.1946 -0.0618
 2741PBP     CP94169  10.052   8.571   8.342  0.3458 -0.1106 -0.2768
 2741PBP     CP94170   9.829   8.292   8.409  0.3773 -0.1785  0.0868
 2741PBP     CP94171   9.525   8.336   8.591 -0.1371 -0.1839 -0.1911
 2741PBP     Ch94172   9.402   8.098   8.649  0.5556 -0.4933  0.3093
 2742PBP     C194173   8.519   9.126  14.538 -0.1224  0.1414 -0.0479
 2742PBP     C194174   8.028   9.244  14.384 -0.4502 -0.1421  0.0928
 2742PBP     C194175   7.590   9.375  14.276 -0.0590 -0.4119 -0.3136
 2742PBP     C194176   7.307   9.564  13.866  0.0187  0.2278  0.2387
 2742PBP     C194177   7.189   9.910  13.700 -0.2830 -0.3525 -0.0871
 2742PBP     C194178   7.263  10.014  13.380 -0.2814  0.2870 -0.0852
 2742PBP     C194179   7.376  10.209  13.164 -0.0049  0.2416  0.2037
 2742PBP     C194180   7.614   9.890  12.942 -0.0383  0.3590 -0.0490
 2742PBP     CP94181   7.880   9.802  12.641  0.2944 -0.0443 -0.3112
 2742PBP     CP94182   8.206   9.764  12.732 -0.2173  0.0968  0.1054
 2742PBP     CP94183   8.474   9.847  12.864 -0.1495  0.1282 -0.1176
 2742PBP     Ch94184   8.666  10.033  12.918  0.3860 -0.6591  0.1896
 2743PBP     C194185   3.862  16.451  10.243 -0.0391 -0.1611  0.1740
 2743PBP     C194186   4.110  16.123  10.092 -0.0361  0.3472  0.1098
 2743PBP     C194187   4.344  15.988  10.392 -0.2250 -0.4122  0.1375
 2743PBP     C194188   4.754  16.088  10.505  0.2155  0.5171 -0.0608
 2743PBP     C194189   4.964  16.434  10.542 -0.1331 -0.1108  0.4178
 2743PBP     C194190   5.385  16.360  10.618 -0.2412  0.1689  0.3177
 2743PBP     C194191   5.850  16.180  10.684  0.3434 -0.1785  0.2577
 2743PBP     C194192   6.223  15.956  10.812  0.0651  0.0252 -0.0485
 2743PBP     CP94193   6.557  15.843  11.082 -0.0237 -0.0814 -0.4085
 2743PBP     CP94194   6.533  15.654  11.357 -0.1377  0.5042  0.4150
 2743PBP     CP94195   6.311  15.476  11.500 -0.2700  0.1010 -0.2913
 2743PBP     Ch94196   6.196  15.459  11.720 -0.2059 -0.4583 -0.1183
 2744PBP     C194197  16.982  14.804  15.095 -0.1354 -0.0308  0.2844
 2744PBP     C194198  16.725  14.473  15.073  0.2840  0.0493  0.0683
 2744PBP     C194199  16.435  14.336  15.327  0.0580 -0.1276 -0.2724
 2744PBP     C194200  16.005  14.198  15.244 -0.0552 -0.3519 -0.2212
 2744PBP     C194201  15.772  14.372  15.422 -0.2138  0.0309  0.2832
 2744PBP     C194202  15.378  14.608  15.491 -0.0156  0.4498  0.0033
 2744PBP     C194203  15.132  14.918  15.291  0.0942  0.4243  0.2431
 2744PBP     C194204  14.928  15.162  14.946  0.0212  0.1015 -0.0668
 2744PBP     CP94205  14.935  15.191  14.564 -0.2864  0.0789 -0.1751
 2744PBP     CP94206  14.702  15.289  14.365  0.0397  0.2597 -0.0022
 2744PBP     CP94207  14.573  15.571  14.330  0.0769  0.0284  0.1756
 2744PBP     Ch94208  14.384  15.653  14.248 -0.4372  0.0075 -0.4571
 2745PBP     C194209  10.845   6.239  13.874 -0.0577  0.0074 -0.0072
 2745PBP     C194210  10.980   5.859  14.072 -0.2366  0.1607  0.0854
 2745PBP     C194211  10.987   5.630  14.428 -0.2496  0.0546  0.2215
 2745PBP     C194212  11.355   5.440  14.623 -0.0799  0.3253 -0.1811
 2745PBP     C194213  11.817   5.711  14.912 -0.0823  0.1680 -0.2076
 2745PBP     C194214  12.287   5.929  14.766 -0.1691  0.0816  0.0390
 2745PBP     C194215  12.521   6.346  14.774  0.0490  0.3053 -0.3266
 2745PBP     C194216  12.832   6.239  14.957  0.6311 -0.2298  0.0051
 2745PBP     CP94217  13.130   6.297  14.753  0.0779 -0.4398  0.2457
 2745PBP     CP94218  13.337   6.317  14.492  0.5483 -0.5423  0.4307
 2745PBP     CP94219  13.364   6.230  14.169  0.0485  0.5818 -0.2599
 2745PBP     Ch94220  13.289   6.285  13.898  0.1624 -0.1140  0.0908
 2746PBP     C194221  19.340   8.710  11.538 -0.1373 -0.0592  0.1611
 2746PBP     C194222  18.834   8.747  11.654  0.0790  0.0813 -0.1837
 2746PBP     C194223  18.442   8.932  11.613 -0.1653  0.0708 -0.5494
 2746PBP     C194224  18.167   8.781  11.366 -0.0346  0.0021 -0.1435
 2746PBP     C194225  17.711   8.904  11.255  0.0323  0.1785 -0.0668
 2746PBP     C194226  17.217   8.994  11.398 -0.0768 -0.1822  0.2812
 2746PBP     C194227  16.772   8.884  11.350 -0.0820  0.3302  0.0266
 2746PBP     C194228  16.484   8.783  11.188  0.1204  0.2567  0.5795
 2746PBP     CP94229  16.270   8.597  10.919  0.1239  0.1208 -0.1282
 2746PBP     CP94230  16.139   8.322  10.854 -0.3211  0.3100  0.0096
 2746PBP     CP94231  15.963   8.138  10.637 -0.0667 -0.4838  0.3256
 2746PBP     Ch94232  15.912   7.917  10.775 -0.1525  0.1763 -0.1819
 2747PBP     C194233   6.914  11.945   5.515 -0.0599 -0.1351 -0.1732
 2747PBP     C194234   7.315  11.741   5.824 -0.0081  0.2225  0.5282
 2747PBP     C194235   7.591  12.093   5.977 -0.1808  0.3121  0.2318
 2747PBP     C194236   7.383  12.484   6.263  0.0400  0.0351 -0.5130
 2747PBP     C194237   7.191  12.834   6.413 -0.3172 -0.0912 -0.0191
 2747PBP     C194238   6.967  12.933   6.672 -0.1549 -0.0032  0.1504
 2747PBP     C194239   6.934  12.870   7.092 -0.0877 -0.4290  0.1570
 2747PBP     C194240   6.877  12.991   7.466 -0.2175 -0.2142  0.0690
 2747PBP     CP94241   7.016  13.016   7.857 -0.0923  0.1751  0.1579
 2747PBP     CP94242   6.974  12.976   8.172  0.5905  0.2079 -0.7081
 2747PBP     CP94243   7.108  12.872   8.436  0.5694  0.0774 -0.2494
 2747PBP     Ch94244   7.056  12.883   8.652  0.3536  0.4977  0.1455
 2748PBP     C194245   4.990   6.541   6.709  0.0362 -0.2898  0.3245
 2748PBP     C194246   5.339   6.817   6.776  0.1339 -0.1090 -0.3540
 2748PBP     C194247   5.780   6.880   6.917 -0.2512  0.2587 -0.1090
 2748PBP     C194248   6.283   6.614   6.765 -0.1316 -0.1682  0.0067
 2748PBP     C194249   6.684   6.377   6.718 -0.3582  0.0096 -0.1752
 2748PBP     C194250   6.761   5.997   6.756 -0.2185  0.1047 -0.1980
 2748PBP     C194251   7.016   5.757   6.942 -0.1496  0.0216 -0.2108
 2748PBP     C194252   7.167   5.648   7.458  0.3247  0.3578  0.0987
 2748PBP     CP94253   7.470   5.680   7.764 -0.0967  0.0412 -0.0681
 2748PBP     CP94254   7.664   5.383   7.710  0.2278 -0.0826  0.1141
 2748PBP     CP94255   7.703   5.121   7.908  0.1844  0.3323  0.0338
 2748PBP     Ch94256   7.848   4.927   7.845  0.0949  0.2137  0.0154
 2749PBP     C194257   4.949  14.104   8.518  0.2185 -0.4279  0.0738
 2749PBP     C194258   4.730  13.792   8.247 -0.1243  0.2765  0.1990
 2749PBP     C194259   4.772  13.250   8.060 -0.3078  0.1493  0.1301
 2749PBP     C194260   4.656  12.796   8.021 -0.3961  0.0585 -0.0684
 2749PBP     C194261   4.785  12.243   8.082 -0.6048  0.4451 -0.3578
 2749PBP     C194262   5.273  12.111   8.115 -0.1979 -0.0931 -0.0501
 2749PBP     C194263   5.709  12.432   8.094 -0.3270  0.2864 -0.2769
 2749PBP     C194264   6.198  12.418   8.207 -0.2128 -0.2238  0.1969
 2749PBP     CP94265   6.529  12.204   8.309  0.2508 -0.3635  0.3774
 2749PBP     CP94266   6.720  11.962   8.420  0.0702 -0.0341 -0.0638
 2749PBP     CP94267   6.892  11.698   8.394  0.3391  0.2483 -0.3004
 2749PBP     Ch94268   7.059  11.528   8.454 -0.1090 -0.1296  0.2285
 2750PBP     C194269  14.744   8.910  16.512  0.0247  0.0112  0.2357
 2750PBP     C194270  14.390   8.798  16.748 -0.1308 -0.1992 -0.2875
 2750PBP     C194271  13.993   8.694  16.521 -0.0512  0.1704 -0.3229
 2750PBP     C194272  14.002   8.726  16.188  0.3541 -0.1080  0.0311
 2750PBP     C194273  13.701   8.946  15.852 -0.2412 -0.0651  0.0372
 2750PBP     C194274  13.535   8.674  15.574 -0.0766  0.2172 -0.1530
 2750PBP     C194275  13.495   8.726  15.024 -0.1292 -0.1229  0.0103
 2750PBP     C194276  13.353   8.722  14.694 -0.0762 -0.4044 -0.0513
 2750PBP     CP94277  13.349   8.949  14.377  0.4942 -0.3025  0.5343
 2750PBP     CP94278  13.095   8.912  14.232 -0.4330 -0.2460 -0.1414
 2750PBP     CP94279  12.913   8.686  14.382 -0.4060  0.1227  0.3406
 2750PBP     Ch94280  12.792   8.525  14.151  0.0784  0.0575 -0.0247
 2751PBP     C194281  11.771   6.535   7.462 -0.4615 -0.4775 -0.1182
 2751PBP     C194282  12.082   6.764   7.486 -0.0766 -0.2024  0.2923
 2751PBP     C194283  12.242   7.172   7.410  0.2640 -0.0633 -0.1761
 2751PBP     C194284  12.037   7.616   7.640  0.1736  0.0274 -0.4923
 2751PBP     C194285  12.303   7.967   7.947 -0.2395 -0.0729 -0.0316
 2751PBP     C194286  12.286   7.912   8.364  0.1683 -0.1971  0.2290
 2751PBP     C194287  12.444   8.184   8.721  0.1163  0.2158  0.1948
 2751PBP     C194288  12.693   8.384   9.190  0.1968 -0.0939 -0.1595
 2751PBP     CP94289  12.666   8.129   9.462  0.1231 -0.1936  0.1093
 2751PBP     CP94290  12.665   7.959   9.714 -0.4114 -0.0950 -0.0987
 2751PBP     CP94291  12.885   7.757   9.746  0.2023  0.1988 -0.1730
 2751PBP     Ch94292  12.970   7.528   9.710  0.3586  0.2620  0.3516
 2752PBP     C194293  16.332  16.096   9.755 -0.1627  0.1061  0.3452
 2752PBP     C194294  16.080  15.717   9.813 -0.4303  0.0886 -0.1697
 2752PBP     C194295  16.075  15.408  10.195  0.4938  0.0905  0.3589
 2752PBP     C194296  16.086  15.327  10.644 -0.3364 -0.1442 -0.0414
 2752PBP     C194297  15.886  15.079  10.823 -0.3090 -0.3583  0.5188
 2752PBP     C194298  15.618  14.753  10.876  0.4587 -0.1205 -0.1892
 2752PBP     C194299  15.277  14.383  10.996 -0.2578 -0.4396  0.0055
 2752PBP     C194300  14.933  14.112  10.715  0.3021  0.0029 -0.1820
 2752PBP     CP94301  14.528  14.124  10.813  0.1696 -0.4301  0.0865
 2752PBP     CP94302  14.266  13.941  10.884 -0.0730 -0.1445  0.3190
 2752PBP     CP94303  13.965  14.032  10.972 -0.4783 -0.4386 -0.0331
 2752PBP     Ch94304  13.873  14.287  11.013 -0.1196 -0.2592  0.0601
 2753PBP     C194305  14.941   8.488   7.003 -0.3124  0.1792 -0.2108
 2753PBP     C194306  14.826   8.770   7.360  0.0076  0.1754 -0.3694
 2753PBP     C194307  14.674   8.768   7.790  0.0082  0.1354  0.2069
 2753PBP     C194308  14.723   8.336   8.040 -0.2262  0.1139  0.2091
 2753PBP     C194309  14.643   8.223   8.440 -0.4700  0.0595 -0.3312
 2753PBP     C194310  14.655   8.170   8.844  0.0781  0.4436  0.1802
 2753PBP     C194311  14.604   7.847   9.140 -0.0296 -0.1529  0.3012
 2753PBP     C194312  14.588   7.508   9.311  0.3995  0.3286 -0.3208
 2753PBP     CP94313  14.461   7.162   9.540  0.2430  0.1065  0.2104
 2753PBP     CP94314  14.670   7.102   9.767 -0.1734 -0.0806  0.2933
 2753PBP     CP94315  14.780   7.290  10.069  0.2350  0.2571  0.0962
 2753PBP     Ch94316  14.724   7.276  10.278  0.0988  0.2048  0.3354
 2754PBP     C194317  11.641  13.519  17.080  0.1172 -0.1619  0.2121
 2754PBP     C194318  11.683  13.105  17.235  0.0496  0.1056  0.3819
 2754PBP     C194319  11.770  12.549  17.353  0.1885 -0.0219 -0.1275
 2754PBP     C194320  11.820  12.271  17.007  0.1489  0.0043  0.7549
 2754PBP     C194321  11.971  12.288  16.581  0.0881  0.0609  0.0502
 2754PBP     C194322  12.194  12.084  16.213 -0.1929 -0.6626 -0.0495
 2754PBP     C194323  12.480  12.069  15.919  0.0171  0.4383  0.2651
 2754PBP     C194324  12.642  12.100  15.501 -0.0282  0.0499 -0.3293
 2754PBP     CP94325  12.628  12.300  15.177 -0.0843 -0.2906 -0.1962
 2754PBP     CP94326  12.556  12.461  14.943 -0.1279 -0.2475 -0.1004
 2754PBP     CP94327  12.384  12.397  14.679 -0.0048 -0.4690  0.0227
 2754PBP     Ch94328  12.505  12.530  14.501  0.1011 -0.0230 -0.0136
 2755PBP     C194329   7.123  16.358  10.524  0.3560  0.1177 -0.1688
 2755PBP     C194330   6.711  16.409  10.435  0.0530 -0.1667  0.2750
 2755PBP     C194331   6.320  16.336  10.255  0.2627  0.0197  0.1566
 2755PBP     C194332   6.348  16.230   9.817  0.2453  0.0823 -0.1170
 2755PBP     C194333   6.415  16.256   9.383  0.1525 -0.3832 -0.4687
 2755PBP     C194334   6.071  16.238   9.111 -0.0575  0.2215 -0.0635
 2755PBP     C194335   5.860  16.077   8.796  0.3023  0.0923  0.0451
 2755PBP     C194336   6.105  15.765   8.473  0.1974  0.0413 -0.1981
 2755PBP     CP94337   6.321  15.492   8.722  0.3192 -0.1870  0.3204
 2755PBP     CP94338   6.502  15.184   8.804  0.0557  0.1507 -0.2239
 2755PBP     CP94339   6.618  14.922   8.773  0.3394  0.2528  0.1774
 2755PBP     Ch94340   6.605  14.694   8.623 -0.4387  0.1635 -0.1754
 2756PBP     C194341   6.503  11.449   6.120 -0.0480 -0.1048 -0.1147
 2756PBP     C194342   6.428  11.483   6.550  0.1949  0.0326 -0.0672
 2756PBP     C194343   6.825  11.531   6.663  0.0451  0.0398 -0.1563
 2756PBP     C194344   7.135  11.418   6.874  0.0460  0.1592 -0.5397
 2756PBP     C194345   7.536  11.496   6.914  0.0692 -0.1267  0.3367
 2756PBP     C194346   7.585  11.706   7.287 -0.1947 -0.1411 -0.1615
 2756PBP     C194347   7.559  11.718   7.652  0.1638 -0.2667  0.0361
 2756PBP     C194348   7.596  11.332   7.861 -0.2935  0.5201  0.0275
 2756PBP     CP94349   7.791  11.241   8.200 -0.2210 -0.0264  0.2526
 2756PBP     CP94350   8.028  11.426   8.284  0.0788  0.4866  0.3674
 2756PBP     CP94351   8.038  11.589   8.511 -0.0925  0.0602 -0.1666
 2756PBP     Ch94352   7.995  11.667   8.802 -0.1656  0.2635 -0.0881
 2757PBP     C194353   4.389   6.810   8.273 -0.0155  0.1504 -0.2408
 2757PBP     C194354   4.669   7.016   8.651  0.3141 -0.0285 -0.0090
 2757PBP     C194355   4.859   7.429   8.895 -0.0013  0.2307  0.1617
 2757PBP     C194356   5.193   7.764   8.939 -0.3344  0.2190  0.3743
 2757PBP     C194357   5.577   7.962   8.943 -0.0451 -0.0974 -0.0582
 2757PBP     C194358   5.761   8.016   8.732 -0.0213  0.1211  0.1717
 2757PBP     C194359   5.865   8.148   8.311  0.0858 -0.1168  0.0908
 2757PBP     C194360   6.068   7.997   8.041  0.0479 -0.1224 -0.1812
 2757PBP     CP94361   6.309   7.810   7.734 -0.2770  0.0957  0.0182
 2757PBP     CP94362   6.541   7.906   7.619 -0.6631 -0.1247 -0.0036
 2757PBP     CP94363   6.749   8.092   7.758 -0.4157 -0.3424  0.2112
 2757PBP     Ch94364   6.958   7.994   7.847 -0.3940  0.1158 -0.1163
 2758PBP     C194365  14.425   4.664   9.915 -0.2021 -0.1343  0.0957
 2758PBP     C194366  14.177   5.092   9.929  0.1412  0.0542 -0.1426
 2758PBP     C194367  14.116   5.470  10.117 -0.0841 -0.4673 -0.0607
 2758PBP     C194368  14.203   5.787   9.781  0.4722  0.2972  0.3769
 2758PBP     C194369  14.261   6.085   9.406  0.0565  0.0691 -0.2918
 2758PBP     C194370  14.529   6.590   9.460  0.1093  0.1131  0.1221
 2758PBP     C194371  14.888   6.714   9.522 -0.2470 -0.1002  0.2396
 2758PBP     C194372  15.189   7.104   9.557 -0.1623  0.0517  0.0507
 2758PBP     CP94373  15.170   7.455   9.750 -0.1562 -0.1405 -0.3953
 2758PBP     CP94374  14.930   7.645   9.787  0.0272  0.1879  0.1250
 2758PBP     CP94375  14.866   7.745  10.099 -0.3917  0.0849  0.1916
 2758PBP     Ch94376  14.927   7.709  10.402  0.2485 -0.0044 -0.0773
 2759PBP     C194377  11.257  10.152  16.146 -0.1279  0.0737  0.1323
 2759PBP     C194378  11.471   9.846  15.911  0.0141 -0.1334  0.4888
 2759PBP     C194379  11.283   9.632  15.630  0.3822 -0.2530 -0.3612
 2759PBP     C194380  11.321   9.297  15.325 -0.1974  0.0029 -0.2296
 2759PBP     C194381  11.285   8.961  15.019 -0.1641  0.5380 -0.0467
 2759PBP     C194382  11.493   8.656  14.742  0.1352  0.0981 -0.0237
 2759PBP     C194383  11.372   8.411  14.523  0.0131  0.0766  0.1216
 2759PBP     C194384  11.425   8.102  14.366  0.1129  0.2010  0.0775
 2759PBP     CP94385  11.199   7.950  14.062  0.0925  0.1787 -0.3127
 2759PBP     CP94386  11.207   7.675  13.875 -0.3160  0.1332 -0.0463
 2759PBP     CP94387  11.164   7.705  13.587  0.4490  0.2617 -0.0866
 2759PBP     Ch94388  11.214   7.804  13.373  0.3596 -0.2100 -0.1203
 2760PBP     C194389   4.968   6.504   7.565  0.2732 -0.0218 -0.2875
 2760PBP     C194390   5.473   6.418   7.548 -0.1707 -0.2540  0.1810
 2760PBP     C194391   5.737   6.081   7.553 -0.2222 -0.1100  0.0556
 2760PBP     C194392   5.483   5.607   7.486  0.0021 -0.1934 -0.0773
 2760PBP     C194393   5.472   5.258   7.800  0.0265 -0.1293 -0.3820
 2760PBP     C194394   5.560   5.301   8.207 -0.2280  0.1988 -0.1214
 2760PBP     C194395   5.998   5.346   8.319 -0.1272 -0.0384  0.2470
 2760PBP     C194396   6.194   5.607   8.651 -0.0084 -0.2208 -0.0582
 2760PBP     CP94397   6.527   5.787   8.825 -0.1522 -0.2298  0.1255
 2760PBP     CP94398   6.807   5.742   8.988 -0.1693  0.0726 -0.0112
 2760PBP     CP94399   7.131   5.842   9.053  0.1684  0.0704  0.2667
 2760PBP     Ch94400   7.356   5.839   9.118 -0.1749  0.2359  0.2397
 2761PBP     C194401  14.203  16.446  14.807 -0.3809 -0.3565 -0.0380
 2761PBP     C194402  13.956  16.114  15.158  0.1881  0.2506  0.0475
 2761PBP     C194403  13.481  15.990  15.259 -0.0458  0.0195  0.0116
 2761PBP     C194404  13.509  15.751  15.562 -0.2274 -0.2047  0.1434
 2761PBP     C194405  13.247  15.414  15.651  0.0786 -0.0450 -0.0534
 2761PBP     C194406  12.930  14.993  15.614  0.0821  0.4060 -0.1777
 2761PBP     C194407  12.545  14.680  15.790 -0.0940  0.0247 -0.2311
 2761PBP     C194408  12.105  14.450  15.749  0.1175  0.0203  0.4349
 2761PBP     CP94409  11.918  14.364  15.367  0.4662  0.4241 -0.2579
 2761PBP     CP94410  11.938  14.340  15.067 -0.5276 -0.0919 -0.3933
 2761PBP     CP94411  11.766  14.199  14.822 -0.0361  0.5173 -0.0754
 2761PBP     Ch94412  11.875  14.198  14.548  0.2436  0.3724  0.0762
 2762PBP     C194413  10.428   7.088  15.809 -0.0707 -0.0610 -0.4624
 2762PBP     C194414  10.373   7.552  15.472 -0.0064 -0.0899 -0.0522
 2762PBP     C194415  10.085   7.779  15.215 -0.3492 -0.0558  0.1895
 2762PBP     C194416  10.079   8.015  14.865  0.0106  0.3248  0.0435
 2762PBP     C194417  10.353   8.094  14.445 -0.1718 -0.0210  0.0743
 2762PBP     C194418  10.239   8.247  14.054  0.1341  0.1435 -0.0340
 2762PBP     C194419  10.277   8.771  14.018 -0.0494 -0.1150  0.1802
 2762PBP     C194420  10.435   9.016  13.686  0.2904  0.0061  0.1735
 2762PBP     CP94421  10.785   9.219  13.518 -0.1046 -0.0362  0.1006
 2762PBP     CP94422  10.943   9.525  13.540  0.0749 -0.1271 -0.2559
 2762PBP     CP94423  10.835   9.804  13.643  0.3129  0.3243  0.2183
 2762PBP     Ch94424  10.662  10.058  13.523 -0.1300  0.6600 -0.1880
 2763PBP     C194425   4.189   4.728  12.328 -0.1756  0.1877 -0.2388
 2763PBP     C194426   3.953   4.872  12.077 -0.1587 -0.0718 -0.0434
 2763PBP     C194427   3.942   5.038  11.829 -0.2079  0.0948  0.2879
 2763PBP     C194428   4.143   5.226  11.504 -0.1075 -0.0317  0.0586
 2763PBP     C194429   4.595   5.210  11.307  0.0167  0.1803 -0.1896
 2763PBP     C194430   5.110   5.190  11.010  0.0466 -0.0322  0.3475
 2763PBP     C194431   5.379   5.479  11.320  0.3088 -0.2200  0.0868
 2763PBP     C194432   5.830   5.443  11.523 -0.0754 -0.0151  0.3076
 2763PBP     CP94433   6.180   5.576  11.597  0.2032  0.2798  0.6074
 2763PBP     CP94434   6.476   5.634  11.696 -0.2937  0.0697 -0.0128
 2763PBP     CP94435   6.605   5.905  11.742  0.1216  0.4308 -0.1035
 2763PBP     Ch94436   6.793   6.035  11.921  0.5398  0.0353  0.1541
 2764PBP     C194437   8.107  18.487  11.489  0.4171 -0.0548 -0.0367
 2764PBP     C194438   8.013  18.146  11.704 -0.2071  0.1120  0.0395
 2764PBP     C194439   7.897  17.705  11.649  0.1521 -0.2075 -0.2642
 2764PBP     C194440   7.895  17.426  11.491 -0.0571 -0.2750 -0.2301
 2764PBP     C194441   8.058  16.951  11.402 -0.1171 -0.1333 -0.0483
 2764PBP     C194442   8.365  16.705  11.689  0.3069  0.0964 -0.0574
 2764PBP     C194443   8.282  16.256  11.868 -0.0553  0.0752  0.1055
 2764PBP     C194444   8.356  15.894  12.023  0.2291 -0.4428 -0.2149
 2764PBP     CP94445   8.373  15.557  12.225  0.0213  0.1985 -0.0091
 2764PBP     CP94446   8.586  15.293  12.279  0.1510 -0.1508  0.0837
 2764PBP     CP94447   8.663  14.977  12.238  0.1915  0.2535  0.2584
 2764PBP     Ch94448   8.524  14.742  12.175 -0.3760  0.2834  0.2970
 2765PBP     C194449   9.938   7.390  14.221 -0.0165 -0.3073  0.1215
 2765PBP     C194450   9.880   7.113  14.451 -0.1645  0.1205  0.0896
 2765PBP     C194451   9.604   6.727  14.503  0.0718  0.0426  0.2038
 2765PBP     C194452   9.899   6.392  14.625  0.3435  0.1777  0.2588
 2765PBP     C194453  10.253   6.259  14.438 -0.0340  0.0519  0.0711
 2765PBP     C194454  10.143   6.086  14.053 -0.1386 -0.1178 -0.1013
 2765PBP     C194455   9.884   6.106  13.744  0.0165  0.1179 -0.2415
 2765PBP     C194456   9.668   5.782  13.445 -0.1776 -0.4818  0.0719
 2765PBP     CP94457   9.547   5.817  13.023 -0.2901 -0.0351 -0.0456
 2765PBP     CP94458   9.334   5.818  12.756 -0.1373  0.3809  0.3680
 2765PBP     CP94459   9.227   6.085  12.659  0.3766  0.1399  0.0823
 2765PBP     Ch94460   9.208   6.360  12.659  0.1607  0.1776 -0.1650
 2766PBP     C194461   8.111  11.098  18.009  0.0256 -0.4365  0.2244
 2766PBP     C194462   8.074  10.789  18.387  0.1705  0.2713  0.1137
 2766PBP     C194463   8.308  10.653  18.732  0.1726 -0.2745 -0.0291
 2766PBP     C194464   8.634  10.526  18.577 -0.1628 -0.0470  0.1898
 2766PBP     C194465   8.705  10.112  18.560 -0.0807 -0.2045 -0.2081
 2766PBP     C194466   8.515   9.798  18.832  0.0589 -0.1637  0.3223
 2766PBP     C194467   8.331   9.353  18.857 -0.0921  0.3347  0.0042
 2766PBP     C194468   8.335   9.380  19.288  0.0888  0.1278  0.0310
 2766PBP     CP94469   8.302   9.486  19.582 -0.2278  0.1099 -0.2010
 2766PBP     CP94470   8.116   9.391  19.872 -0.2429 -0.7000  0.1262
 2766PBP     CP94471   7.954   9.166  20.033  0.1131 -0.0498  0.0428
 2766PBP     Ch94472   7.754   9.056  20.141 -0.0940 -0.2861 -0.3395
 2767PBP     C194473  10.306   8.616  14.498 -0.0967 -0.3211 -0.3235
 2767PBP     C194474   9.995   9.013  14.357 -0.1661  0.1161  0.1185
 2767PBP     C194475   9.897   9.446  14.505  0.1805 -0.2718 -0.0762
 2767PBP     C194476   9.864   9.868  14.300  0.0796  0.2388 -0.1906
 2767PBP     C194477   9.580  10.223  14.469 -0.0281 -0.0990 -0.0978
 2767PBP     C194478   9.378  10.561  14.487  0.2184  0.2758  0.2509
 2767PBP     C194479   9.514  10.935  14.420 -0.0848 -0.2096 -0.2242
 2767PBP     C194480   9.733  11.257  14.186  0.1566  0.2779 -0.1208
 2767PBP     CP94481   9.935  11.600  14.031  0.6670 -0.1489 -0.2079
 2767PBP     CP94482   9.941  11.919  13.937 -0.1400 -0.0063  0.2160
 2767PBP     CP94483   9.678  12.112  13.776  0.1123  0.2551 -0.2202
 2767PBP     Ch94484   9.682  12.180  13.494 -0.0821 -0.0215 -0.3086
 2768PBP     C194485  16.325   8.217   8.912  0.2243 -0.2553  0.0288
 2768PBP     C194486  15.910   8.420   8.828  0.4536 -0.3039  0.0429
 2768PBP     C194487  15.689   8.584   9.043  0.2675 -0.2630 -0.3426
 2768PBP     C194488  15.335   8.832   9.120 -0.2049  0.2659  0.1515
 2768PBP     C194489  14.756   8.620   9.047 -0.0724 -0.0521 -0.3256
 2768PBP     C194490  14.342   8.366   9.188  0.1821  0.4606 -0.2015
 2768PBP     C194491  14.079   8.131   9.440  0.0257  0.1823 -0.3465
 2768PBP     C194492  14.154   7.710   9.641 -0.2717 -0.4185  0.2437
 2768PBP     CP94493  14.309   7.482   9.925 -0.0270  0.7108 -0.1983
 2768PBP     CP94494  14.328   7.180  10.106 -0.4123  0.0089 -0.1707
 2768PBP     CP94495  14.409   6.878  10.051  0.0195 -0.1495  0.0213
 2768PBP     Ch94496  14.646   6.767  10.102  0.2239  0.2834 -0.2035
 2769PBP     C194497  10.443  14.511   6.930  0.4302 -0.0569  0.2211
 2769PBP     C194498  10.357  14.410   7.446  0.0492  0.3118  0.1326
 2769PBP     C194499  10.177  13.982   7.591 -0.2807 -0.4023 -0.3973
 2769PBP     C194500  10.013  13.858   7.977  0.1281  0.1791 -0.3235
 2769PBP     C194501  10.081  13.648   8.396  0.0757  0.1158 -0.4752
 2769PBP     C194502  10.396  13.568   8.776  0.2958  0.0020 -0.3665
 2769PBP     C194503  10.475  13.243   9.172  0.4381  0.3384  0.2699
 2769PBP     C194504  10.632  12.795   9.225  0.4757  0.1215 -0.1977
 2769PBP     CP94505  10.900  12.567   9.420  0.4150 -0.1285  0.3205
 2769PBP     CP94506  11.160  12.550   9.517  0.0652 -0.4106 -0.4227
 2769PBP     CP94507  11.360  12.714   9.708  0.0547  0.2467  0.5399
 2769PBP     Ch94508  11.326  12.762   9.993  0.3491  0.0660 -0.1316
 2770PBP     C194509   5.166   4.050  11.170 -0.1642 -0.0123  0.1764
 2770PBP     C194510   5.594   4.066  11.553  0.2546  0.2914 -0.0243
 2770PBP     C194511   5.865   4.141  11.871  0.0827 -0.1768  0.0457
 2770PBP     C194512   5.677   4.167  12.278  0.0411  0.1677 -0.2990
 2770PBP     C194513   5.999   4.225  12.405  0.1441  0.1412 -0.3362
 2770PBP     C194514   6.099   4.556  12.124  0.2966  0.2608 -0.0725
 2770PBP     C194515   6.258   4.996  12.209 -0.0750 -0.2141  0.0796
 2770PBP     C194516   6.531   5.274  12.293 -0.2838  0.1138 -0.1504
 2770PBP     CP94517   6.830   5.447  12.187  0.2408  0.0177 -0.1982
 2770PBP     CP94518   7.077   5.632  12.293 -0.2403 -0.5435 -0.3073
 2770PBP     CP94519   7.330   5.776  12.209  0.1194  0.3139 -0.5833
 2770PBP     Ch94520   7.513   5.776  11.985  0.3192 -0.1733  0.0203
 2771PBP     C194521  10.687   8.372   7.037  0.3311 -0.1305  0.0336
 2771PBP     C194522  10.547   7.984   7.302 -0.4338  0.2943 -0.3260
 2771PBP     C194523  10.818   8.055   7.636 -0.2322  0.0231 -0.0317
 2771PBP     C194524  11.218   7.752   7.670  0.3413  0.0144 -0.0049
 2771PBP     C194525  11.632   7.801   8.041 -0.0006 -0.2152 -0.1039
 2771PBP     C194526  11.838   7.801   8.383 -0.1650 -0.0549  0.4005
 2771PBP     C194527  11.950   8.191   8.738 -0.0624 -0.0030  0.0694
 2771PBP     C194528  11.926   8.369   9.193 -0.2458  0.4049  0.2660
 2771PBP     CP94529  11.690   8.561   9.432 -0.1189  0.0965 -0.0419
 2771PBP     CP94530  11.566   8.855   9.435 -0.4321 -0.1974 -0.2949
 2771PBP     CP94531  11.596   9.158   9.516 -0.1954 -0.1176  0.1750
 2771PBP     Ch94532  11.755   9.311   9.640 -0.3512  0.2472  0.0563
 2772PBP     C194533   8.691  11.816  16.307  0.0490 -0.1257 -0.4259
 2772PBP     C194534   8.729  11.533  16.061 -0.0720  0.3145 -0.0880
 2772PBP     C194535   8.720  11.446  15.672  0.3587 -0.2906  0.2890
 2772PBP     C194536   8.976  11.803  15.352 -0.5777 -0.0872  0.0396
 2772PBP     C194537   8.770  11.685  14.984 -0.2102  0.0245 -0.1427
 2772PBP     C194538   8.454  11.674  14.744 -0.0313 -0.0153 -0.0134
 2772PBP     C194539   8.251  11.679  14.367  0.3235 -0.0107  0.1858
 2772PBP     C194540   8.135  11.908  13.886 -0.4941  0.3110 -0.0890
 2772PBP     CP94541   7.989  12.024  13.586 -0.1733  0.0030 -0.2189
 2772PBP     CP94542   7.738  12.015  13.464 -0.1300 -0.2291  0.1211
 2772PBP     CP94543   7.667  12.073  13.151  0.0023  0.3098  0.0279
 2772PBP     Ch94544   7.682  11.944  12.898  0.0772 -0.0175 -0.0493
 2773PBP     C194545   9.999  16.033  14.382  0.0340  0.2041  0.0428
 2773PBP     C194546   9.669  15.695  14.309  0.3183 -0.1593  0.1013
 2773PBP     C194547   9.375  15.386  14.459  0.2178  0.3515 -0.4623
 2773PBP     C194548   8.859  15.444  14.657 -0.3527 -0.4405 -0.2254
 2773PBP     C194549   8.389  15.588  14.689  0.1175 -0.2407 -0.7840
 2773PBP     C194550   8.200  15.520  14.356  0.1277 -0.1141 -0.1623
 2773PBP     C194551   8.448  15.500  13.884  0.1094  0.2271  0.0912
 2773PBP     C194552   8.579  15.575  13.481  0.0060 -0.1894  0.1469
 2773PBP     CP94553   8.690  15.768  13.154 -0.0352 -0.1873 -0.0140
 2773PBP     CP94554   8.667  15.877  12.850  0.1804 -0.6439 -0.1901
 2773PBP     CP94555   8.675  15.847  12.570  0.0032  0.0177  0.4235
 2773PBP     Ch94556   8.829  15.593  12.442  0.2651 -0.3782 -0.1233
 2774PBP     C194557  10.154   4.683  10.554 -0.2141  0.2235 -0.2313
 2774PBP     C194558   9.965   4.355  10.247  0.1538 -0.0418 -0.1126
 2774PBP     C194559  10.143   4.072  10.091 -0.6287  0.3089 -0.2773
 2774PBP     C194560  10.331   3.791   9.596  0.2316 -0.2460  0.1347
 2774PBP     C194561  10.230   3.961   9.236  0.0617  0.2417 -0.0646
 2774PBP     C194562  10.153   4.365   9.122  0.0114 -0.3650 -0.1398
 2774PBP     C194563   9.809   4.633   9.428 -0.0494  0.2415  0.1467
 2774PBP     C194564   9.964   4.913   9.609  0.0680 -0.0613  0.4652
 2774PBP     CP94565   9.847   5.276   9.791 -0.6131 -0.0789 -0.1012
 2774PBP     CP94566   9.653   5.560   9.779  0.1705  0.0584 -0.3801
 2774PBP     CP94567   9.789   5.900   9.859  0.0299  0.5674 -0.0209
 2774PBP     Ch94568   9.898   6.076   9.940  0.5354  0.3173 -0.2022
 2775PBP     C194569   4.206   5.597  11.137  0.0781  0.0258 -0.1270
 2775PBP     C194570   4.613   5.716  11.309 -0.1589  0.2626  0.1336
 2775PBP     C194571   4.946   5.829  11.065 -0.0766 -0.0627 -0.0420
 2775PBP     C194572   5.288   6.064  11.175  0.0851  0.2422  0.2223
 2775PBP     C194573   5.518   5.919  11.555 -0.1407 -0.0040  0.0680
 2775PBP     C194574   5.705   5.811  11.965  0.3625  0.1714 -0.2978
 2775PBP     C194575   5.982   5.378  12.022  0.3157  0.1532 -0.1628
 2775PBP     C194576   5.886   4.977  11.861  0.2125  0.0307  0.0061
 2775PBP     CP94577   6.089   5.033  11.547 -0.0002  0.2994  0.0082
 2775PBP     CP94578   6.357   5.176  11.646  0.0035  0.1003 -0.0347
 2775PBP     CP94579   6.611   5.179  11.824 -0.2261 -0.0818  0.4895
 2775PBP     Ch94580   6.841   5.249  11.719  0.0663 -0.3138  0.4686
 2776PBP     C194581   9.392  18.935  11.106 -0.1992  0.4149  0.1020
 2776PBP     C194582   9.676  18.563  11.152 -0.2097 -0.3411  0.0947
 2776PBP     C194583   9.861  18.255  11.305 -0.0009  0.1559 -0.0037
 2776PBP     C194584  10.056  18.002  11.636  0.3407  0.0125 -0.3716
 2776PBP     C194585  10.252  17.616  11.720 -0.1297  0.0471 -0.0184
 2776PBP     C194586  10.393  17.308  12.082 -0.2727  0.0840  0.3612
 2776PBP     C194587  10.347  16.883  12.132  0.1942  0.1716 -0.2066
 2776PBP     C194588  10.037  16.543  11.947  0.3632 -0.0169  0.3520
 2776PBP     CP94589   9.999  16.177  12.037 -0.0427  0.1239 -0.5215
 2776PBP     CP94590  10.030  16.131  12.326  0.5093 -0.0090 -0.1701
 2776PBP     CP94591   9.863  15.903  12.534  0.3051 -0.1998 -0.0363
 2776PBP     Ch94592   9.873  15.758  12.746 -0.3955 -0.2069  0.4851
 2777PBP     C194593  12.208  13.163   8.274  0.0331 -0.1714 -0.0418
 2777PBP     C194594  12.554  13.063   8.588 -0.0376 -0.3246  0.1195
 2777PBP     C194595  12.661  12.930   9.057 -0.0783 -0.4488  0.3089
 2777PBP     C194596  12.529  12.880   9.424 -0.1591  0.2224 -0.1420
 2777PBP     C194597  12.337  13.090   9.677  0.6561  0.3897  0.7099
 2777PBP     C194598  12.456  13.392   9.747 -0.1448  0.0336  0.0298
 2777PBP     C194599  12.229  13.737   9.873 -0.2138  0.4566 -0.2302
 2777PBP     C194600  11.898  14.125   9.961  0.1110  0.1954  0.1114
 2777PBP     CP94601  11.842  14.317  10.281  0.3251  0.3959  0.0005
 2777PBP     CP94602  11.630  14.547  10.280 -0.1972 -0.7791  0.0917
 2777PBP     CP94603  11.720  14.827  10.322  0.2540 -0.1324  0.1227
 2777PBP     Ch94604  11.763  15.092  10.436 -0.2790  0.4305 -0.0110
 2778PBP     C194605  15.691  15.794  15.966 -0.0466 -0.0869 -0.1738
 2778PBP     C194606  15.626  15.547  15.648  0.2640  0.4421  0.0955
 2778PBP     C194607  15.601  15.175  15.466  0.1991 -0.0368 -0.1336
 2778PBP     C194608  15.816  14.868  15.371  0.1803  0.1487 -0.1792
 2778PBP     C194609  15.844  14.773  15.010 -0.1359 -0.2564  0.6508
 2778PBP     C194610  15.571  14.791  14.534 -0.1598 -0.2658  0.1520
 2778PBP     C194611  15.291  14.834  14.221 -0.0654 -0.2894 -0.2956
 2778PBP     C194612  14.913  14.879  14.141 -0.0883  0.0101  0.2649
 2778PBP     CP94613  14.508  14.765  14.194 -0.2735 -0.4784  0.0503
 2778PBP     CP94614  14.199  14.652  14.077 -0.0961 -0.2180  0.0843
 2778PBP     CP94615  13.974  14.805  13.966 -0.4856 -0.0780 -0.5992
 2778PBP     Ch94616  13.826  15.006  13.961  0.1204  0.4013  0.4672
 2779PBP     C194617  17.021  12.949  12.950  0.1667  0.1363 -0.1856
 2779PBP     C194618  16.613  13.269  12.999  0.2138 -0.0549  0.2852
 2779PBP     C194619  16.249  13.437  12.957  0.0167  0.2474  0.2175
 2779PBP     C194620  16.065  13.764  13.200 -0.4116 -0.4099  0.2411
 2779PBP     C194621  16.109  14.220  13.199  0.1599  0.1910  0.4146
 2779PBP     C194622  15.867  14.591  13.146  0.3379  0.0260 -0.1838
 2779PBP     C194623  15.661  15.069  12.846  0.2191  0.1300 -0.1642
 2779PBP     C194624  15.208  15.129  12.795 -0.0732  0.2946 -0.4380
 2779PBP     CP94625  14.825  15.036  12.863 -0.0510  0.2176 -0.3225
 2779PBP     CP94626  14.488  14.980  12.757  0.2762  0.2131  0.3647
 2779PBP     CP94627  14.194  15.058  12.656  0.1450  0.0536  0.1557
 2779PBP     Ch94628  13.935  15.039  12.546  0.0833  0.0854  0.1239
 2780PBP     C194629   8.297  13.624   5.991  0.1592  0.1200  0.1610
 2780PBP     C194630   8.210  13.312   6.379  0.2417 -0.0507  0.3165
 2780PBP     C194631   8.090  12.997   6.763  0.2680 -0.0872  0.1725
 2780PBP     C194632   8.080  12.538   6.808 -0.2499 -0.4519 -0.0666
 2780PBP     C194633   8.075  12.117   6.647  0.0164  0.0700  0.2913
 2780PBP     C194634   7.895  11.877   6.999 -0.0100 -0.4689  0.3744
 2780PBP     C194635   8.050  11.658   7.445  0.0977  0.0848  0.0352
 2780PBP     C194636   8.151  11.548   7.854  0.0611 -0.0598 -0.2111
 2780PBP     CP94637   8.486  11.516   8.045 -0.2501 -0.0748 -0.2234
 2780PBP     CP94638   8.514  11.312   8.293  0.2272 -0.3375  0.2129
 2780PBP     CP94639   8.325  11.190   8.483  0.4515 -0.1615  0.3194
 2780PBP     Ch94640   8.253  11.281   8.744  0.4295  0.1719  0.0941
 2781PBP     C194641   4.724   5.171  13.729  0.3360 -0.0722 -0.4359
 2781PBP     C194642   5.187   5.429  13.563 -0.5344 -0.0045  0.0193
 2781PBP     C194643   5.467   5.454  13.173 -0.5839  0.0461 -0.0869
 2781PBP     C194644   5.463   5.306  12.770  0.0276 -0.1574  0.2262
 2781PBP     C194645   5.605   5.367  12.357 -0.1674  0.3199  0.4828
 2781PBP     C194646   5.478   5.294  11.913 -0.0841  0.3475 -0.1821
 2781PBP     C194647   5.497   5.053  11.518  0.4970 -0.0746  0.0115
 2781PBP     C194648   5.770   4.637  11.459 -0.1772 -0.3577 -0.2560
 2781PBP     CP94649   6.149   4.605  11.439  0.2497  0.3958 -0.0947
 2781PBP     CP94650   6.358   4.328  11.459 -0.1092  0.3833 -0.1221
 2781PBP     CP94651   6.617   4.273  11.555 -0.1056 -0.1823  0.1367
 2781PBP     Ch94652   6.679   4.015  11.588  0.1813 -0.2034 -0.1308
 2782PBP     C194653   8.573   9.664  14.225 -0.3127  0.0033  0.5590
 2782PBP     C194654   8.233   9.397  13.882  0.0559  0.2358 -0.0497
 2782PBP     C194655   7.837   9.369  13.807  0.0660 -0.0936 -0.1393
 2782PBP     C194656   7.450   9.142  13.715  0.2388 -0.1584  0.3338
 2782PBP     C194657   7.369   8.586  13.820 -0.1012 -0.0237  0.0406
 2782PBP     C194658   7.329   8.410  13.445 -0.1367 -0.0356 -0.0472
 2782PBP     C194659   7.260   8.548  13.005  0.0627 -0.1076  0.2826
 2782PBP     C194660   7.221   8.979  12.845  0.4791 -0.1094 -0.0117
 2782PBP     CP94661   7.280   9.373  12.856  0.3275 -0.2032 -0.2106
 2782PBP     CP94662   7.618   9.364  12.960 -0.0523 -0.1905 -0.1855
 2782PBP     CP94663   7.867   9.313  12.791  0.0897 -0.3277 -0.4732
 2782PBP     Ch94664   8.093   9.335  12.615  0.5061  0.0616 -0.3649
 2783PBP     C194665   4.708   7.284  11.828  0.0878  0.2380  0.0284
 2783PBP     C194666   4.560   7.148  11.472  0.0504  0.2450  0.4929
 2783PBP     C194667   4.513   7.279  11.042  0.0965 -0.0598  0.0207
 2783PBP     C194668   4.393   7.379  10.563 -0.3139  0.0301  0.0659
 2783PBP     C194669   4.594   7.655  10.159 -0.2219  0.1071  0.0036
 2783PBP     C194670   5.088   7.887  10.208  0.0287  0.0260  0.0066
 2783PBP     C194671   5.445   8.086  10.429 -0.1651  0.1951  0.5084
 2783PBP     C194672   5.652   8.479  10.507 -0.0020 -0.2240  0.0178
 2783PBP     CP94673   6.019   8.605  10.500 -0.0141 -0.4721  0.0569
 2783PBP     CP94674   6.382   8.597  10.620 -0.7697  0.0648 -0.2303
 2783PBP     CP94675   6.613   8.802  10.725 -0.4387  0.1530 -0.0923
 2783PBP     Ch94676   6.635   9.095  10.791  0.3247 -0.1216 -0.0920
 2784PBP     C194677  11.829   3.901  10.686  0.0280 -0.3485  0.0234
 2784PBP     C194678  12.070   3.918  11.092 -0.1397  0.1752  0.2724
 2784PBP     C194679  12.151   4.320  11.177 -0.0190  0.1725 -0.2431
 2784PBP     C194680  12.211   4.573  11.521  0.2202 -0.1479  0.0935
 2784PBP     C194681  12.400   4.447  11.946 -0.0266 -0.1207  0.1235
 2784PBP     C194682  12.880   4.409  12.124  0.0392 -0.1848 -0.1695
 2784PBP     C194683  13.274   4.421  12.342 -0.0385  0.1377  0.2788
 2784PBP     C194684  13.395   4.941  12.491  0.1692 -0.2424 -0.0814
 2784PBP     CP94685  13.380   5.315  12.387 -0.1086 -0.0149 -0.0891
 2784PBP     CP94686  13.211   5.576  12.442 -0.3582  0.0879 -0.1773
 2784PBP     CP94687  13.277   5.914  12.419 -0.4094 -0.3380  0.1140
 2784PBP     Ch94688  13.430   6.108  12.481  0.3279 -0.3279  0.7550
 2785PBP     C194689  10.706   5.821  15.182  0.1848  0.4307  0.0303
 2785PBP     C194690  10.486   5.680  14.850 -0.5009 -0.0930 -0.1367
 2785PBP     C194691  10.024   5.720  14.687  0.0166 -0.0532  0.1813
 2785PBP     C194692   9.852   5.871  14.379  0.0998 -0.2266 -0.0591
 2785PBP     C194693   9.606   5.763  13.996 -0.2875  0.0646 -0.1555
 2785PBP     C194694   9.236   5.705  13.843  0.2087 -0.3135  0.0355
 2785PBP     C194695   9.019   5.930  13.596  0.0185 -0.2134  0.0503
 2785PBP     C194696   8.975   5.880  13.245 -0.3714 -0.0542 -0.1916
 2785PBP     CP94697   8.811   6.019  12.889 -0.0517  0.5014  0.0746
 2785PBP     CP94698   8.512   5.866  12.794 -0.5854  0.0719  0.1355
 2785PBP     CP94699   8.384   5.762  12.483  0.0336 -0.1206 -0.1310
 2785PBP     Ch94700   8.442   5.846  12.244 -0.0662  0.0432 -0.0675
 2786PBP     C194701   6.077   6.142  14.857 -0.0454 -0.1251  0.1214
 2786PBP     C194702   5.959   6.187  14.414 -0.0950 -0.1049 -0.1470
 2786PBP     C194703   5.890   6.078  14.040  0.1254  0.0112  0.0179
 2786PBP     C194704   5.970   6.209  13.672  0.0475 -0.0659  0.0173
 2786PBP     C194705   6.316   6.400  13.322 -0.0066  0.0350 -0.2946
 2786PBP     C194706   6.664   6.299  13.194  0.6767  0.0484 -0.3094
 2786PBP     C194707   7.023   6.295  13.097 -0.3490  0.1179 -0.2473
 2786PBP     C194708   7.341   6.423  12.723 -0.0755  0.3633 -0.2878
 2786PBP     CP94709   7.460   6.741  12.509 -0.5657 -0.0474  0.0560
 2786PBP     CP94710   7.238   6.986  12.466 -0.1508  0.0685 -0.2362
 2786PBP     CP94711   7.028   7.023  12.220 -0.1280  0.1615  0.3633
 2786PBP     Ch94712   7.092   7.036  11.972  0.0155  0.2393  0.2303
 2787PBP     C194713  12.877  16.915  10.555 -0.1022 -0.0003  0.3405
 2787PBP     C194714  13.196  17.071  10.682 -0.2825  0.3123 -0.0664
 2787PBP     C194715  13.114  17.358  10.940  0.1059  0.2615 -0.1848
 2787PBP     C194716  12.963  17.404  11.356 -0.2641  0.0014 -0.0102
 2787PBP     C194717  12.699  17.220  11.703 -0.0985 -0.0260  0.1094
 2787PBP     C194718  12.257  16.972  11.810 -0.0096  0.0036 -0.1136
 2787PBP     C194719  12.159  16.601  11.747 -0.2003 -0.0024 -0.3517
 2787PBP     C194720  11.934  16.269  12.047 -0.3204  0.1480 -0.1064
 2787PBP     CP94721  11.813  15.909  11.944  0.2731  0.0576 -0.2996
 2787PBP     CP94722  11.900  15.634  11.955 -0.3609 -0.2145 -0.4493
 2787PBP     CP94723  12.114  15.374  12.007  0.1420 -0.1260 -0.1657
 2787PBP     Ch94724  12.178  15.145  11.995  0.3789 -0.1825  0.4207
 2788PBP     C194725  15.759   8.946   8.632  0.2604 -0.0153 -0.0320
 2788PBP     C194726  15.671   8.489   8.402  0.1028  0.1804  0.0815
 2788PBP     C194727  15.565   8.072   8.546  0.1103 -0.0501  0.1254
 2788PBP     C194728  15.556   7.652   8.741 -0.1572  0.4840 -0.2426
 2788PBP     C194729  15.612   7.609   9.108 -0.1148  0.2458  0.0465
 2788PBP     C194730  15.559   8.093   9.160  0.0568  0.1569  0.2561
 2788PBP     C194731  15.363   8.437   9.529  0.2049 -0.0931  0.2767
 2788PBP     C194732  15.011   8.649   9.548  0.0617 -0.2438 -0.0130
 2788PBP     CP94733  14.874   8.882   9.829  0.1092 -0.1860  0.2299
 2788PBP     CP94734  14.662   8.871  10.018 -0.2765  0.1693  0.0777
 2788PBP     CP94735  14.541   9.029  10.225 -0.0826  0.2619 -0.3210
 2788PBP     Ch94736  14.450   9.036  10.487  0.2228 -0.0055 -0.1139
 2789PBP     C194737   8.044  15.931   7.361 -0.3006  0.2110  0.2189
 2789PBP     C194738   7.896  16.027   7.757  0.1600 -0.2601 -0.0528
 2789PBP     C194739   7.657  15.907   8.148  0.0150 -0.4090  0.0875
 2789PBP     C194740   7.270  15.730   8.312 -0.1187  0.0267  0.0669
 2789PBP     C194741   6.785  15.686   8.265 -0.0331 -0.1947  0.0204
 2789PBP     C194742   6.901  15.371   7.915 -0.1899  0.3461  0.2015
 2789PBP     C194743   7.117  14.913   7.970  0.5410  0.1698 -0.2679
 2789PBP     C194744   7.438  14.932   8.250  0.0176  0.1897 -0.0873
 2789PBP     CP94745   7.622  14.941   8.550 -0.1957  0.6667 -0.0666
 2789PBP     CP94746   7.892  14.916   8.735 -0.3155 -0.2533  0.2856
 2789PBP     CP94747   7.989  14.808   8.995 -0.0504  0.0522  0.4009
 2789PBP     Ch94748   7.860  14.721   9.175 -0.4089  0.2423 -0.5325
 2790PBP     C194749   9.233   9.780  15.724 -0.1587 -0.3631 -0.2143
 2790PBP     C194750   9.116  10.084  15.372  0.5016 -0.3294 -0.5136
 2790PBP     C194751   8.888  10.512  14.963  0.2754 -0.0464  0.0418
 2790PBP     C194752   8.576  10.807  14.888 -0.1120  0.3558  0.2111
 2790PBP     C194753   8.495  11.168  14.737  0.1012 -0.0032  0.1836
 2790PBP     C194754   8.685  11.314  14.410 -0.1637 -0.2607 -0.5450
 2790PBP     C194755   8.881  11.523  14.143 -0.3056  0.2315 -0.0140
 2790PBP     C194756   8.699  11.822  13.927  0.0635 -0.2123 -0.1635
 2790PBP     CP94757   8.766  12.070  13.629  0.2463 -0.1752 -0.5009
 2790PBP     CP94758   8.590  12.143  13.388 -0.5445  0.1493 -0.2794
 2790PBP     CP94759   8.349  12.343  13.347  0.1549  0.1041  0.4814
 2790PBP     Ch94760   8.387  12.478  13.173  0.2148 -0.0297  0.5265
 2791PBP     C194761   8.730   8.416  13.163  0.2609 -0.4409 -0.0287
 2791PBP     C194762   8.653   7.986  13.164 -0.0011 -0.1920  0.2748
 2791PBP     C194763   8.631   7.544  13.085 -0.0977 -0.1815 -0.2203
 2791PBP     C194764   8.421   7.319  13.394  0.0544  0.0335  0.2117
 2791PBP     C194765   8.785   7.129  13.816  0.1979  0.0700 -0.4837
 2791PBP     C194766   9.097   7.119  13.892  0.1951  0.0069  0.1551
 2791PBP     C194767   9.578   7.187  13.797 -0.3550  0.5204  0.0851
 2791PBP     C194768   9.877   7.164  13.398  0.2851  0.0369 -0.1020
 2791PBP     CP94769  10.149   7.199  13.089  0.2764 -0.4004  0.1634
 2791PBP     CP94770  10.481   7.261  13.049  0.0856 -0.2977 -0.0846
 2791PBP     CP94771  10.729   7.350  13.200 -0.4746 -0.5518 -0.3929
 2791PBP     Ch94772  11.026   7.412  13.205 -0.3689  0.0203  0.1817
 2792PBP     C194773   6.315  17.417  10.049 -0.1320  0.0411  0.0065
 2792PBP     C194774   6.676  17.208  10.153  0.1837 -0.5942 -0.4749
 2792PBP     C194775   6.567  16.881  10.438  0.1610  0.2415 -0.1136
 2792PBP     C194776   6.322  16.647  10.726 -0.1631  0.2404  0.3359
 2792PBP     C194777   6.239  16.478  11.157  0.0788 -0.1400 -0.4262
 2792PBP     C194778   6.175  16.113  11.310  0.1483  0.0614 -0.1173
 2792PBP     C194779   5.996  15.689  11.174 -0.1365  0.0368 -0.1936
 2792PBP     C194780   5.763  15.472  11.554  0.0771  0.0476  0.3979
 2792PBP     CP94781   5.722  15.121  11.376  0.0796  0.2700  0.1727
 2792PBP     CP94782   5.654  14.802  11.335  0.3208 -0.3432  0.5883
 2792PBP     CP94783   5.893  14.562  11.378  0.1063 -0.0887 -0.1998
 2792PBP     Ch94784   5.961  14.313  11.329  0.0243 -0.1388 -0.5207
 2793PBP     C194785  10.246   3.988  11.526  0.0821 -0.3184 -0.2284
 2793PBP     C194786  10.245   3.869  11.959  0.3936 -0.1500  0.0076
 2793PBP     C194787  10.452   3.835  12.408  0.3548  0.0267  0.4906
 2793PBP     C194788  10.411   3.839  12.766 -0.0416  0.1841  0.0032
 2793PBP     C194789  10.685   3.883  13.042  0.0605 -0.1718 -0.2196
 2793PBP     C194790  11.014   4.000  13.443  0.0573 -0.1576  0.0535
 2793PBP     C194791  11.469   4.162  13.270  0.0927  0.0030 -0.2552
 2793PBP     C194792  11.570   4.469  12.967 -0.3432 -0.2511  0.0028
 2793PBP     CP94793  11.389   4.494  12.577  0.0340 -0.2536  0.0097
 2793PBP     CP94794  11.258   4.457  12.276 -0.0423  0.0701 -0.7049
 2793PBP     CP94795  11.407   4.532  11.999 -0.0118 -0.0146  0.1411
 2793PBP     Ch94796  11.437   4.785  11.948  0.0792 -0.3912 -0.1032
 2794PBP     C194797  15.316  10.776   8.166  0.2517  0.1806  0.1601
 2794PBP     C194798  14.993  10.619   8.250 -0.0112 -0.1832  0.1114
 2794PBP     C194799  14.510  10.576   8.187 -0.1949 -0.1537 -0.1203
 2794PBP     C194800  14.257  10.453   8.359  0.1574  0.1850 -0.2689
 2794PBP     C194801  13.827  10.454   8.600  0.0490 -0.2557 -0.2238
 2794PBP     C194802  13.599  10.319   9.048  0.2779 -0.3752 -0.3652
 2794PBP     C194803  13.468  10.191   9.276 -0.0167 -0.2857  0.0103
 2794PBP     C194804  13.239  10.373   9.599  0.2444 -0.2999 -0.0690
 2794PBP     CP94805  12.991  10.650   9.749 -0.0787  0.0770 -0.2938
 2794PBP     CP94806  12.677  10.776   9.789  0.1911 -0.4604 -0.1194
 2794PBP     CP94807  12.383  10.696   9.820 -0.0044 -0.1230 -0.4917
 2794PBP     Ch94808  12.226  10.601  10.002 -0.2047  0.0367 -0.0171
 2795PBP     C194809  14.542  10.779  16.502  0.1983 -0.1090 -0.0429
 2795PBP     C194810  14.281  11.031  16.605  0.4895 -0.0414 -0.0620
 2795PBP     C194811  13.973  11.119  16.414  0.0284 -0.1464  0.2514
 2795PBP     C194812  13.519  11.242  16.064  0.0068  0.1098  0.0640
 2795PBP     C194813  13.340  11.056  15.744  0.2468  0.3961  0.2664
 2795PBP     C194814  12.858  11.130  15.405 -0.0602 -0.0791 -0.0552
 2795PBP     C194815  12.537  11.426  15.289  0.2488  0.0560 -0.0832
 2795PBP     C194816  12.529  11.667  14.918  0.1501  0.4527 -0.3779
 2795PBP     CP94817  12.782  11.566  14.607  0.3622 -0.0818 -0.0523
 2795PBP     CP94818  13.121  11.596  14.568  0.5924  0.3919  0.4316
 2795PBP     CP94819  13.337  11.644  14.778 -0.1269  0.0135  0.0034
 2795PBP     Ch94820  13.606  11.580  14.869 -0.4245 -0.0036  0.0396
 2796PBP     C194821   5.921   9.265   7.362 -0.1674  0.1092 -0.0741
 2796PBP     C194822   6.197   9.551   7.278  0.1213  0.0984  0.0033
 2796PBP     C194823   6.296   9.945   7.169 -0.3550 -0.6196 -0.0776
 2796PBP     C194824   6.438  10.271   6.993  0.0768  0.0626  0.2061
 2796PBP     C194825   6.777  10.529   7.313 -0.1892 -0.2953 -0.1688
 2796PBP     C194826   6.791  10.870   7.601 -0.7052 -0.2242  0.2420
 2796PBP     C194827   6.924  11.276   7.688 -0.2187  0.0675  0.1942
 2796PBP     C194828   7.164  11.542   7.919  0.0811 -0.1385  0.0024
 2796PBP     CP94829   7.451  11.695   8.160 -0.1259 -0.1896  0.4898
 2796PBP     CP94830   7.504  11.616   8.401 -0.3527 -0.2962  0.4650
 2796PBP     CP94831   7.607  11.733   8.627  0.0678  0.3283 -0.1057
 2796PBP     Ch94832   7.652  11.967   8.711 -0.4293  0.3336 -0.0057
 2797PBP     C194833   8.382   7.041  15.382 -0.2228 -0.0933 -0.2596
 2797PBP     C194834   8.511   6.748  15.050  0.0476  0.0275  0.4423
 2797PBP     C194835   8.716   6.611  14.735 -0.1725 -0.1492  0.3336
 2797PBP     C194836   9.015   6.523  14.380  0.2322  0.0752 -0.0619
 2797PBP     C194837   9.218   6.677  14.120  0.4398  0.0026  0.0783
 2797PBP     C194838   9.473   6.709  13.789  0.2380 -0.0779 -0.0642
 2797PBP     C194839   9.780   6.687  13.654  0.1500 -0.4323  0.0659
 2797PBP     C194840  10.096   6.554  13.330 -0.5314  0.5397 -0.2187
 2797PBP     CP94841  10.356   6.657  13.007 -0.1325 -0.3988  0.0237
 2797PBP     CP94842  10.568   6.465  12.954  0.2291 -0.3174 -0.1198
 2797PBP     CP94843  10.791   6.373  13.127 -0.0020 -0.2958 -0.1454
 2797PBP     Ch94844  11.084   6.448  13.103  0.1606 -0.3765  0.4028
 2798PBP     C194845   8.412   7.933  15.174  0.2127  0.4871  0.2798
 2798PBP     C194846   8.660   7.774  14.999 -0.1065 -0.0083  0.0246
 2798PBP     C194847   8.798   7.527  14.576 -0.3876  0.1701 -0.0393
 2798PBP     C194848   8.951   7.656  14.243  0.2078  0.0621 -0.3792
 2798PBP     C194849   8.907   7.984  14.000  0.0833  0.1502 -0.1891
 2798PBP     C194850   8.886   8.230  13.669 -0.0530 -0.1575 -0.3130
 2798PBP     C194851   9.075   8.482  13.597 -0.2030  0.1289  0.2642
 2798PBP     C194852   9.478   8.521  13.364 -0.8102  0.3184  0.4844
 2798PBP     CP94853   9.814   8.371  13.155 -0.0497  0.2220  0.0105
 2798PBP     CP94854   9.887   8.068  13.002  0.5450 -0.0462  0.0992
 2798PBP     CP94855  10.063   7.846  13.067 -0.0908 -0.1453 -0.4487
 2798PBP     Ch94856  10.280   7.662  13.110  0.0722 -0.7480  0.0301
 2799PBP     C194857  14.741   5.367   8.028 -0.2225 -0.0120  0.0146
 2799PBP     C194858  14.645   5.721   8.186  0.3223 -0.1258  0.1413
 2799PBP     C194859  14.317   6.063   8.279  0.0698  0.2063 -0.1756
 2799PBP     C194860  14.024   6.358   8.474  0.2356  0.3410  0.2480
 2799PBP     C194861  13.759   6.148   8.650 -0.1446 -0.0435  0.0790
 2799PBP     C194862  13.469   5.922   8.553 -0.1540 -0.2650 -0.2073
 2799PBP     C194863  13.223   5.758   8.906 -0.1599  0.0779  0.0341
 2799PBP     C194864  12.918   5.834   9.166 -0.1986 -0.3764  0.0643
 2799PBP     CP94865  12.915   6.100   9.456 -0.2537  0.2127 -0.5243
 2799PBP     CP94866  12.925   6.360   9.291 -0.0318 -0.3803  0.3578
 2799PBP     CP94867  13.077   6.632   9.402 -0.2658 -0.2266  0.1953
 2799PBP     Ch94868  13.000   6.666   9.673 -0.3157  0.2522  0.1469
 2800PBP     C194869   7.209   9.603  14.702 -0.2873  0.1981  0.0060
 2800PBP     C194870   7.143   9.509  14.362 -0.1621  0.1071  0.3483
 2800PBP     C194871   6.985   9.260  14.188 -0.1860 -0.1605 -0.1489
 2800PBP     C194872   7.029   8.972  13.905  0.3301  0.2228  0.0133
 2800PBP     C194873   7.033   8.821  13.503 -0.0547 -0.1020  0.0059
 2800PBP     C194874   6.760   8.559  13.390 -0.1817  0.1701 -0.2241
 2800PBP     C194875   6.716   8.861  13.111 -0.1544 -0.2099 -0.3336
 2800PBP     C194876   6.731   8.783  12.642  0.2348  0.0227 -0.2548
 2800PBP     CP94877   6.705   8.789  12.260 -0.1874 -0.0411 -0.1745
 2800PBP     CP94878   6.430   8.807  12.056 -0.0324 -0.0262  0.1423
 2800PBP     CP94879   6.081   8.759  12.033  0.2252 -0.1198  0.0743
 2800PBP     Ch94880   5.925   8.679  11.876 -0.4418 -0.2121  0.2015
 2801PBP     C194881  13.384  11.847   8.419  0.4026 -0.3038 -0.1031
 2801PBP     C194882  13.164  11.627   8.115  0.4582  0.1850 -0.1604
 2801PBP     C194883  13.144  11.193   8.329  0.2726 -0.2263  0.4003
 2801PBP     C194884  12.951  11.071   8.692 -0.0133  0.4675  0.0028
 2801PBP     C194885  12.680  10.621   8.811  0.0066 -0.1206 -0.1661
 2801PBP     C194886  12.450  10.184   8.851  0.0389 -0.1914  0.0076
 2801PBP     C194887  12.420   9.812   9.093 -0.0217  0.1370 -0.2648
 2801PBP     C194888  12.472   9.442   9.119  0.0463  0.0985 -0.2292
 2801PBP     CP94889  12.413   9.094   8.945  0.0542 -0.4384 -0.2254
 2801PBP     CP94890  12.540   8.906   9.182 -0.1563 -0.1544 -0.2514
 2801PBP     CP94891  12.480   8.798   9.477  0.3158  0.2000 -0.0502
 2801PBP     Ch94892  12.492   8.812   9.787  0.4997 -0.7384  0.5089
 2802PBP     C194893   5.945   5.207  13.738 -0.0084 -0.2845  0.1227
 2802PBP     C194894   5.854   5.572  13.716  0.1016 -0.0847 -0.2714
 2802PBP     C194895   5.876   5.733  13.322 -0.2442  0.2927  0.2013
 2802PBP     C194896   5.836   6.098  13.098  0.3780  0.2434 -0.3663
 2802PBP     C194897   5.999   6.032  12.750  0.2197 -0.2584  0.2935
 2802PBP     C194898   6.020   6.171  12.273 -0.1620  0.2370 -0.2593
 2802PBP     C194899   5.798   6.322  11.964  0.3363 -0.0346  0.1702
 2802PBP     C194900   5.920   6.643  11.690  0.2683 -0.0413 -0.2434
 2802PBP     CP94901   6.126   6.980  11.753 -0.1848  0.5328 -0.5834
 2802PBP     CP94902   6.284   7.274  11.809  0.3383 -0.2308  0.0606
 2802PBP     CP94903   6.531   7.354  11.971  0.0395 -0.2044  0.0719
 2802PBP     Ch94904   6.805   7.434  11.974  0.6983 -0.4378  0.1224
 2803PBP     C194905   8.568   6.266  14.364 -0.0149 -0.0974  0.3748
 2803PBP     C194906   8.472   6.709  14.282 -0.1950 -0.0336 -0.1305
 2803PBP     C194907   8.497   7.095  14.365 -0.2507  0.0002 -0.0377
 2803PBP     C194908   8.282   7.415  14.111 -0.0691  0.1174 -0.4918
 2803PBP     C194909   8.022   7.578  13.879  0.2676  0.0658  0.1945
 2803PBP     C194910   7.844   8.015  13.767  0.0893  0.1216 -0.0171
 2803PBP     C194911   7.838   8.292  13.454 -0.1219 -0.0715  0.0170
 2803PBP     C194912   7.800   8.275  13.053 -0.0567 -0.1705 -0.0424
 2803PBP     CP94913   7.890   8.117  12.651  0.4657 -0.1023  0.2497
 2803PBP     CP94914   7.948   7.821  12.435 -0.6641  0.0630  0.3284
 2803PBP     CP94915   8.092   7.549  12.443 -0.2638  0.3912 -0.0701
 2803PBP     Ch94916   8.208   7.503  12.636  0.6003  0.2315 -0.2408
 2804PBP     C194917  15.930  12.276  15.918 -0.0123  0.0759  0.0189
 2804PBP     C194918  15.664  12.634  15.561  0.3746 -0.3423  0.1544
 2804PBP     C194919  15.633  12.489  15.073  0.1950 -0.5476 -0.1669
 2804PBP     C194920  15.759  12.367  14.733 -0.0185 -0.0688  0.3126
 2804PBP     C194921  15.794  11.925  14.683 -0.2991  0.4077  0.1191
 2804PBP     C194922  15.775  11.523  14.466 -0.2597  0.5465  0.0775
 2804PBP     C194923  15.609  11.106  14.287 -0.0186 -0.2128  0.0529
 2804PBP     C194924  15.514  10.756  14.047  0.5225  0.2691  0.2207
 2804PBP     CP94925  15.199  10.667  13.818 -0.4045 -0.1984 -0.1193
 2804PBP     CP94926  14.868  10.661  13.744  0.2821  0.2372 -0.4539
 2804PBP     CP94927  14.649  10.724  13.618  0.0721  0.4294 -0.1467
 2804PBP     Ch94928  14.409  10.683  13.507  0.1086  0.1700 -0.5724
 2805PBP     C194929  15.406  15.265  11.044  0.0356 -0.3444 -0.6295
 2805PBP     C194930  15.481  15.080  11.520  0.3803  0.0372  0.5328
 2805PBP     C194931  15.797  14.793  11.867  0.4710 -0.3560  0.0038
 2805PBP     C194932  16.180  14.575  11.673 -0.2225  0.3300  0.0349
 2805PBP     C194933  16.423  14.253  11.517 -0.3446  0.2490  0.4860
 2805PBP     C194934  16.311  13.929  11.648  0.2222 -0.7084 -0.2148
 2805PBP     C194935  16.005  13.669  11.610  0.3370  0.2831 -0.0939
 2805PBP     C194936  15.559  13.683  11.409 -0.1685  0.5695 -0.0743
 2805PBP     CP94937  15.205  13.659  11.281  0.0261 -0.2751  0.0298
 2805PBP     CP94938  14.885  13.615  11.253  0.1933 -0.0037 -0.2940
 2805PBP     CP94939  14.630  13.678  11.035 -0.2360  0.1042  0.3510
 2805PBP     Ch94940  14.397  13.589  11.147 -0.3948  0.0368  0.6565
 2806PBP     C194941  11.141   4.162   7.279  0.0752 -0.1675  0.3139
 2806PBP     C194942  11.252   4.457   7.499 -0.1366  0.2887 -0.3237
 2806PBP     C194943  11.084   4.993   7.521  0.2948 -0.1629 -0.0091
 2806PBP     C194944  10.977   5.455   7.570  0.2186 -0.0262 -0.0198
 2806PBP     C194945  11.018   5.787   7.887  0.2124 -0.0313 -0.0504
 2806PBP     C194946  11.174   6.119   8.339 -0.1204 -0.2998 -0.1871
 2806PBP     C194947  10.856   6.619   8.394 -0.1178  0.1475  0.0233
 2806PBP     C194948  10.934   7.091   8.434  0.1206 -0.4066  0.0707
 2806PBP     CP94949  10.665   7.259   8.646  0.1407 -0.3069 -0.0271
 2806PBP     CP94950  10.638   7.478   8.905  0.0605  0.1618  0.0608
 2806PBP     CP94951  10.759   7.723   9.085 -0.0015 -0.4372 -0.1939
 2806PBP     Ch94952  10.684   7.960   9.027 -0.2764  0.5451  0.4661
 2807PBP     C194953  12.042  12.869   7.737 -0.6349  0.4198  0.1907
 2807PBP     C194954  11.781  12.917   8.119  0.7694  0.0049 -0.0719
 2807PBP     C194955  11.742  12.974   8.608  0.0475  0.1083  0.0285
 2807PBP     C194956  11.585  12.795   8.970  0.1251 -0.2212  0.0188
 2807PBP     C194957  11.147  12.587   8.960 -0.2443  0.1681  0.1982
 2807PBP     C194958  10.917  12.217   8.760 -0.3108  0.1537  0.0106
 2807PBP     C194959  10.556  11.922   8.771 -0.0724  0.1045 -0.0372
 2807PBP     C194960  10.355  11.761   9.008  0.2435  0.1076 -0.3015
 2807PBP     CP94961  10.017  11.557   9.025  0.4013 -0.0302 -0.2395
 2807PBP     CP94962   9.796  11.535   8.853  0.2936 -0.3172 -0.0587
 2807PBP     CP94963   9.541  11.746   8.842 -0.3716  0.0512 -0.1947
 2807PBP     Ch94964   9.401  11.955   8.865  0.2179  0.1833  0.3496
 2808PBP     C194965  17.785  14.010   9.682 -0.0880 -0.4566  0.0725
 2808PBP     C194966  17.338  13.775   9.623  0.0204  0.1416 -0.0544
 2808PBP     C194967  17.012  13.452   9.791  0.2900 -0.1360  0.0806
 2808PBP     C194968  16.681  13.369  10.008 -0.0188 -0.2830  0.0552
 2808PBP     C194969  16.417  13.388  10.374  0.1750 -0.2223 -0.1073
 2808PBP     C194970  16.235  13.213  10.738 -0.0485 -0.3311 -0.3762
 2808PBP     C194971  15.985  12.746  10.836 -0.1390  0.0404  0.1698
 2808PBP     C194972  15.640  12.734  11.003  0.0130  0.2124  0.0627
 2808PBP     CP94973  15.344  12.727  11.257 -0.5722 -0.4581  0.0864
 2808PBP     CP94974  15.027  12.640  11.223  0.3239 -0.3465  0.0583
 2808PBP     CP94975  14.933  12.427  11.028 -0.0484 -0.0029  0.1971
 2808PBP     Ch94976  14.778  12.209  11.061  0.0564  0.2709  0.1854
 2809PBP     C194977   9.132  16.855  13.147  0.0905  0.1640  0.0114
 2809PBP     C194978   8.849  16.581  13.036  0.2456 -0.0450  0.2931
 2809PBP     C194979   8.545  16.451  12.800 -0.2409  0.5663 -0.0105
 2809PBP     C194980   8.314  16.523  12.355 -0.2742 -0.1238  0.0035
 2809PBP     C194981   8.005  16.696  12.065  0.3633 -0.0980  0.2979
 2809PBP     C194982   7.884  16.517  11.646  0.5274 -0.1500 -0.2096
 2809PBP     C194983   7.774  16.506  11.276 -0.0978  0.1538  0.1570
 2809PBP     C194984   7.529  16.098  11.019  0.2386  0.1042 -0.1792
 2809PBP     CP94985   7.495  15.943  10.696  0.3208 -0.0586  0.0137
 2809PBP     CP94986   7.648  15.986  10.435 -0.2960  0.0744 -0.1532
 2809PBP     CP94987   7.529  16.145  10.213 -0.4298 -0.0439  0.2880
 2809PBP     Ch94988   7.315  16.150  10.064 -0.0862 -0.4044  0.1614
 2810PBP     C194989   4.187  13.933   9.365 -0.3190 -0.0958 -0.1658
 2810PBP     C194990   4.186  13.850   8.847 -0.0229 -0.0242 -0.3135
 2810PBP     C194991   4.497  14.125   8.644 -0.0829 -0.1222  0.2695
 2810PBP     C194992   4.669  14.483   8.544 -0.0980 -0.0077  0.3134
 2810PBP     C194993   5.067  14.561   8.330  0.1330 -0.0265 -0.2075
 2810PBP     C194994   5.528  14.529   8.450  0.1282  0.0808  0.0011
 2810PBP     C194995   5.818  14.236   8.380 -0.0112  0.0832 -0.3812
 2810PBP     C194996   6.121  14.010   8.228 -0.1601  0.2402 -0.0331
 2810PBP     CP94997   6.196  13.589   8.178 -0.2448 -0.0830 -0.3078
 2810PBP     CP94998   6.231  13.327   8.331  0.0463  0.0361 -0.0634
 2810PBP     CP94999   6.215  13.013   8.308 -0.5083  0.0504 -0.0700
 2810PBP     Ch95000   5.954  12.907   8.269 -0.2191  0.1297 -0.0431
 2811PBP     C195001  12.495  17.809  12.317 -0.3853 -0.0391  0.0622
 2811PBP     C195002  12.347  18.111  12.460 -0.0669 -0.0774 -0.0711
 2811PBP     C195003  11.947  17.917  12.634 -0.0688  0.1953 -0.2856
 2811PBP     C195004  11.721  17.519  12.639  0.0907 -0.1922 -0.2258
 2811PBP     C195005  11.703  17.210  12.425 -0.0332  0.1743 -0.0287
 2811PBP     C195006  11.533  16.816  12.467  0.1460 -0.2888  0.2447
 2811PBP     C195007  11.450  16.359  12.399 -0.2061 -0.2165 -0.3033
 2811PBP     C195008  10.978  16.335  12.352  0.1834 -0.1549  0.3033
 2811PBP     CP95009  10.634  16.297  12.161  0.2747  0.2607  0.1575
 2811PBP     CP95010  10.444  16.229  11.927  0.2982  0.2911  0.1240
 2811PBP     CP95011  10.411  16.140  11.653  0.0386  0.0990 -0.4493
 2811PBP     Ch95012  10.161  16.168  11.529 -0.3507  0.1403  0.4636
 2812PBP     C195013   5.257   6.048   6.607  0.0297 -0.1933 -0.0886
 2812PBP     C195014   5.530   5.926   6.239 -0.3619  0.0574  0.0913
 2812PBP     C195015   5.969   5.965   6.075  0.0494 -0.2913  0.1827
 2812PBP     C195016   6.329   5.984   6.362  0.6491  0.1155 -0.1363
 2812PBP     C195017   6.637   5.684   6.348 -0.1519 -0.1905  0.1448
 2812PBP     C195018   6.703   5.428   6.612 -0.0738 -0.1286  0.1853
 2812PBP     C195019   6.646   5.434   7.130 -0.2176  0.1265 -0.1413
 2812PBP     C195020   6.537   5.560   7.489  0.1129 -0.0192 -0.2407
 2812PBP     CP95021   6.572   5.895   7.603 -0.0666 -0.2953  0.1752
 2812PBP     CP95022   6.408   6.148   7.665 -0.0753 -0.2229 -0.1319
 2812PBP     CP95023   6.283   6.323   7.955  0.1541 -0.2213 -0.2062
 2812PBP     Ch95024   6.229   6.546   8.163 -0.1513  0.7083  0.4370
 2813PBP     C195025   9.446  13.193  15.980  0.2617  0.0235 -0.0200
 2813PBP     C195026   9.119  12.928  15.778  0.2583 -0.2588  0.2360
 2813PBP     C195027   9.022  12.902  15.280  0.1548 -0.0628 -0.2659
 2813PBP     C195028   9.147  13.155  14.994  0.4537 -0.0715 -0.0700
 2813PBP     C195029   9.342  13.527  15.017 -0.1125  0.3085 -0.1251
 2813PBP     C195030   9.448  13.851  14.642  0.0138  0.3243 -0.2473
 2813PBP     C195031   9.789  14.083  14.455  0.0543  0.2348 -0.3330
 2813PBP     C195032  10.123  13.897  14.497 -0.1719  0.1143  0.2564
 2813PBP     CP95033  10.552  13.939  14.439 -0.1827 -0.0214 -0.6483
 2813PBP     CP95034  10.819  14.137  14.388  0.1069 -0.5634  0.1328
 2813PBP     CP95035  11.120  14.094  14.312 -0.0083 -0.3466 -0.1536
 2813PBP     Ch95036  11.364  14.216  14.363  0.1130 -0.2220 -0.3910
 2814PBP     C195037   3.554   5.890  10.035  0.5490  0.1445 -0.2890
 2814PBP     C195038   3.854   5.908   9.821  0.3148  0.1388  0.0368
 2814PBP     C195039   3.950   6.046   9.410 -0.0481  0.0640  0.1225
 2814PBP     C195040   3.802   6.429   9.197 -0.2032 -0.0586  0.2379
 2814PBP     C195041   4.085   6.624   9.208 -0.0341 -0.4133 -0.0392
 2814PBP     C195042   4.281   6.903   9.196  0.0688 -0.4351  0.2790
 2814PBP     C195043   4.605   7.073   9.208 -0.1338 -0.1654 -0.4601
 2814PBP     C195044   5.043   6.966   9.142 -0.2367  0.3728 -0.2428
 2814PBP     CP95045   5.467   6.939   9.081 -0.0893 -0.1376 -0.1399
 2814PBP     CP95046   5.613   7.215   9.131  0.0574  0.0519  0.1705
 2814PBP     CP95047   5.672   7.486   9.271  0.3905  0.0222  0.1232
 2814PBP     Ch95048   5.763   7.648   9.464 -0.2766  0.3595  0.2233
 2815PBP     C195049  12.235   5.278  17.228 -0.0182  0.2422  0.1211
 2815PBP     C195050  12.225   5.371  16.748  0.2261  0.2058  0.4091
 2815PBP     C195051  12.164   5.240  16.328  0.1032  0.2752 -0.7070
 2815PBP     C195052  12.210   5.263  15.936 -0.2651 -0.3540 -0.4138
 2815PBP     C195053  12.399   5.461  15.627  0.1254  0.5968  0.2814
 2815PBP     C195054  12.731   5.611  15.204  0.0798  0.1359  0.1979
 2815PBP     C195055  12.871   5.765  14.784 -0.0212 -0.5092 -0.4699
 2815PBP     C195056  12.960   5.906  14.369 -0.0434 -0.0015  0.3174
 2815PBP     CP95057  12.888   6.295  14.335 -0.1708  0.2484  0.0001
 2815PBP     CP95058  13.047   6.534  14.133 -0.1739  0.0155  0.4067
 2815PBP     CP95059  13.021   6.815  13.986 -0.2412 -0.0725  0.3917
 2815PBP     Ch95060  13.215   7.010  14.023  0.0798 -0.1541  0.2651
 2816PBP     C195061  10.112  17.673  11.280  0.0054  0.2607  0.3446
 2816PBP     C195062   9.683  17.800  11.363 -0.0292 -0.0988  0.3136
 2816PBP     C195063   9.395  17.586  11.355  0.0460 -0.1562 -0.5153
 2816PBP     C195064   9.045  17.239  11.231 -0.0323  0.0195  0.2721
 2816PBP     C195065   8.838  16.760  11.386 -0.0666  0.3234  0.0972
 2816PBP     C195066   8.567  16.423  11.274 -0.3228  0.1117  0.0277
 2816PBP     C195067   8.145  16.176  11.349 -0.3744 -0.0255  0.0432
 2816PBP     C195068   8.015  16.029  11.017  0.2785 -0.0892  0.1882
 2816PBP     CP95069   7.991  15.746  10.693 -0.6330  0.0435 -0.3620
 2816PBP     CP95070   7.971  15.438  10.632  0.7373  0.1369 -0.4179
 2816PBP     CP95071   7.824  15.200  10.606 -0.0305  0.2062  0.5242
 2816PBP     Ch95072   7.678  14.952  10.519  0.2699  0.0540  0.1195
 2817PBP     C195073   8.712   2.613  10.486  0.0303 -0.4171  0.2133
 2817PBP     C195074   8.321   2.844  10.548 -0.0688 -0.1416 -0.0999
 2817PBP     C195075   8.229   3.155  10.585  0.0130  0.1217  0.1399
 2817PBP     C195076   7.975   3.285  10.877  0.3050  0.2173  0.0203
 2817PBP     C195077   7.629   3.308  11.115  0.0933  0.0985 -0.3850
 2817PBP     C195078   7.427   3.346  11.617  0.0951  0.2031 -0.2070
 2817PBP     C195079   7.259   3.773  11.662 -0.2829 -0.4074 -0.0454
 2817PBP     C195080   7.176   4.156  11.623 -0.0657 -0.0254  0.0304
 2817PBP     CP95081   6.982   4.463  11.724 -0.4917  0.6369 -0.2973
 2817PBP     CP95082   7.146   4.771  11.780 -0.1486  0.0092 -0.0528
 2817PBP     CP95083   7.400   4.866  11.814  0.1975 -0.1712  0.2081
 2817PBP     Ch95084   7.614   4.839  11.924  0.5733 -0.0899  0.3448
 2818PBP     C195085  12.296  10.574  16.682 -0.1294  0.1960 -0.0229
 2818PBP     C195086  12.598  10.836  16.425 -0.1745 -0.0537  0.2588
 2818PBP     C195087  12.916  10.689  16.041 -0.2399  0.3837 -0.1679
 2818PBP     C195088  12.887  10.243  15.814  0.1050 -0.0516  0.1288
 2818PBP     C195089  12.847   9.881  15.659 -0.0892  0.0159  0.2959
 2818PBP     C195090  12.732   9.738  15.228  0.1086 -0.2520  0.4668
 2818PBP     C195091  12.501   9.407  15.103 -0.0998 -0.1432 -0.3523
 2818PBP     C195092  12.167   9.453  14.723  0.0746 -0.0710 -0.0259
 2818PBP     CP95093  12.193   9.418  14.298  0.0724 -0.1647  0.0770
 2818PBP     CP95094  11.992   9.256  14.125 -0.3057 -0.8818 -0.5015
 2818PBP     CP95095  11.689   9.343  13.991  0.0610  0.5953  0.0796
 2818PBP     Ch95096  11.528   9.189  13.854 -0.0980 -0.1705  0.0928
 2819PBP     C195097   6.169   9.073  13.278  0.2658 -0.1764 -0.0847
 2819PBP     C195098   6.129   8.748  13.623 -0.3754  0.0584  0.0453
 2819PBP     C195099   5.935   8.355  13.765  0.0675  0.0370  0.2269
 2819PBP     C195100   5.795   8.132  13.499 -0.0291  0.2122  0.1804
 2819PBP     C195101   5.697   7.865  13.292 -0.1323 -0.0081  0.0455
 2819PBP     C195102   5.649   7.863  12.903  0.3451  0.3385 -0.0022
 2819PBP     C195103   6.145   7.629  12.706 -0.0987  0.1048  0.2217
 2819PBP     C195104   6.516   7.441  12.502  0.3588 -0.0641 -0.0902
 2819PBP     CP95105   6.702   7.768  12.313 -0.3968 -0.2799 -0.1296
 2819PBP     CP95106   6.948   7.884  12.143  0.1852  0.2362  0.0853
 2819PBP     CP95107   7.060   8.195  12.194  0.0747 -0.0796 -0.4119
 2819PBP     Ch95108   7.091   8.468  12.191  0.1299 -0.0219  0.0434
 2820PBP     C195109   9.326  14.924   7.070 -0.1561  0.1795  0.0946
 2820PBP     C195110   9.380  14.496   6.983 -0.0601 -0.3678 -0.0859
 2820PBP     C195111   8.982  14.152   7.117  0.1381  0.1919  0.2366
 2820PBP     C195112   8.757  14.128   7.472 -0.1671 -0.1739  0.0430
 2820PBP     C195113   8.691  14.542   7.727  0.4184  0.0992 -0.3570
 2820PBP     C195114   8.693  14.655   8.235 -0.1063 -0.4314 -0.2801
 2820PBP     C195115   8.378  14.721   8.442 -0.1681  0.1297  0.0763
 2820PBP     C195116   8.054  14.429   8.678 -0.1060 -0.0244 -0.0383
 2820PBP     CP95117   7.882  14.322   9.038 -0.2916  0.0285  0.5411
 2820PBP     CP95118   7.806  14.032   8.998 -0.2709  0.0022 -0.2398
 2820PBP     CP95119   7.535  13.931   8.942  0.0334  0.2528  0.0214
 2820PBP     Ch95120   7.450  13.740   8.736  0.4005  0.0898 -0.1538
 2821PBP     C195121   7.952   2.052   9.936  0.1701 -0.0505  0.1629
 2821PBP     C195122   7.552   2.154  10.229  0.2827  0.1322  0.0035
 2821PBP     C195123   7.354   2.304  10.574  0.1689 -0.0448  0.3989
 2821PBP     C195124   7.266   2.671  10.577  0.0007 -0.1053  0.0924
 2821PBP     C195125   7.360   3.042  10.827  0.0510  0.0322  0.4988
 2821PBP     C195126   7.201   3.379  10.761 -0.2661  0.1109  0.0834
 2821PBP     C195127   7.148   3.768  10.756  0.2891  0.5877  0.1156
 2821PBP     C195128   6.969   4.154  10.618 -0.1883  0.2827  0.4036
 2821PBP     CP95129   6.997   4.370  10.272  0.0046  0.0966  0.0961
 2821PBP     CP95130   6.839   4.636  10.207  0.4099  0.2516 -0.3054
 2821PBP     CP95131   6.560   4.678  10.120  0.0947 -0.0701 -0.1573
 2821PBP     Ch95132   6.406   4.955  10.105 -0.3052  0.5070 -0.0941
 2822PBP     C195133   8.801  13.692   6.277  0.1936  0.1102 -0.0760
 2822PBP     C195134   8.817  13.851   6.732 -0.0850  0.0367  0.2671
 2822PBP     C195135   8.618  13.537   6.891  0.1016 -0.2602 -0.3880
 2822PBP     C195136   8.590  13.665   7.326  0.1896  0.0082 -0.3385
 2822PBP     C195137   8.622  13.683   7.734 -0.0621 -0.3460 -0.2812
 2822PBP     C195138   8.555  13.556   8.133  0.0043  0.1475  0.0035
 2822PBP     C195139   8.773  13.382   8.403 -0.0690 -0.1430 -0.2099
 2822PBP     C195140   8.806  13.512   8.789  0.1191  0.1367 -0.0148
 2822PBP     CP95141   8.913  13.480   9.187  0.0287 -0.1208 -0.0677
 2822PBP     CP95142   9.138  13.497   9.421  0.0863 -0.4264  0.0868
 2822PBP     CP95143   9.421  13.347   9.383  0.0426 -0.1261 -0.1540
 2822PBP     Ch95144   9.537  13.102   9.475  0.1027  0.3266 -0.1088
 2823PBP     C195145  18.145  12.781  13.202 -0.2141  0.0984 -0.1859
 2823PBP     C195146  17.737  12.501  13.341  0.0217 -0.3209 -0.1424
 2823PBP     C195147  17.277  12.459  13.584  0.1518  0.0855  0.2600
 2823PBP     C195148  16.921  12.577  13.551 -0.2766  0.2417 -0.3598
 2823PBP     C195149  16.565  12.889  13.372  0.2885  0.0520  0.0636
 2823PBP     C195150  16.193  13.249  13.390 -0.0424  0.2913 -0.3098
 2823PBP     C195151  15.925  13.236  13.638  0.0562  0.2149  0.1370
 2823PBP     C195152  15.538  13.410  13.675 -0.1008  0.1682  0.0512
 2823PBP     CP95153  15.198  13.493  13.937 -0.5038  0.3162  0.3284
 2823PBP     CP95154  14.940  13.431  14.156  0.1467 -0.2262  0.7004
 2823PBP     CP95155  14.643  13.383  14.042 -0.0264 -0.1751  0.2324
 2823PBP     Ch95156  14.474  13.513  13.974  0.2894  0.3782  0.2327
 2824PBP     C195157   7.888  13.683   6.300 -0.3366 -0.5546 -0.1654
 2824PBP     C195158   7.671  13.659   6.721 -0.1690  0.1378 -0.6926
 2824PBP     C195159   7.551  13.747   7.159  0.0236 -0.1078  0.0787
 2824PBP     C195160   7.663  13.921   7.587 -0.0234  0.0717  0.1376
 2824PBP     C195161   7.643  14.086   7.912 -0.3179  0.1230  0.1007
 2824PBP     C195162   7.734  13.928   8.364  0.3191 -0.0538  0.5211
 2824PBP     C195163   8.130  13.828   8.601  0.1222  0.1632  0.0686
 2824PBP     C195164   8.334  13.570   8.621  0.1348 -0.0872  0.1950
 2824PBP     CP95165   8.394  13.165   8.690 -0.2660  0.1006  0.1673
 2824PBP     CP95166   8.344  12.841   8.503  0.2896  0.4101 -0.0760
 2824PBP     CP95167   8.407  12.518   8.455  0.0171 -0.0372 -0.1008
 2824PBP     Ch95168   8.184  12.373   8.416  0.0769  0.0879  0.0379
 2825PBP     C195169   9.471  10.964   6.979  0.1190 -0.1017 -0.1268
 2825PBP     C195170   9.765  11.284   7.007  0.3430  0.2125  0.2777
 2825PBP     C195171   9.889  11.690   7.178  0.0946  0.0397  0.0424
 2825PBP     C195172   9.944  11.927   7.466 -0.2797  0.0426 -0.3377
 2825PBP     C195173  10.227  12.112   7.893 -0.2384 -0.1212  0.2714
 2825PBP     C195174  10.240  12.008   8.364  0.4519 -0.2256  0.0808
 2825PBP     C195175  10.004  11.976   8.724 -0.2128 -0.2073 -0.4525
 2825PBP     C195176   9.867  12.040   9.027  0.1346  0.3638  0.1522
 2825PBP     CP95177   9.636  11.940   9.287  0.0252  0.1013  0.1606
 2825PBP     CP95178   9.402  11.729   9.295 -0.1306  0.0479 -0.0389
 2825PBP     CP95179   9.294  11.462   9.130  0.0216 -0.1818 -0.3826
 2825PBP     Ch95180   9.236  11.190   9.065  0.2962  0.0491 -0.1092
 2826PBP     C195181  16.704  12.860   9.129 -0.0242 -0.0968  0.1996
 2826PBP     C195182  16.465  12.941   9.482 -0.2034  0.0875  0.1099
 2826PBP     C195183  16.555  12.868   9.928  0.2462  0.0383  0.0228
 2826PBP     C195184  16.658  12.579  10.259 -0.0194 -0.3636  0.4842
 2826PBP     C195185  16.420  12.255  10.348  0.2362  0.0741  0.3944
 2826PBP     C195186  16.218  11.840  10.609  0.1676 -0.0358  0.0982
 2826PBP     C195187  15.731  11.706  10.600 -0.2322  0.1401  0.1051
 2826PBP     C195188  15.606  11.297  10.642 -0.1852  0.1530  0.1966
 2826PBP     CP95189  15.345  11.032  10.872 -0.7344 -0.5352  0.0669
 2826PBP     CP95190  15.064  10.946  10.920  0.3355  0.2939  0.1504
 2826PBP     CP95191  14.749  11.026  10.854  0.1608  0.0260  0.1956
 2826PBP     Ch95192  14.524  11.219  10.808  0.3265  0.3666  0.2288
 2827PBP     C195193   3.779   6.867  10.886 -0.1891 -0.1062 -0.3299
 2827PBP     C195194   3.895   7.188  10.697  0.0615  0.2520  0.0409
 2827PBP     C195195   3.978   7.535  10.418 -0.2828 -0.2316  0.2585
 2827PBP     C195196   4.113   7.801  10.143  0.1914  0.2123  0.1345
 2827PBP     C195197   4.244   8.210   9.982 -0.3244 -0.2081  0.1457
 2827PBP     C195198   4.711   8.246  10.041  0.4905  0.0258  0.1000
 2827PBP     C195199   5.136   8.576  10.243 -0.2126  0.2084 -0.3007
 2827PBP     C195200   5.469   9.003  10.233 -0.0450 -0.1033 -0.4841
 2827PBP     CP95201   5.682   9.195  10.530 -0.2392 -0.1288 -0.0128
 2827PBP     CP95202   5.830   9.450  10.570 -0.0682  0.0729 -0.0400
 2827PBP     CP95203   6.081   9.548  10.686  0.2201  0.0005 -0.1405
 2827PBP     Ch95204   6.339   9.538  10.708 -0.2394 -0.0562 -0.5313
 2828PBP     C195205  11.567  11.979  16.680  0.3489 -0.2859  0.2380
 2828PBP     C195206  11.895  11.777  16.369  0.1508  0.2457  0.1323
 2828PBP     C195207  12.134  11.455  16.375 -0.1808 -0.0196 -0.2066
 2828PBP     C195208  12.413  11.238  16.203 -0.4036 -0.1728  0.4453
 2828PBP     C195209  12.815  11.212  15.984  0.0195 -0.2966 -0.1309
 2828PBP     C195210  13.106  11.527  15.733 -0.1623 -0.3436 -0.4384
 2828PBP     C195211  13.030  12.074  15.790 -0.3259 -0.3285 -0.1826
 2828PBP     C195212  12.915  12.470  15.642 -0.0757  0.0982  0.1178
 2828PBP     CP95213  12.784  12.790  15.472 -0.3142 -0.4604  0.1394
 2828PBP     CP95214  12.771  12.798  15.133 -0.1009 -0.2190 -0.1747
 2828PBP     CP95215  12.796  12.835  14.812 -0.0166  0.0834  0.0081
 2828PBP     Ch95216  12.658  13.008  14.665 -0.0541  0.1573  0.2660
 2829PBP     C195217   9.637  10.651   1.076 -0.0992  0.1195  0.1423
 2829PBP     C195218   9.992  10.710   0.678  0.1344 -0.2682 -0.0371
 2829PBP     C195219  10.355  10.454   0.433 -0.0010  0.1619 -0.2403
 2829PBP     C195220  10.790  10.280   0.421 -0.2441 -0.1377 -0.0510
 2829PBP     C195221  10.852   9.896   0.554 -0.0965  0.2137  0.1059
 2829PBP     C195222  10.844   9.690   0.998 -0.3359 -0.1313  0.1784
 2829PBP     C195223  10.751   9.356   1.223  0.2455  0.1592 -0.4176
 2829PBP     C195224  10.774   8.896   1.189 -0.4116  0.0525  0.1213
 2829PBP     CP95225  10.560   8.527   1.208  0.5485  0.2525  0.1740
 2829PBP     CP95226  10.493   8.310   1.053  0.1725  0.2142  0.5089
 2829PBP     CP95227  10.327   8.105   0.942 -0.1605 -0.2908  0.1298
 2829PBP     Ch95228  10.228   8.108   0.702 -0.1161  0.2361  0.0407
 2830PBP     C195229   9.054   8.346  14.925  0.3716 -0.0438  0.1386
 2830PBP     C195230   9.380   8.460  14.647  0.2398 -0.1162 -0.3871
 2830PBP     C195231   9.476   8.867  14.364 -0.0440  0.3256 -0.0431
 2830PBP     C195232   9.435   9.222  14.310  0.1911  0.0981  0.0152
 2830PBP     C195233   9.606   9.408  14.027 -0.0830  0.2794  0.2056
 2830PBP     C195234   9.429   9.653  13.875 -0.0582 -0.3376  0.1520
 2830PBP     C195235   9.415   9.902  13.521 -0.1629 -0.2281 -0.0033
 2830PBP     C195236   9.790   9.954  13.298 -0.0755  0.1292 -0.5000
 2830PBP     CP95237  10.190  10.054  13.387 -0.2922  0.0462 -0.1540
 2830PBP     CP95238  10.241  10.325  13.516 -0.2721 -0.2889  0.0968
 2830PBP     CP95239  10.494  10.480  13.557  0.0647 -0.1586  0.3992
 2830PBP     Ch95240  10.809  10.542  13.625 -0.4408 -0.1373 -0.5661
 2831PBP     C195241   3.816   8.289   9.449 -0.3063 -0.0698 -0.1908
 2831PBP     C195242   3.831   8.641   9.385  0.0423 -0.2646 -0.4682
 2831PBP     C195243   4.228   8.810   9.275 -0.0105  0.3520 -0.0089
 2831PBP     C195244   4.602   8.998   8.980 -0.1916  0.1860  0.0121
 2831PBP     C195245   5.006   8.786   8.899  0.2373  0.1774 -0.1817
 2831PBP     C195246   5.404   8.593   9.044  0.1712 -0.2837 -0.1319
 2831PBP     C195247   5.782   8.441   9.080  0.5685  0.0697 -0.0924
 2831PBP     C195248   6.073   8.032   9.110 -0.1439 -0.3460  0.2329
 2831PBP     CP95249   6.439   8.029   9.165  0.4651  0.4816  0.0787
 2831PBP     CP95250   6.778   8.016   9.254  0.0470  0.3546  0.3444
 2831PBP     CP95251   7.033   8.133   9.345  0.0088  0.2845 -0.0569
 2831PBP     Ch95252   7.245   8.161   9.431 -0.1391 -0.5926 -0.0354
 2832PBP     C195253  10.260  12.389  15.626  0.0713 -0.0548  0.2650
 2832PBP     C195254   9.893  12.416  15.582  0.0453 -0.0142  0.1738
 2832PBP     C195255   9.498  12.613  15.552 -0.0695  0.1187  0.3492
 2832PBP     C195256   9.056  12.477  15.490  0.0372 -0.2549  0.4061
 2832PBP     C195257   8.866  12.364  15.139 -0.3919 -0.0610 -0.2893
 2832PBP     C195258   8.890  12.512  14.651  0.0536  0.2509  0.1899
 2832PBP     C195259   9.158  12.445  14.425  0.1362 -0.0146  0.1073
 2832PBP     C195260   8.978  12.504  13.907  0.0981 -0.0749 -0.6131
 2832PBP     CP95261   9.182  12.151  13.862  0.4096 -0.1427  0.0723
 2832PBP     CP95262   9.184  11.848  13.728  0.0114  0.4215  0.0155
 2832PBP     CP95263   8.935  11.712  13.537 -0.2868 -0.1879  0.3418
 2832PBP     Ch95264   8.899  11.751  13.234  0.4173  0.5841  0.0381
 2833PBP     C195265  10.163   8.797   6.407  0.2364 -0.0036 -0.2455
 2833PBP     C195266  10.484   8.690   6.699 -0.2819  0.1478 -0.2048
 2833PBP     C195267  11.004   8.809   6.853 -0.4095 -0.1820  0.1657
 2833PBP     C195268  11.013   8.837   7.287 -0.2317  0.2735 -0.2081
 2833PBP     C195269  10.801   8.630   7.562 -0.4584 -0.1527 -0.0108
 2833PBP     C195270  10.844   8.551   8.027 -0.1363 -0.0934 -0.4285
 2833PBP     C195271  10.976   8.376   8.480 -0.1972  0.0382  0.1401
 2833PBP     C195272  10.949   8.327   8.880 -0.2107 -0.0339 -0.2958
 2833PBP     CP95273  10.638   8.468   9.078 -0.1948  0.3836  0.1569
 2833PBP     CP95274  10.544   8.737   9.177  0.1925  0.6772  0.4048
 2833PBP     CP95275  10.641   9.041   9.201  0.8209  0.3704 -0.1694
 2833PBP     Ch95276  10.725   9.227   9.352 -0.0689 -0.0514  0.1190
 2834PBP     C195277   9.842  12.389   8.172  0.1618 -0.1205 -0.0729
 2834PBP     C195278   9.720  12.248   7.813 -0.3905 -0.2243  0.2368
 2834PBP     C195279   9.328  12.038   7.638 -0.0651 -0.2724  0.2074
 2834PBP     C195280   8.941  11.652   7.631 -0.2373  0.2018 -0.1749
 2834PBP     C195281   8.546  11.525   7.416 -0.1580 -0.0382 -0.1486
 2834PBP     C195282   8.356  11.211   7.597 -0.3838  0.1119  0.0808
 2834PBP     C195283   8.249  10.991   7.972 -0.2267 -0.3531  0.1195
 2834PBP     C195284   8.622  10.688   8.130  0.2967 -0.1548  0.2496
 2834PBP     CP95285   8.793  10.493   8.414 -0.1921 -0.1878  0.0292
 2834PBP     CP95286   9.092  10.562   8.490 -0.0800 -0.0504 -0.0886
 2834PBP     CP95287   9.155  10.708   8.758  0.0722  0.2276 -0.1651
 2834PBP     Ch95288   9.062  10.757   9.006 -0.2101 -0.2835 -0.1409
 2835PBP     C195289  16.755   4.038   9.147 -0.3266  0.4453 -0.0995
 2835PBP     C195290  16.651   4.265   9.477  0.1197 -0.0732  0.1474
 2835PBP     C195291  16.571   4.236   9.963 -0.1704 -0.3657  0.2689
 2835PBP     C195292  16.273   4.241  10.073  0.0647  0.0075  0.1736
 2835PBP     C195293  15.980   4.477  10.204  0.1591  0.0597 -0.2492
 2835PBP     C195294  15.852   4.787  10.495  0.0956  0.2286 -0.0683
 2835PBP     C195295  15.689   5.169  10.513 -0.3453  0.1156  0.5309
 2835PBP     C195296  15.505   5.640  10.528  0.2580 -0.1303  0.4790
 2835PBP     CP95297  15.489   5.971  10.297  0.0359  0.5729 -0.3118
 2835PBP     CP95298  15.409   6.292  10.178 -0.1303  0.2141  0.2531
 2835PBP     CP95299  15.426   6.582  10.275  0.5331 -0.1737  0.0751
 2835PBP     Ch95300  15.440   6.837  10.450 -0.8268  0.4204 -0.0242
 2836PBP     C195301  12.276   2.287  14.392  0.0769  0.1640 -0.3791
 2836PBP     C195302  12.363   2.648  14.698  0.0237 -0.3731  0.4805
 2836PBP     C195303  12.302   3.069  14.467 -0.2061 -0.0231  0.1030
 2836PBP     C195304  12.092   3.425  14.048 -0.1350 -0.0788 -0.3446
 2836PBP     C195305  11.641   3.365  13.805  0.1953  0.1864  0.2929
 2836PBP     C195306  11.572   3.924  13.703 -0.3100  0.0635  0.0521
 2836PBP     C195307  11.817   4.327  13.541  0.2897  0.2088 -0.2847
 2836PBP     C195308  11.779   4.752  13.421 -0.5881  0.1028  0.1777
 2836PBP     CP95309  12.022   5.129  13.359  0.1693  0.0632 -0.0012
 2836PBP     CP95310  12.104   5.432  13.484  0.3971 -0.3091 -0.2395
 2836PBP     CP95311  12.087   5.756  13.419 -0.4008  0.2048 -0.0000
 2836PBP     Ch95312  11.915   5.978  13.420 -0.1967  0.2172 -0.6091
 2837PBP     C195313  13.289   9.984   7.013 -0.1419  0.0789  0.2647
 2837PBP     C195314  13.175   9.573   7.062  0.4069 -0.2594 -0.2403
 2837PBP     C195315  13.225   9.269   7.210 -0.0540 -0.0643  0.1882
 2837PBP     C195316  13.440   9.134   7.601 -0.0047  0.0767  0.0435
 2837PBP     C195317  13.341   9.383   7.974  0.2063  0.3423 -0.2599
 2837PBP     C195318  13.249   9.369   8.401 -0.1151  0.2361 -0.2497
 2837PBP     C195319  13.226   9.300   8.982  0.0636  0.2428  0.2397
 2837PBP     C195320  13.012   9.223   9.400 -0.3576 -0.1260  0.0617
 2837PBP     CP95321  12.594   9.190   9.631 -0.3274  0.0301  0.2631
 2837PBP     CP95322  12.303   9.276   9.769 -0.3443 -0.3198 -0.3255
 2837PBP     CP95323  12.128   9.574   9.761 -0.1549 -0.2628  0.1656
 2837PBP     Ch95324  11.876   9.704   9.785 -0.0249 -0.2543 -0.0951
 2838PBP     C195325   5.842  12.700   7.695 -0.0481  0.1964 -0.0731
 2838PBP     C195326   6.202  12.741   7.766 -0.2172 -0.3361  0.0351
 2838PBP     C195327   6.465  12.991   7.783 -0.0042  0.2608 -0.0288
 2838PBP     C195328   6.516  13.327   7.915  0.1004  0.0885 -0.0386
 2838PBP     C195329   6.639  13.678   7.880 -0.2058  0.1358 -0.0205
 2838PBP     C195330   7.045  13.973   7.924  0.3058 -0.2463  0.2154
 2838PBP     C195331   7.283  14.091   8.239  0.0071  0.0271 -0.3999
 2838PBP     C195332   7.548  14.352   8.496 -0.1705  0.0207  0.1956
 2838PBP     CP95333   7.470  14.522   8.851  0.6135 -0.0471 -0.4076
 2838PBP     CP95334   7.377  14.761   8.988  0.1224  0.1936 -0.0632
 2838PBP     CP95335   7.589  15.009   9.010 -0.1222  0.1193  0.4635
 2838PBP     Ch95336   7.606  15.264   8.980 -0.6747  0.1536  0.0688
 2839PBP     C195337   3.794  11.401  10.690 -0.3908  0.2571 -0.2290
 2839PBP     C195338   4.054  11.283  10.517 -0.3168 -0.0776 -0.1320
 2839PBP     C195339   4.377  10.961  10.600 -0.3637 -0.3888  0.0569
 2839PBP     C195340   4.784  10.766  10.521 -0.1975  0.1181  0.1980
 2839PBP     C195341   5.127  10.753  10.279 -0.3033  0.0294  0.1711
 2839PBP     C195342   5.394  10.852   9.874 -0.1240 -0.0763 -0.3632
 2839PBP     C195343   5.408  10.847   9.538 -0.0992 -0.2454  0.0529
 2839PBP     C195344   5.718  10.676   9.385  0.2265 -0.1276  0.2189
 2839PBP     CP95345   6.076  10.713   9.425  0.5153 -0.1552  0.0683
 2839PBP     CP95346   6.386  10.784   9.527  0.1489  0.1138 -0.2980
 2839PBP     CP95347   6.663  10.681   9.591 -0.4977  0.1712 -0.1395
 2839PBP     Ch95348   6.773  10.388   9.612  0.3738  0.1702 -0.2619
 2840PBP     C195349   3.500  10.033  12.219 -0.0509  0.1663  0.0879
 2840PBP     C195350   3.538   9.974  11.848  0.0517  0.1531  0.0230
 2840PBP     C195351   3.565   9.928  11.562 -0.2048 -0.0817  0.4483
 2840PBP     C195352   3.741  10.068  11.048  0.1866  0.2293  0.0712
 2840PBP     C195353   4.163  10.178  10.764 -0.3917  0.2603 -0.2918
 2840PBP     C195354   4.437  10.230  10.492 -0.2407  0.2705  0.1480
 2840PBP     C195355   4.817  10.285  10.332  0.0132 -0.1102 -0.6347
 2840PBP     C195356   5.218  10.297  10.546  0.0532 -0.2735  0.2322
 2840PBP     CP95357   5.620  10.415  10.663 -0.1260  0.4684 -0.4178
 2840PBP     CP95358   5.777  10.707  10.755 -0.1140  0.6274 -0.0203
 2840PBP     CP95359   6.028  10.872  10.808  0.3279  0.2337  0.0649
 2840PBP     Ch95360   6.300  10.854  10.915 -0.2042  0.3018  0.0042
 2841PBP     C195361  15.351  11.925   7.325 -0.1390 -0.1861  0.0207
 2841PBP     C195362  15.562  11.868   7.656 -0.2977 -0.1609  0.4103
 2841PBP     C195363  15.533  11.721   8.084  0.0188  0.1262  0.1743
 2841PBP     C195364  15.320  11.254   8.374 -0.3161  0.2725  0.1958
 2841PBP     C195365  15.048  10.904   8.650  0.0407  0.0094 -0.0179
 2841PBP     C195366  14.713  10.792   8.663 -0.0106  0.2530  0.4749
 2841PBP     C195367  14.614  10.536   9.008  0.1467 -0.0185 -0.3104
 2841PBP     C195368  14.540  10.557   9.471  0.2587 -0.1646  0.3012
 2841PBP     CP95369  14.270  10.532   9.751  0.2410  0.0901  0.3388
 2841PBP     CP95370  14.188  10.533  10.071  0.2784 -0.0811 -0.4483
 2841PBP     CP95371  14.254  10.735  10.357  0.3340  0.2464 -0.7433
 2841PBP     Ch95372  14.154  10.843  10.614 -0.1147  0.3586  0.0411
 2842PBP     C195373   8.957  18.508   8.909  0.5174  0.3535 -0.2695
 2842PBP     C195374   8.797  18.001   8.895 -0.1137 -0.2147  0.3158
 2842PBP     C195375   8.432  17.928   8.780  0.0036 -0.3553 -0.0396
 2842PBP     C195376   8.061  17.560   8.856  0.1561 -0.0462 -0.0518
 2842PBP     C195377   8.028  17.191   8.987 -0.1435 -0.0416  0.0264
 2842PBP     C195378   8.241  16.798   9.271 -0.0093 -0.2056  0.1263
 2842PBP     C195379   8.407  16.393   9.473  0.0109 -0.1276 -0.1046
 2842PBP     C195380   8.647  16.046   9.329  0.1432 -0.0478 -0.5792
 2842PBP     CP95381   8.915  15.846   9.543 -0.0570 -0.2648 -0.1507
 2842PBP     CP95382   9.228  15.780   9.711 -0.1478  0.2025  0.0482
 2842PBP     CP95383   9.489  15.602   9.674  0.0314  0.0908 -0.2461
 2842PBP     Ch95384   9.487  15.362   9.749  0.3316  0.2450  0.9347
 2843PBP     C195385  10.167   9.434  15.119 -0.2496 -0.1729 -0.0411
 2843PBP     C195386  10.224   9.744  15.238 -0.0712 -0.0013 -0.2157
 2843PBP     C195387   9.937  10.061  15.294 -0.0075  0.1888 -0.0880
 2843PBP     C195388   9.951  10.539  15.269  0.0750  0.0811 -0.0218
 2843PBP     C195389  10.132  10.794  15.189  0.0393 -0.1905 -0.3450
 2843PBP     C195390  10.152  11.181  14.951 -0.0461 -0.2201  0.1652
 2843PBP     C195391  10.434  11.364  14.779  0.0103 -0.0333  0.5313
 2843PBP     C195392  10.770  11.550  14.738 -0.0482 -0.1136  0.0885
 2843PBP     CP95393  10.888  11.597  14.388  0.1130 -0.1196 -0.1236
 2843PBP     CP95394  11.126  11.380  14.390 -0.1303 -0.3325 -0.3463
 2843PBP     CP95395  11.321  11.285  14.167 -0.0660  0.0299 -0.4347
 2843PBP     Ch95396  11.505  11.066  14.045 -0.0049 -0.1375 -0.2620
 2844PBP     C195397  12.503  12.978   7.743  0.5025  0.2109 -0.0049
 2844PBP     C195398  12.507  12.776   8.193  0.3000 -0.2849 -0.2866
 2844PBP     C195399  12.648  12.597   8.637 -0.2631  0.2270 -0.2078
 2844PBP     C195400  12.942  12.519   8.923 -0.0375  0.1031  0.1347
 2844PBP     C195401  13.310  12.400   9.227  0.0725  0.1343 -0.0704
 2844PBP     C195402  13.489  12.568   9.550 -0.2000  0.5056 -0.2046
 2844PBP     C195403  13.462  12.559   9.890 -0.0351  0.0468 -0.0865
 2844PBP     C195404  13.305  12.593  10.192  0.2773  0.1657  0.1124
 2844PBP     CP95405  12.991  12.606  10.436  0.0834  0.2034 -0.2730
 2844PBP     CP95406  12.763  12.808  10.494 -0.2873 -0.2622  0.4514
 2844PBP     CP95407  12.680  13.114  10.422 -0.1534  0.2257 -0.1140
 2844PBP     Ch95408  12.471  13.343  10.430  0.3512  0.2299 -0.3117
 2845PBP     C195409   4.554   9.781  10.225 -0.0602 -0.2060  0.2095
 2845PBP     C195410   4.723   9.410  10.347  0.0296  0.2571  0.2585
 2845PBP     C195411   4.843   9.076  10.352  0.1484 -0.2239  0.2758
 2845PBP     C195412   4.766   8.827   9.961 -0.2685  0.0288  0.0971
 2845PBP     C195413   4.582   8.968   9.580  0.1411 -0.0755  0.0672
 2845PBP     C195414   4.771   9.373   9.381 -0.0288 -0.4578  0.2890
 2845PBP     C195415   5.045   9.419   9.103 -0.3125 -0.0109  0.0802
 2845PBP     C195416   5.524   9.476   9.072  0.0518  0.3826  0.2901
 2845PBP     CP95417   5.854   9.625   9.264 -0.2973 -0.1911  0.1774
 2845PBP     CP95418   6.167   9.800   9.289  0.3713 -0.0855  0.0296
 2845PBP     CP95419   6.452   9.840   9.420  0.2754 -0.2007  0.0330
 2845PBP     Ch95420   6.684   9.919   9.489  0.0548 -0.1967 -0.0186
 2846PBP     C195421  11.341  17.357   8.959 -0.0519  0.0435  0.0206
 2846PBP     C195422  11.079  17.652   8.992 -0.2628 -0.0056 -0.0511
 2846PBP     C195423  10.710  17.483   9.202  0.2211 -0.1440  0.2720
 2846PBP     C195424  10.324  17.435   9.184 -0.0883  0.2363 -0.1507
 2846PBP     C195425  10.181  17.306   9.461 -0.0749 -0.5245  0.1685
 2846PBP     C195426   9.891  17.182   9.853  0.2471  0.1331 -0.1498
 2846PBP     C195427   9.518  16.930   9.874  0.4778  0.3084  0.3516
 2846PBP     C195428   9.387  16.428   9.912 -0.0015 -0.1821 -0.1060
 2846PBP     CP95429   9.611  16.031   9.839 -0.0346 -0.1714 -0.0113
 2846PBP     CP95430   9.881  15.811   9.823 -0.4899  0.0096 -0.1632
 2846PBP     CP95431  10.143  15.872  10.017  0.0134 -0.1676 -0.2883
 2846PBP     Ch95432  10.305  15.664   9.976 -0.0387  0.0783  0.3166
 2847PBP     C195433   6.628  18.455   8.890 -0.2482 -0.3986  0.0147
 2847PBP     C195434   7.023  18.529   8.952 -0.1748  0.2077 -0.3264
 2847PBP     C195435   7.406  18.333   9.189  0.2541  0.1825 -0.0697
 2847PBP     C195436   7.583  18.032   9.322  0.1323 -0.1247 -0.0485
 2847PBP     C195437   7.613  17.492   9.111 -0.0026  0.3309  0.1497
 2847PBP     C195438   7.718  17.003   9.314 -0.1198 -0.2691  0.0532
 2847PBP     C195439   7.799  16.612   9.471 -0.0906 -0.0076 -0.0726
 2847PBP     C195440   8.002  16.311   9.218 -0.0903 -0.1572 -0.2576
 2847PBP     CP95441   7.934  15.880   9.207  0.2413 -0.2124  0.0582
 2847PBP     CP95442   7.731  15.654   9.182  0.4787  0.3620  0.1603
 2847PBP     CP95443   7.456  15.673   9.060 -0.1417 -0.2649  0.0658
 2847PBP     Ch95444   7.226  15.550   9.081 -0.2896 -0.4530 -0.4533
 2848PBP     C195445  12.984   9.247  16.762  0.0086 -0.0475  0.2301
 2848PBP     C195446  12.608   9.051  16.768  0.2014  0.0629  0.6898
 2848PBP     C195447  12.588   8.618  16.564  0.2665  0.0059 -0.1306
 2848PBP     C195448  12.598   8.572  16.241  0.0585  0.3633 -0.1212
 2848PBP     C195449  12.464   8.867  15.840 -0.0379  0.0133 -0.0895
 2848PBP     C195450  12.902   8.899  15.595  0.1108 -0.4365 -0.0907
 2848PBP     C195451  13.079   8.610  15.301 -0.0025 -0.3141 -0.0163
 2848PBP     C195452  12.833   8.589  14.877  0.1923 -0.1236 -0.0384
 2848PBP     CP95453  12.914   8.291  14.668  0.0870  0.7356 -0.1441
 2848PBP     CP95454  12.848   8.048  14.475  0.2884  0.0186  0.5959
 2848PBP     CP95455  12.865   7.738  14.416  0.2549  0.0405  0.1771
 2848PBP     Ch95456  12.773   7.508  14.513  0.0809  0.1141  0.4489
 2849PBP     C195457   4.202  10.886   9.689 -0.0349  0.2553 -0.2627
 2849PBP     C195458   4.248  11.351   9.606  0.1483 -0.1540 -0.0093
 2849PBP     C195459   4.117  11.739   9.815 -0.2104 -0.0149  0.0225
 2849PBP     C195460   4.153  12.009  10.059  0.0170  0.1324 -0.1169
 2849PBP     C195461   4.165  12.404  10.184  0.0272  0.0266  0.0065
 2849PBP     C195462   4.470  12.655  10.248 -0.4258 -0.1717 -0.0655
 2849PBP     C195463   4.730  12.895  10.647 -0.1545  0.0451  0.0784
 2849PBP     C195464   4.981  12.596  10.763  0.0646  0.0775  0.2374
 2849PBP     CP95465   5.323  12.591  10.895  0.5750 -0.0830 -0.0989
 2849PBP     CP95466   5.658  12.613  11.004 -0.3008 -0.6290  0.4088
 2849PBP     CP95467   5.837  12.410  11.026  0.2708  0.0501  0.0186
 2849PBP     Ch95468   6.023  12.236  11.018  0.0110 -0.4849 -0.2626
 2850PBP     C195469  17.468  10.051  14.837 -0.0407  0.2016 -0.0173
 2850PBP     C195470  17.128   9.977  14.809 -0.0573  0.3360  0.0161
 2850PBP     C195471  16.808   9.744  14.700 -0.1744  0.4675  0.0169
 2850PBP     C195472  16.345   9.795  14.618 -0.1663 -0.1470 -0.4224
 2850PBP     C195473  15.881   9.975  14.857  0.1734 -0.0782 -0.0555
 2850PBP     C195474  15.641   9.928  15.132  0.0860 -0.1033  0.3672
 2850PBP     C195475  15.326   9.639  15.359 -0.2019 -0.0945  0.1433
 2850PBP     C195476  14.954   9.508  15.044 -0.0569 -0.2519 -0.2630
 2850PBP     CP95477  14.614   9.454  14.853 -0.0528  0.0593 -0.0319
 2850PBP     CP95478  14.286   9.364  14.755  0.0406  0.0148 -0.2931
 2850PBP     CP95479  14.012   9.522  14.682  0.4949 -0.1202  0.2350
 2850PBP     Ch95480  13.844   9.733  14.603 -0.4065  0.2540 -0.1571
 2851PBP     C195481   9.748  16.179  15.262  0.0087  0.2180  0.0756
 2851PBP     C195482   9.874  15.677  15.243 -0.3258  0.1849  0.0328
 2851PBP     C195483   9.534  15.247  15.227  0.0941 -0.3640  0.1675
 2851PBP     C195484   9.292  15.097  14.914  0.2054 -0.2874  0.0033
 2851PBP     C195485   9.112  14.989  14.506 -0.2370  0.1272 -0.0180
 2851PBP     C195486   9.050  14.733  14.276 -0.3248  0.2253  0.2111
 2851PBP     C195487   9.220  14.282  14.321 -0.0617  0.0917 -0.1707
 2851PBP     C195488   9.452  14.060  13.984  0.3773  0.0433 -0.0439
 2851PBP     CP95489   9.828  14.076  13.897 -0.2194 -0.2961  0.1011
 2851PBP     CP95490  10.094  13.909  13.989 -0.2420 -0.1837 -0.0937
 2851PBP     CP95491  10.268  13.628  13.956  0.3894  0.3251  0.0563
 2851PBP     Ch95492  10.265  13.337  13.939 -0.0993 -0.0948 -0.0363
 2852PBP     C195493   6.705   7.722  14.490 -0.3123  0.1623  0.3398
 2852PBP     C195494   6.942   7.859  14.131 -0.0978  0.0773 -0.0742
 2852PBP     C195495   6.989   7.562  13.751  0.1441 -0.0000 -0.2140
 2852PBP     C195496   7.047   7.113  13.601  0.2315  0.3020  0.1109
 2852PBP     C195497   7.294   6.666  13.430 -0.0068  0.2629  0.0871
 2852PBP     C195498   7.662   6.573  13.153  0.2868 -0.0455 -0.1788
 2852PBP     C195499   7.961   6.490  12.888 -0.0815 -0.0587  0.1107
 2852PBP     C195500   8.354   6.339  12.915 -0.0782  0.2338  0.0141
 2852PBP     CP95501   8.672   6.449  12.773  0.2372  0.1023  0.2014
 2852PBP     CP95502   8.882   6.617  12.933  0.2584  0.2013  0.0102
 2852PBP     CP95503   9.188   6.801  12.851 -0.1083  0.3191 -0.1629
 2852PBP     Ch95504   9.315   6.896  12.680  0.0407  0.1137  0.4796
 2853PBP     C195505  12.005   4.549   9.860 -0.3489 -0.1602 -0.0163
 2853PBP     C195506  11.652   4.725   9.897  0.2023  0.2614 -0.2936
 2853PBP     C195507  11.306   4.985   9.905 -0.0413  0.1540  0.2767
 2853PBP     C195508  11.088   5.052   9.491  0.3786 -0.0494 -0.0307
 2853PBP     C195509  10.945   5.083   9.156  0.1402 -0.3359 -0.1542
 2853PBP     C195510  10.601   5.233   8.972  0.2391 -0.3500 -0.0114
 2853PBP     C195511  10.189   5.252   8.715 -0.0026  0.0094  0.0231
 2853PBP     C195512  10.135   5.673   8.442  0.3410  0.1251  0.1879
 2853PBP     CP95513   9.911   5.995   8.485  0.2436 -0.3743 -0.0978
 2853PBP     CP95514  10.088   6.281   8.563 -0.3921  0.0955 -0.4775
 2853PBP     CP95515  10.066   6.595   8.529 -0.0168  0.0604 -0.0566
 2853PBP     Ch95516   9.962   6.820   8.680  0.3477  0.3436  0.1777
 2854PBP     C195517  13.011   8.250   7.909  0.0301  0.2685 -0.1747
 2854PBP     C195518  13.414   8.129   7.627 -0.0466 -0.0939 -0.1239
 2854PBP     C195519  13.557   7.815   7.593  0.0111 -0.0488 -0.2540
 2854PBP     C195520  13.252   7.522   7.857 -0.0135  0.0350 -0.1169
 2854PBP     C195521  13.149   7.306   8.170  0.3895 -0.1721 -0.1182
 2854PBP     C195522  13.106   7.203   8.440  0.3189 -0.1198  0.5179
 2854PBP     C195523  13.015   7.271   8.830 -0.1924  0.4631  0.2423
 2854PBP     C195524  12.992   7.485   9.201  0.0911 -0.1956  0.3069
 2854PBP     CP95525  13.061   7.841   9.347 -0.1094  0.0183  0.1746
 2854PBP     CP95526  13.189   8.026   9.565  0.0274 -0.6608  0.2444
 2854PBP     CP95527  13.141   8.170   9.889  0.2655 -0.2134  0.3344
 2854PBP     Ch95528  13.264   8.421   9.994  0.0603  0.4146 -0.1276
 2855PBP     C195529   5.103  11.234  10.057 -0.1577  0.0497  0.0904
 2855PBP     C195530   5.059  11.367  10.512 -0.1518 -0.0007  0.1033
 2855PBP     C195531   4.689  11.328  10.750 -0.6296 -0.2925  0.0451
 2855PBP     C195532   4.262  11.374  10.924 -0.2024  0.0861 -0.0002
 2855PBP     C195533   3.942  11.144  11.144  0.2715  0.2847  0.0377
 2855PBP     C195534   4.033  10.876  11.475 -0.6289  0.1486 -0.0885
 2855PBP     C195535   3.967  10.447  11.311 -0.1162  0.1134  0.0589
 2855PBP     C195536   4.363  10.299  11.336  0.3274 -0.4451 -0.1414
 2855PBP     CP95537   4.759  10.194  11.396 -0.6515  0.0355  0.1080
 2855PBP     CP95538   4.890   9.942  11.338  0.1896 -0.3647  0.2800
 2855PBP     CP95539   5.058   9.749  11.082  0.4527  0.1570 -0.2651
 2855PBP     Ch95540   5.199   9.956  10.934 -0.0592 -0.1548  0.1604
 2856PBP     C195541  10.360  10.775  16.154  0.1392  0.3441 -0.0313
 2856PBP     C195542  10.431  10.812  15.703  0.1395  0.0747  0.7302
 2856PBP     C195543  10.748  10.740  15.404 -0.0837 -0.2158  0.0606
 2856PBP     C195544  11.123  10.843  15.311 -0.2146 -0.1647  0.2614
 2856PBP     C195545  11.380  10.892  14.994 -0.2512  0.2063 -0.1519
 2856PBP     C195546  11.797  10.792  14.838  0.0570  0.2588  0.1079
 2856PBP     C195547  12.165  10.905  14.728  0.2643 -0.1656 -0.0391
 2856PBP     C195548  12.422  11.199  14.845  0.2721 -0.0450  0.1246
 2856PBP     CP95549  12.786  11.168  14.907  0.1186  0.3385 -0.0202
 2856PBP     CP95550  13.064  11.040  14.948 -0.4116 -0.3283 -0.6857
 2856PBP     CP95551  13.309  11.191  14.989  0.1889  0.2290 -0.0212
 2856PBP     Ch95552  13.420  11.154  14.702 -0.0737 -0.0583 -0.5313
 2857PBP     C195553  13.505  13.842   8.421 -0.1738  0.0597  0.1456
 2857PBP     C195554  13.312  13.402   8.406  0.0190 -0.1082 -0.2856
 2857PBP     C195555  13.458  12.944   8.547 -0.0739 -0.3343  0.0946
 2857PBP     C195556  13.801  12.662   8.736 -0.2073 -0.4083  0.0905
 2857PBP     C195557  13.982  12.579   9.157  0.1152  0.0866 -0.4963
 2857PBP     C195558  14.010  12.498   9.583 -0.2880  0.2274 -0.2103
 2857PBP     C195559  13.886  12.242   9.886  0.4241  0.1032  0.4371
 2857PBP     C195560  13.963  11.944  10.178 -0.2723  0.1120 -0.0644
 2857PBP     CP95561  14.003  12.020  10.611 -0.2378 -0.1074  0.4823
 2857PBP     CP95562  13.775  12.201  10.762 -0.2107  0.0593  0.0891
 2857PBP     CP95563  13.496  12.315  10.603  0.4473  0.1594  0.3607
 2857PBP     Ch95564  13.344  12.047  10.549  0.1051  0.3195 -0.0360
 2858PBP     C195565  12.383   5.518   8.996 -0.0875  0.0450  0.3049
 2858PBP     C195566  12.345   5.945   8.741  0.0966 -0.0141 -0.0804
 2858PBP     C195567  12.116   6.205   8.493 -0.2579  0.3501  0.0029
 2858PBP     C195568  11.755   6.437   8.449 -0.1607 -0.0873  0.2531
 2858PBP     C195569  11.389   6.607   8.319 -0.1531  0.5269 -0.0149
 2858PBP     C195570  11.394   6.966   8.521  0.1280 -0.3149  0.5080
 2858PBP     C195571  11.521   7.375   8.523  0.4333  0.2635 -0.0475
 2858PBP     C195572  11.937   7.547   8.781  0.0009  0.1068  0.1712
 2858PBP     CP95573  12.279   7.418   8.964 -0.2443 -0.2074  0.0666
 2858PBP     CP95574  12.532   7.285   9.125  0.2077  0.3398 -0.6126
 2858PBP     CP95575  12.685   7.179   9.391 -0.3000 -0.0263  0.0274
 2858PBP     Ch95576  12.758   7.098   9.644 -0.0561 -0.4519  0.0227
 2859PBP     C195577  14.231  14.735   8.437  0.0894  0.3545 -0.1468
 2859PBP     C195578  13.915  14.413   8.508 -0.4980 -0.1190 -0.0615
 2859PBP     C195579  13.642  14.477   8.745 -0.0749  0.1685 -0.0656
 2859PBP     C195580  13.320  14.295   8.654  0.3939 -0.0012 -0.3090
 2859PBP     C195581  13.072  14.050   9.031 -0.1972 -0.5414 -0.0997
 2859PBP     C195582  13.160  13.861   9.436 -0.0744 -0.1744 -0.2363
 2859PBP     C195583  13.324  14.010   9.783  0.0721  0.0767  0.0134
 2859PBP     C195584  13.289  13.887  10.234  0.2834 -0.0436  0.0416
 2859PBP     CP95585  13.339  13.907  10.648 -0.5370 -0.3750  0.0841
 2859PBP     CP95586  13.586  13.848  10.834 -0.0963 -0.2939 -0.0768
 2859PBP     CP95587  13.772  13.625  10.768  0.3165  0.3359  0.0054
 2859PBP     Ch95588  13.949  13.536  10.960  0.2072 -0.4454  0.4663
 2860PBP     C195589   8.305   4.203  14.359 -0.1635 -0.0755 -0.2291
 2860PBP     C195590   8.536   4.190  13.975  0.4098 -0.1303  0.0357
 2860PBP     C195591   8.572   4.472  13.530 -0.0052  0.3164  0.1545
 2860PBP     C195592   8.375   4.824  13.436  0.0306 -0.1854  0.1788
 2860PBP     C195593   8.635   5.114  13.276  0.2174  0.2502 -0.1752
 2860PBP     C195594   8.513   5.585  13.387  0.0759  0.4440 -0.1840
 2860PBP     C195595   8.199   5.871  13.272  0.2300 -0.1074 -0.0476
 2860PBP     C195596   8.002   5.815  12.819 -0.0668 -0.0213 -0.2439
 2860PBP     CP95597   7.787   6.101  12.622  0.1242  0.1736 -0.3169
 2860PBP     CP95598   7.552   6.144  12.353  0.2287  0.1614 -0.3834
 2860PBP     CP95599   7.472   6.208  12.063 -0.4545  0.2141 -0.2174
 2860PBP     Ch95600   7.225   6.165  11.986  0.1722 -0.0181  0.7218
 2861PBP     C195601  11.593  10.032   7.304 -0.0083  0.1947  0.1972
 2861PBP     C195602  11.612   9.776   7.657 -0.0956 -0.1776 -0.2199
 2861PBP     C195603  11.507   9.405   7.906  0.0811  0.0221  0.0810
 2861PBP     C195604  11.299   9.008   7.865 -0.0939  0.1837  0.2662
 2861PBP     C195605  11.323   8.716   8.270  0.2552  0.2889  0.3575
 2861PBP     C195606  11.462   8.662   8.548  0.0743  0.2673  0.2723
 2861PBP     C195607  11.404   8.414   8.834  0.0310 -0.0059  0.3470
 2861PBP     C195608  11.335   7.903   8.908 -0.0102 -0.0250  0.3726
 2861PBP     CP95609  11.236   7.560   8.891 -0.3543 -0.4956 -0.4703
 2861PBP     CP95610  11.045   7.366   9.055 -0.0156  0.2203 -0.1873
 2861PBP     CP95611  10.925   7.063   8.970 -0.1919 -0.2722  0.0775
 2861PBP     Ch95612  10.847   6.875   8.822  0.3547  0.1304 -0.1209
 2862PBP     C195613  15.994  11.962  13.606 -0.0012 -0.0641 -0.2818
 2862PBP     C195614  15.789  12.002  13.151 -0.5133 -0.2497 -0.0538
 2862PBP     C195615  15.878  12.317  12.812  0.1650 -0.0600 -0.1727
 2862PBP     C195616  15.848  12.218  12.285  0.1862 -0.4999  0.5648
 2862PBP     C195617  16.062  12.268  11.880  0.2697  0.0465 -0.0035
 2862PBP     C195618  16.154  12.117  11.525 -0.2087 -0.0997  0.1990
 2862PBP     C195619  16.274  11.912  11.243  0.0706 -0.2431  0.1661
 2862PBP     C195620  16.139  11.636  11.061  0.0547 -0.0581 -0.3355
 2862PBP     CP95621  15.914  11.333  11.058 -0.0635 -0.2184  0.1673
 2862PBP     CP95622  15.553  11.284  11.127  0.0233  0.2266 -0.3797
 2862PBP     CP95623  15.265  11.411  11.011  0.1289  0.5092 -0.3143
 2862PBP     Ch95624  15.006  11.401  10.941  0.0834  0.1147  0.2036
 2863PBP     C195625   7.272  17.907  12.455  0.0612 -0.2205  0.1789
 2863PBP     C195626   7.513  17.851  12.870  0.0527  0.0735 -0.3232
 2863PBP     C195627   7.914  17.588  13.145  0.2363  0.0087 -0.4196
 2863PBP     C195628   7.997  17.053  13.272  0.0796  0.3246  0.2898
 2863PBP     C195629   8.010  16.589  13.409  0.2010  0.4402 -0.3548
 2863PBP     C195630   7.800  16.293  13.271  0.1173 -0.2043  0.2314
 2863PBP     C195631   7.740  15.828  13.343  0.0571  0.3375 -0.1318
 2863PBP     C195632   7.627  15.336  13.420  0.0952  0.2955  0.1381
 2863PBP     CP95633   7.488  14.988  13.429 -0.0003 -0.1090  0.2122
 2863PBP     CP95634   7.326  14.795  13.237  0.1936  0.6058  0.0930
 2863PBP     CP95635   7.350  14.499  13.171 -0.1690 -0.1788 -0.6072
 2863PBP     Ch95636   7.175  14.266  13.046 -0.0029 -0.2895  0.2703
 2864PBP     C195637   3.987  14.105  10.728  0.1285  0.2359  0.0727
 2864PBP     C195638   4.172  13.793  10.946 -0.1142  0.4200 -0.0394
 2864PBP     C195639   4.230  13.516  11.122 -0.2278  0.0146  0.1750
 2864PBP     C195640   4.160  13.334  11.480 -0.0258  0.2072  0.0416
 2864PBP     C195641   4.196  12.979  11.734 -0.3193 -0.2732 -0.4703
 2864PBP     C195642   4.371  12.933  12.070 -0.1263  0.1792  0.2169
 2864PBP     C195643   4.753  13.073  12.250 -0.3279 -0.2059 -0.2411
 2864PBP     C195644   4.916  13.441  12.413  0.2581  0.0310 -0.1787
 2864PBP     CP95645   5.256  13.548  12.657 -0.1616 -0.2272 -0.4319
 2864PBP     CP95646   5.497  13.660  12.534  0.2765 -0.1836 -0.0023
 2864PBP     CP95647   5.829  13.631  12.628  0.3055  0.1440  0.5187
 2864PBP     Ch95648   6.096  13.592  12.640 -0.2927 -0.1015 -0.0309
 2865PBP     C195649  11.555  17.834   9.001 -0.2631  0.1474  0.1949
 2865PBP     C195650  11.851  17.458   8.941  0.2723 -0.1073  0.0204
 2865PBP     C195651  12.228  17.392   8.828 -0.1013 -0.1985 -0.2198
 2865PBP     C195652  12.546  17.211   9.281 -0.1310 -0.1899  0.1069
 2865PBP     C195653  12.612  16.812   9.323  0.4437 -0.1392 -0.0328
 2865PBP     C195654  12.518  16.384   9.422 -0.3609 -0.4475 -0.2242
 2865PBP     C195655  12.109  16.190   9.651 -0.0447  0.1262  0.4639
 2865PBP     C195656  11.786  15.958   9.997 -0.2379 -0.0448  0.0788
 2865PBP     CP95657  11.532  15.878  10.276  0.8499  0.2945  0.0557
 2865PBP     CP95658  11.200  15.978  10.372 -0.2446 -0.1531  0.2897
 2865PBP     CP95659  10.929  16.025  10.180  0.3858  0.2010 -0.0241
 2865PBP     Ch95660  10.712  15.887  10.117  0.3250  0.1633  0.0235
 2866PBP     C195661  13.528  12.423  17.182 -0.1749 -0.3325 -0.0611
 2866PBP     C195662  13.486  11.927  16.975  0.4492 -0.1871 -0.2710
 2866PBP     C195663  13.417  11.847  16.449  0.3547  0.3828 -0.1929
 2866PBP     C195664  13.142  11.656  16.214 -0.1587  0.2061 -0.1043
 2866PBP     C195665  12.701  11.694  15.992  0.4585  0.1309 -0.1790
 2866PBP     C195666  12.393  11.396  15.730 -0.4859 -0.3010 -0.0520
 2866PBP     C195667  12.037  11.257  15.356  0.0911 -0.1634 -0.6505
 2866PBP     C195668  11.829  11.331  14.923 -0.0735 -0.1904  0.1528
 2866PBP     CP95669  12.063  11.544  14.735 -0.0712 -0.0615 -0.1498
 2866PBP     CP95670  12.221  11.530  14.454  0.4397 -0.0207 -0.2124
 2866PBP     CP95671  12.468  11.273  14.383 -0.4018  0.1403 -0.1514
 2866PBP     Ch95672  12.461  10.981  14.327 -0.2560 -0.1113 -0.3384
 2867PBP     C195673  14.549  11.804   8.661 -0.1141 -0.0204  0.2979
 2867PBP     C195674  14.756  11.987   9.116 -0.0174  0.1552  0.1315
 2867PBP     C195675  15.166  12.080   9.388 -0.0114 -0.2240  0.0970
 2867PBP     C195676  15.392  11.771   9.669 -0.2795  0.1655 -0.5329
 2867PBP     C195677  15.583  11.471   9.977 -0.4901 -0.0740  0.0774
 2867PBP     C195678  15.916  11.225  10.254 -0.4440  0.2571 -0.1259
 2867PBP     C195679  16.023  10.982  10.569  0.0802 -0.0759  0.1570
 2867PBP     C195680  15.869  10.612  10.718  0.2046 -0.0156 -0.3360
 2867PBP     CP95681  15.878  10.394  11.076 -0.5781 -0.5646 -0.3185
 2867PBP     CP95682  15.786  10.050  11.090 -0.0337 -0.3158 -0.0222
 2867PBP     CP95683  15.655   9.877  10.888 -0.1770 -0.2856 -0.4390
 2867PBP     Ch95684  15.640   9.629  10.962 -0.0528 -0.0882 -0.3742
 2868PBP     C195685   9.494  13.584  16.315  0.1671 -0.2369 -0.2536
 2868PBP     C195686   9.355  13.948  16.513 -0.4721 -0.3679  0.0178
 2868PBP     C195687   9.424  14.352  16.425 -0.1315 -0.0347  0.0580
 2868PBP     C195688   9.646  14.573  16.234 -0.1228  0.1624  0.0754
 2868PBP     C195689   9.850  14.862  15.976  0.1726  0.0401  0.2602
 2868PBP     C195690  10.203  15.227  15.972 -0.0788  0.1496 -0.0455
 2868PBP     C195691  10.088  15.661  15.677 -0.0204  0.0701 -0.2440
 2868PBP     C195692  10.348  15.427  15.212  0.0634  0.1327  0.2679
 2868PBP     CP95693  10.472  15.381  14.869 -0.0054  0.1120 -0.1061
 2868PBP     CP95694  10.341  15.220  14.582  0.3114 -0.2141  0.2200
 2868PBP     CP95695  10.292  15.114  14.290 -0.1192  0.1636  0.0172
 2868PBP     Ch95696  10.257  14.857  14.192 -0.9538 -0.3779  0.6445
 2869PBP     C195697   8.885  15.935  16.303  0.0381 -0.2688  0.2417
 2869PBP     C195698   9.333  15.756  16.428 -0.1718  0.0584  0.0809
 2869PBP     C195699   9.724  15.569  16.383 -0.2126  0.2739 -0.0421
 2869PBP     C195700  10.173  15.657  16.258 -0.1321 -0.3558 -0.1654
 2869PBP     C195701  10.567  15.621  16.019  0.0921 -0.2660 -0.1935
 2869PBP     C195702  10.794  15.322  15.751 -0.3448 -0.3172  0.0428
 2869PBP     C195703  10.926  15.379  15.308  0.0682  0.1386  0.1277
 2869PBP     C195704  11.090  15.343  14.882  0.1980 -0.0281  0.3273
 2869PBP     CP95705  11.362  15.363  14.590 -0.2157  0.0939 -0.0662
 2869PBP     CP95706  11.225  15.064  14.461  0.2415 -0.2065 -0.5809
 2869PBP     CP95707  11.228  14.749  14.539  0.2348 -0.0687 -0.0489
 2869PBP     Ch95708  11.098  14.554  14.367 -0.1467  0.4770  0.5608
 2870PBP     C195709   5.926  13.790  15.023  0.2483 -0.2180  0.2062
 2870PBP     C195710   5.927  13.534  14.614 -0.1382  0.0378 -0.0153
 2870PBP     C195711   5.997  13.042  14.518  0.0224 -0.2713  0.4626
 2870PBP     C195712   6.148  12.764  14.198 -0.0308 -0.5563  0.0280
 2870PBP     C195713   6.046  12.775  13.723 -0.0485  0.1164 -0.3831
 2870PBP     C195714   6.155  13.150  13.495  0.0173  0.1910  0.4166
 2870PBP     C195715   6.329  13.486  13.643  0.1986 -0.1940  0.2297
 2870PBP     C195716   6.756  13.483  13.743  0.3602 -0.2056 -0.3473
 2870PBP     CP95717   6.993  13.300  13.466  0.1240  0.3955 -0.0696
 2870PBP     CP95718   7.136  13.373  13.189 -0.5151 -0.1435  0.1933
 2870PBP     CP95719   7.297  13.196  12.974  0.1633  0.1235  0.3647
 2870PBP     Ch95720   7.466  12.964  12.970  0.1646 -0.2205 -0.0952
  22.04375  22.04375  22.04375
